 Gaussian 16, Revision A.03,
 Gaussian 16:  ES64L-G16RevA.03 25-Dec-2016

 ------------------------------
 #p blyp/Def2SVP td=(nstates=5)
 ------------------------------

 --------------------------------------------------
 step_1401_chromophore_1 TDDFT with blyp functional
 --------------------------------------------------
 Symbolic Z-matrix:
 Charge =  0 Multiplicity = 1

                         Standard orientation:
 ---------------------------------------------------------------------
 Center     Atomic      Atomic             Coordinates (Angstroms)
 Number     Number       Type             X           Y           Z
 ---------------------------------------------------------------------
      1         12           0        5.920430    0.497089    0.038431
      2          6           0        4.081385   -2.393887   -0.644180
      3          6           0        3.470357    2.312711   -1.468650
      4          6           0        7.920927    3.171624    0.247449
      5          6           0        8.579945   -1.526475    0.752327
      6          7           0        3.935019   -0.005742   -0.756695
      7          6           0        3.298741   -1.201709   -0.792255
      8          6           0        1.771663   -1.077150   -1.130001
      9          6           0        1.635651    0.475285   -1.501853
     10          6           0        3.136132    0.922107   -1.262586
     11          6           0        1.139807    0.834595   -2.930103
     12          6           0        0.833260   -1.593773    0.004032
     13          6           0       -0.548385   -0.883667    0.083418
     14          6           0       -1.782442   -1.740145    0.584574
     15          8           0       -1.728164   -2.798725    1.245370
     16          8           0       -2.920570   -1.138565    0.212566
     17          7           0        5.655657    2.523091   -0.371370
     18          6           0        4.556799    3.097300   -1.007632
     19          6           0        4.752923    4.544671   -1.080479
     20          6           0        5.989531    4.782558   -0.393535
     21          6           0        6.602279    3.461796   -0.148577
     22          6           0        3.647829    5.487158   -1.673179
     23          6           0        6.761672    6.085327   -0.059491
     24          8           0        7.781406    6.085624    0.616064
     25          6           0        6.328439    7.439278   -0.602907
     26          7           0        8.006674    0.782706    0.335599
     27          6           0        8.583754    1.960762    0.496522
     28          6           0       10.060355    1.895481    0.859551
     29          6           0       10.301334    0.407923    0.970072
     30          6           0        8.867758   -0.156627    0.755318
     31          6           0       11.077816    2.647784   -0.123717
     32          6           0       11.113406   -0.163128    2.130105
     33          6           0       10.237613   -0.290823    3.417966
     34          7           0        6.334701   -1.548541    0.059866
     35          6           0        7.455866   -2.231401    0.451131
     36          6           0        7.293368   -3.607577    0.377641
     37          6           0        5.966705   -3.738714   -0.094049
     38          6           0        5.413706   -2.494275   -0.297510
     39          6           0        8.282206   -4.701269    0.631746
     40          6           0        4.957562   -4.678688   -0.467634
     41          8           0        4.896621   -5.936286   -0.491957
     42          6           0        3.727865   -3.821363   -0.936825
     43          6           0        2.472014   -4.366013   -0.423434
     44          8           0        2.391153   -4.670916    0.748287
     45          8           0        1.454450   -4.549387   -1.357849
     46          6           0        0.217880   -5.216598   -0.828701
     47          6           0       -4.147668   -1.739727    0.642791
     48          6           0       -5.352681   -1.241781   -0.189901
     49          6           0       -6.555080   -1.909944   -0.372306
     50          6           0       -6.888669   -3.222143    0.245659
     51          6           0       -7.593329   -1.391350   -1.415309
     52          6           0       -8.859664   -0.594147   -1.010713
     53          6           0       -8.984271   -0.232670    0.529113
     54          6           0       -9.216979    1.236796    0.870542
     55          6           0       -7.982613    2.074207    0.528059
     56          6           0       -9.592656    1.402666    2.384553
     57          6           0      -10.976217    2.041206    2.472744
     58          6           0      -12.116041    1.200762    3.147808
     59          6           0      -13.438298    1.566253    2.469468
     60          6           0      -14.547005    1.244113    3.487778
     61          6           0      -13.612901    0.760901    1.130884
     62          6           0      -14.186137    1.595741   -0.067612
     63          6           0      -13.203254    1.677121   -1.318492
     64          6           0      -13.566939    0.744860   -2.464079
     65          6           0      -13.134240   -0.725783   -2.121054
     66          6           0      -12.848334    1.169525   -3.771716
     67          1           0        2.554008    2.865043   -1.683963
     68          1           0        8.604476    4.021340    0.275461
     69          1           0        9.281222   -2.230065    1.206699
     70          1           0        1.459438   -1.710837   -1.960103
     71          1           0        1.003214    0.944675   -0.747831
     72          1           0        1.872308    1.498402   -3.388239
     73          1           0        0.231492    1.422536   -2.801292
     74          1           0        0.990420    0.011433   -3.628571
     75          1           0        1.439527   -1.477168    0.903495
     76          1           0        0.501950   -2.598374   -0.258128
     77          1           0       -0.683446   -0.622029   -0.966337
     78          1           0       -0.356108    0.045498    0.618947
     79          1           0        3.524766    5.420939   -2.755272
     80          1           0        3.902532    6.489849   -1.329530
     81          1           0        2.698328    5.215312   -1.212272
     82          1           0        5.358295    7.650464   -0.151935
     83          1           0        6.130493    7.199515   -1.647917
     84          1           0        7.170183    8.115403   -0.453267
     85          1           0       10.119019    2.430097    1.807753
     86          1           0       10.736588    0.181848   -0.004261
     87          1           0       11.652661    2.003671   -0.789688
     88          1           0       11.878281    3.062073    0.488100
     89          1           0       10.516642    3.387131   -0.694676
     90          1           0       11.916540    0.566921    2.237055
     91          1           0       11.529401   -1.136319    1.870127
     92          1           0       10.698842    0.252811    4.242938
     93          1           0       10.202671   -1.349433    3.675985
     94          1           0        9.221031    0.089217    3.318450
     95          1           0        9.329696   -4.441929    0.481686
     96          1           0        8.051311   -5.569134    0.013870
     97          1           0        8.176553   -4.950062    1.688076
     98          1           0        3.629290   -3.765096   -2.020526
     99          1           0       -0.205874   -5.722307   -1.696606
    100          1           0       -0.532083   -4.523285   -0.447092
    101          1           0        0.563802   -5.975883   -0.128537
    102          1           0       -4.111076   -1.582766    1.721177
    103          1           0       -4.144235   -2.808997    0.433038
    104          1           0       -5.148124   -0.391400   -0.840706
    105          1           0       -7.778984   -3.088392    0.859764
    106          1           0       -6.174511   -3.707851    0.910818
    107          1           0       -7.156204   -3.900988   -0.565037
    108          1           0       -7.922207   -2.245730   -2.007482
    109          1           0       -7.085015   -0.713535   -2.101754
    110          1           0       -9.660376   -1.319895   -1.148738
    111          1           0       -8.854693    0.286377   -1.652466
    112          1           0       -8.132821   -0.647532    1.069031
    113          1           0       -9.875306   -0.761212    0.867595
    114          1           0      -10.104087    1.469826    0.281378
    115          1           0       -8.194544    2.742440   -0.306075
    116          1           0       -7.135653    1.407088    0.364587
    117          1           0       -7.652188    2.759008    1.308632
    118          1           0       -9.029895    2.100103    3.005510
    119          1           0       -9.438916    0.428252    2.848076
    120          1           0      -11.267511    2.506903    1.531508
    121          1           0      -10.908442    2.918628    3.115530
    122          1           0      -12.167020    1.492500    4.196863
    123          1           0      -11.770392    0.174770    3.017246
    124          1           0      -13.453256    2.621176    2.196173
    125          1           0      -14.216916    0.823344    4.437161
    126          1           0      -15.346012    0.658673    3.032825
    127          1           0      -14.988879    2.202784    3.761301
    128          1           0      -14.135406   -0.155449    1.403966
    129          1           0      -12.631909    0.495307    0.736817
    130          1           0      -14.606839    2.586237    0.106091
    131          1           0      -15.060236    0.987572   -0.303531
    132          1           0      -12.170931    1.397980   -1.106279
    133          1           0      -13.075107    2.722165   -1.599026
    134          1           0      -14.641775    0.826371   -2.630205
    135          1           0      -13.182189   -1.361116   -3.005255
    136          1           0      -13.728419   -1.075736   -1.275540
    137          1           0      -12.097486   -0.617294   -1.803330
    138          1           0      -12.328959    0.470772   -4.426531
    139          1           0      -12.238209    2.031323   -3.499965
    140          1           0      -13.537912    1.508310   -4.545205
 ---------------------------------------------------------------------

 SCF Done:  E(RB-LYP) =  -3007.34632933     A.U. after   21 cycles

 Excitation energies and oscillator strengths:

 Excited State   1:      Singlet-A      1.7592 eV  704.76 nm  f=0.0228  <S**2>=0.000
     244 -> 247        0.54898
     245 -> 247       -0.39303
     246 -> 247       -0.18034
 This state for optimization and/or second-order correction.
 Total Energy, E(TD-HF/TD-DFT) =  -3007.28167849
 Copying the excited state density for this state as the 1-particle RhoCI density.

 Excited State   2:      Singlet-A      1.8319 eV  676.82 nm  f=0.2600  <S**2>=0.000
     244 -> 247        0.21641
     245 -> 248       -0.20536
     246 -> 247        0.64827
     246 <- 247       -0.13101

 Excited State   3:      Singlet-A      1.9292 eV  642.68 nm  f=0.0792  <S**2>=0.000
     243 -> 247        0.20605
     244 -> 247        0.37190
     245 -> 247        0.50418
     246 -> 247       -0.11332
     246 -> 248        0.19127

 Excited State   4:      Singlet-A      2.0340 eV  609.57 nm  f=0.0083  <S**2>=0.000
     243 -> 247        0.67268
     245 -> 247       -0.16634

 Excited State   5:      Singlet-A      2.4114 eV  514.16 nm  f=0.0027  <S**2>=0.000
     241 -> 247        0.24052
     242 -> 247        0.63880
     246 -> 248       -0.11723

 The electronic state is 1-A.
 Alpha  occ. eigenvalues --  -46.27052 -18.83499 -18.81222 -18.77562 -18.75823
 Alpha  occ. eigenvalues --  -18.75252 -18.74575 -14.03787 -14.02915 -14.00933
 Alpha  occ. eigenvalues --  -13.99716 -10.05470 -10.02441 -10.00182  -9.98837
 Alpha  occ. eigenvalues --   -9.98686  -9.97052  -9.96942  -9.96738  -9.95967
 Alpha  occ. eigenvalues --   -9.95958  -9.95900  -9.95825  -9.94811  -9.94808
 Alpha  occ. eigenvalues --   -9.94441  -9.94366  -9.94258  -9.93976  -9.93863
 Alpha  occ. eigenvalues --   -9.93744  -9.93568  -9.93502  -9.93490  -9.93280
 Alpha  occ. eigenvalues --   -9.93240  -9.93088  -9.92953  -9.92845  -9.92833
 Alpha  occ. eigenvalues --   -9.92756  -9.92742  -9.92617  -9.92587  -9.92483
 Alpha  occ. eigenvalues --   -9.92315  -9.92306  -9.92237  -9.92192  -9.91904
 Alpha  occ. eigenvalues --   -9.91789  -9.91720  -9.91579  -9.91556  -9.91517
 Alpha  occ. eigenvalues --   -9.91517  -9.91273  -9.91201  -9.91193  -9.90801
 Alpha  occ. eigenvalues --   -9.90780  -9.90640  -9.90625  -9.90502  -9.90452
 Alpha  occ. eigenvalues --   -9.90422  -2.91708  -1.72133  -1.71599  -1.71407
 Alpha  occ. eigenvalues --   -0.99807  -0.95901  -0.91898  -0.89939  -0.88859
 Alpha  occ. eigenvalues --   -0.88068  -0.87749  -0.87103  -0.85720  -0.84936
 Alpha  occ. eigenvalues --   -0.75983  -0.73705  -0.73010  -0.72772  -0.72726
 Alpha  occ. eigenvalues --   -0.72075  -0.71488  -0.71082  -0.70598  -0.70080
 Alpha  occ. eigenvalues --   -0.69499  -0.69112  -0.67950  -0.67317  -0.66986
 Alpha  occ. eigenvalues --   -0.66129  -0.65763  -0.65471  -0.64896  -0.64291
 Alpha  occ. eigenvalues --   -0.64127  -0.62609  -0.62342  -0.61473  -0.60825
 Alpha  occ. eigenvalues --   -0.60462  -0.60184  -0.60158  -0.59358  -0.59246
 Alpha  occ. eigenvalues --   -0.58816  -0.57938  -0.57037  -0.56017  -0.55657
 Alpha  occ. eigenvalues --   -0.54106  -0.53761  -0.52941  -0.51961  -0.51385
 Alpha  occ. eigenvalues --   -0.51130  -0.50857  -0.50510  -0.49903  -0.49719
 Alpha  occ. eigenvalues --   -0.49437  -0.49374  -0.49025  -0.47215  -0.46595
 Alpha  occ. eigenvalues --   -0.46180  -0.45983  -0.45417  -0.45070  -0.44612
 Alpha  occ. eigenvalues --   -0.44058  -0.43679  -0.43548  -0.43081  -0.42912
 Alpha  occ. eigenvalues --   -0.42685  -0.41925  -0.41634  -0.41222  -0.41010
 Alpha  occ. eigenvalues --   -0.40762  -0.40606  -0.40518  -0.40217  -0.39941
 Alpha  occ. eigenvalues --   -0.39732  -0.39637  -0.39449  -0.39383  -0.39154
 Alpha  occ. eigenvalues --   -0.38896  -0.38804  -0.38603  -0.38575  -0.38358
 Alpha  occ. eigenvalues --   -0.37986  -0.37818  -0.37783  -0.37607  -0.37436
 Alpha  occ. eigenvalues --   -0.37245  -0.36932  -0.36769  -0.36331  -0.36221
 Alpha  occ. eigenvalues --   -0.36079  -0.35895  -0.35779  -0.35581  -0.35496
 Alpha  occ. eigenvalues --   -0.35294  -0.35182  -0.35135  -0.34639  -0.34514
 Alpha  occ. eigenvalues --   -0.34424  -0.34376  -0.34203  -0.33947  -0.33922
 Alpha  occ. eigenvalues --   -0.33511  -0.33397  -0.33322  -0.33120  -0.32969
 Alpha  occ. eigenvalues --   -0.32792  -0.32741  -0.32529  -0.32461  -0.32440
 Alpha  occ. eigenvalues --   -0.32202  -0.32116  -0.32009  -0.31750  -0.31531
 Alpha  occ. eigenvalues --   -0.31469  -0.31374  -0.31036  -0.30864  -0.30559
 Alpha  occ. eigenvalues --   -0.30371  -0.30317  -0.30290  -0.29787  -0.29711
 Alpha  occ. eigenvalues --   -0.29541  -0.29345  -0.29136  -0.29041  -0.28880
 Alpha  occ. eigenvalues --   -0.28812  -0.28364  -0.28303  -0.28208  -0.27745
 Alpha  occ. eigenvalues --   -0.27456  -0.27449  -0.26951  -0.26548  -0.26478
 Alpha  occ. eigenvalues --   -0.26436  -0.26209  -0.26024  -0.26000  -0.25806
 Alpha  occ. eigenvalues --   -0.25208  -0.24249  -0.24146  -0.23917  -0.23691
 Alpha  occ. eigenvalues --   -0.22978  -0.22424  -0.21954  -0.20810  -0.20750
 Alpha  occ. eigenvalues --   -0.20378  -0.19746  -0.18687  -0.17875  -0.16765
 Alpha  occ. eigenvalues --   -0.15836
 Alpha virt. eigenvalues --   -0.11368  -0.06861  -0.06244  -0.04300  -0.03976
 Alpha virt. eigenvalues --   -0.03194  -0.02587  -0.01858  -0.01538   0.00295
 Alpha virt. eigenvalues --    0.01184   0.01473   0.01824   0.02145   0.02799

 Mulliken charges:
               1
     1  Mg   0.694924
     2  C    0.027844
     3  C   -0.042299
     4  C   -0.047588
     5  C   -0.095078
     6  N   -0.170554
     7  C   -0.079083
     8  C   -0.013431
     9  C   -0.020439
    10  C   -0.021405
    11  C    0.140376
    12  C    0.106278
    13  C    0.063860
    14  C    0.129421
    15  O   -0.213695
    16  O   -0.233350
    17  N   -0.299022
    18  C    0.116959
    19  C   -0.140035
    20  C    0.023409
    21  C    0.105368
    22  C    0.166444
    23  C   -0.094037
    24  O   -0.166293
    25  C    0.139071
    26  N   -0.179313
    27  C   -0.018776
    28  C    0.015889
    29  C    0.068153
    30  C   -0.002369
    31  C    0.116414
    32  C    0.122620
    33  C    0.057321
    34  N   -0.268580
    35  C    0.093493
    36  C   -0.160984
    37  C    0.112080
    38  C    0.047156
    39  C    0.185385
    40  C   -0.035497
    41  O   -0.165825
    42  C    0.102338
    43  C    0.083822
    44  O   -0.169065
    45  O   -0.303849
    46  C    0.200733
    47  C    0.285150
    48  C   -0.070149
    49  C   -0.156448
    50  C    0.149537
    51  C    0.109031
    52  C    0.081535
    53  C    0.037864
    54  C   -0.082684
    55  C    0.127312
    56  C    0.130144
    57  C    0.008612
    58  C    0.123210
    59  C   -0.085087
    60  C    0.128279
    61  C    0.082321
    62  C    0.080131
    63  C    0.053535
    64  C   -0.072534
    65  C    0.090135
    66  C    0.097864
    67  H   -0.053081
    68  H   -0.046416
    69  H   -0.072766
    70  H   -0.032268
    71  H   -0.009956
    72  H   -0.008963
    73  H   -0.010582
    74  H   -0.000515
    75  H   -0.014239
    76  H   -0.000952
    77  H   -0.005684
    78  H    0.017029
    79  H    0.014599
    80  H   -0.029040
    81  H    0.003991
    82  H    0.024787
    83  H    0.001128
    84  H    0.009833
    85  H   -0.021299
    86  H   -0.026274
    87  H   -0.014676
    88  H   -0.008555
    89  H    0.008777
    90  H   -0.020316
    91  H   -0.013114
    92  H   -0.009993
    93  H   -0.003728
    94  H    0.008663
    95  H   -0.011712
    96  H    0.013783
    97  H    0.003687
    98  H   -0.010040
    99  H    0.002910
   100  H    0.036151
   101  H    0.032958
   102  H    0.006470
   103  H    0.009335
   104  H   -0.024746
   105  H   -0.007697
   106  H   -0.005295
   107  H   -0.001273
   108  H   -0.029983
   109  H   -0.034874
   110  H   -0.011585
   111  H   -0.012535
   112  H   -0.009588
   113  H   -0.036038
   114  H   -0.018752
   115  H   -0.021247
   116  H   -0.014825
   117  H   -0.026052
   118  H   -0.037917
   119  H   -0.036509
   120  H   -0.025185
   121  H   -0.048624
   122  H   -0.033548
   123  H   -0.027655
   124  H   -0.034811
   125  H   -0.012474
   126  H   -0.023916
   127  H   -0.027661
   128  H   -0.025227
   129  H   -0.030024
   130  H   -0.022455
   131  H   -0.030381
   132  H   -0.025276
   133  H   -0.033479
   134  H   -0.032033
   135  H   -0.006132
   136  H   -0.009910
   137  H   -0.013980
   138  H   -0.022173
   139  H   -0.022933
   140  H   -0.029694
 Sum of Mulliken charges =  -0.00000

 Dipole moment (field-independent basis, Debye):
    X=             -3.3333    Y=              5.1431    Z=             -2.1499  Tot=              6.4949
 Quadrupole moment (field-independent basis, Debye-Ang):
   XX=           -357.3199   YY=           -441.3492   ZZ=           -404.3951
   XY=             11.7027   XZ=              7.6965   YZ=             -0.3737

 Normal termination of Gaussian 16 at Wed May  4 05:41:21 2022.
