 Gaussian 16, Revision A.03,
 Gaussian 16:  ES64L-G16RevA.03 25-Dec-2016

 -----------------------------------
 #p cam-b3lyp/Def2SVP td=(nstates=5)
 -----------------------------------

 -------------------------------------------------------
 step_1401_chromophore_1 TDDFT with cam-b3lyp functional
 -------------------------------------------------------
 Symbolic Z-matrix:
 Charge =  0 Multiplicity = 1

                         Standard orientation:
 ---------------------------------------------------------------------
 Center     Atomic      Atomic             Coordinates (Angstroms)
 Number     Number       Type             X           Y           Z
 ---------------------------------------------------------------------
      1         12           0        5.920430    0.497089    0.038431
      2          6           0        4.081385   -2.393887   -0.644180
      3          6           0        3.470357    2.312711   -1.468650
      4          6           0        7.920927    3.171624    0.247449
      5          6           0        8.579945   -1.526475    0.752327
      6          7           0        3.935019   -0.005742   -0.756695
      7          6           0        3.298741   -1.201709   -0.792255
      8          6           0        1.771663   -1.077150   -1.130001
      9          6           0        1.635651    0.475285   -1.501853
     10          6           0        3.136132    0.922107   -1.262586
     11          6           0        1.139807    0.834595   -2.930103
     12          6           0        0.833260   -1.593773    0.004032
     13          6           0       -0.548385   -0.883667    0.083418
     14          6           0       -1.782442   -1.740145    0.584574
     15          8           0       -1.728164   -2.798725    1.245370
     16          8           0       -2.920570   -1.138565    0.212566
     17          7           0        5.655657    2.523091   -0.371370
     18          6           0        4.556799    3.097300   -1.007632
     19          6           0        4.752923    4.544671   -1.080479
     20          6           0        5.989531    4.782558   -0.393535
     21          6           0        6.602279    3.461796   -0.148577
     22          6           0        3.647829    5.487158   -1.673179
     23          6           0        6.761672    6.085327   -0.059491
     24          8           0        7.781406    6.085624    0.616064
     25          6           0        6.328439    7.439278   -0.602907
     26          7           0        8.006674    0.782706    0.335599
     27          6           0        8.583754    1.960762    0.496522
     28          6           0       10.060355    1.895481    0.859551
     29          6           0       10.301334    0.407923    0.970072
     30          6           0        8.867758   -0.156627    0.755318
     31          6           0       11.077816    2.647784   -0.123717
     32          6           0       11.113406   -0.163128    2.130105
     33          6           0       10.237613   -0.290823    3.417966
     34          7           0        6.334701   -1.548541    0.059866
     35          6           0        7.455866   -2.231401    0.451131
     36          6           0        7.293368   -3.607577    0.377641
     37          6           0        5.966705   -3.738714   -0.094049
     38          6           0        5.413706   -2.494275   -0.297510
     39          6           0        8.282206   -4.701269    0.631746
     40          6           0        4.957562   -4.678688   -0.467634
     41          8           0        4.896621   -5.936286   -0.491957
     42          6           0        3.727865   -3.821363   -0.936825
     43          6           0        2.472014   -4.366013   -0.423434
     44          8           0        2.391153   -4.670916    0.748287
     45          8           0        1.454450   -4.549387   -1.357849
     46          6           0        0.217880   -5.216598   -0.828701
     47          6           0       -4.147668   -1.739727    0.642791
     48          6           0       -5.352681   -1.241781   -0.189901
     49          6           0       -6.555080   -1.909944   -0.372306
     50          6           0       -6.888669   -3.222143    0.245659
     51          6           0       -7.593329   -1.391350   -1.415309
     52          6           0       -8.859664   -0.594147   -1.010713
     53          6           0       -8.984271   -0.232670    0.529113
     54          6           0       -9.216979    1.236796    0.870542
     55          6           0       -7.982613    2.074207    0.528059
     56          6           0       -9.592656    1.402666    2.384553
     57          6           0      -10.976217    2.041206    2.472744
     58          6           0      -12.116041    1.200762    3.147808
     59          6           0      -13.438298    1.566253    2.469468
     60          6           0      -14.547005    1.244113    3.487778
     61          6           0      -13.612901    0.760901    1.130884
     62          6           0      -14.186137    1.595741   -0.067612
     63          6           0      -13.203254    1.677121   -1.318492
     64          6           0      -13.566939    0.744860   -2.464079
     65          6           0      -13.134240   -0.725783   -2.121054
     66          6           0      -12.848334    1.169525   -3.771716
     67          1           0        2.554008    2.865043   -1.683963
     68          1           0        8.604476    4.021340    0.275461
     69          1           0        9.281222   -2.230065    1.206699
     70          1           0        1.459438   -1.710837   -1.960103
     71          1           0        1.003214    0.944675   -0.747831
     72          1           0        1.872308    1.498402   -3.388239
     73          1           0        0.231492    1.422536   -2.801292
     74          1           0        0.990420    0.011433   -3.628571
     75          1           0        1.439527   -1.477168    0.903495
     76          1           0        0.501950   -2.598374   -0.258128
     77          1           0       -0.683446   -0.622029   -0.966337
     78          1           0       -0.356108    0.045498    0.618947
     79          1           0        3.524766    5.420939   -2.755272
     80          1           0        3.902532    6.489849   -1.329530
     81          1           0        2.698328    5.215312   -1.212272
     82          1           0        5.358295    7.650464   -0.151935
     83          1           0        6.130493    7.199515   -1.647917
     84          1           0        7.170183    8.115403   -0.453267
     85          1           0       10.119019    2.430097    1.807753
     86          1           0       10.736588    0.181848   -0.004261
     87          1           0       11.652661    2.003671   -0.789688
     88          1           0       11.878281    3.062073    0.488100
     89          1           0       10.516642    3.387131   -0.694676
     90          1           0       11.916540    0.566921    2.237055
     91          1           0       11.529401   -1.136319    1.870127
     92          1           0       10.698842    0.252811    4.242938
     93          1           0       10.202671   -1.349433    3.675985
     94          1           0        9.221031    0.089217    3.318450
     95          1           0        9.329696   -4.441929    0.481686
     96          1           0        8.051311   -5.569134    0.013870
     97          1           0        8.176553   -4.950062    1.688076
     98          1           0        3.629290   -3.765096   -2.020526
     99          1           0       -0.205874   -5.722307   -1.696606
    100          1           0       -0.532083   -4.523285   -0.447092
    101          1           0        0.563802   -5.975883   -0.128537
    102          1           0       -4.111076   -1.582766    1.721177
    103          1           0       -4.144235   -2.808997    0.433038
    104          1           0       -5.148124   -0.391400   -0.840706
    105          1           0       -7.778984   -3.088392    0.859764
    106          1           0       -6.174511   -3.707851    0.910818
    107          1           0       -7.156204   -3.900988   -0.565037
    108          1           0       -7.922207   -2.245730   -2.007482
    109          1           0       -7.085015   -0.713535   -2.101754
    110          1           0       -9.660376   -1.319895   -1.148738
    111          1           0       -8.854693    0.286377   -1.652466
    112          1           0       -8.132821   -0.647532    1.069031
    113          1           0       -9.875306   -0.761212    0.867595
    114          1           0      -10.104087    1.469826    0.281378
    115          1           0       -8.194544    2.742440   -0.306075
    116          1           0       -7.135653    1.407088    0.364587
    117          1           0       -7.652188    2.759008    1.308632
    118          1           0       -9.029895    2.100103    3.005510
    119          1           0       -9.438916    0.428252    2.848076
    120          1           0      -11.267511    2.506903    1.531508
    121          1           0      -10.908442    2.918628    3.115530
    122          1           0      -12.167020    1.492500    4.196863
    123          1           0      -11.770392    0.174770    3.017246
    124          1           0      -13.453256    2.621176    2.196173
    125          1           0      -14.216916    0.823344    4.437161
    126          1           0      -15.346012    0.658673    3.032825
    127          1           0      -14.988879    2.202784    3.761301
    128          1           0      -14.135406   -0.155449    1.403966
    129          1           0      -12.631909    0.495307    0.736817
    130          1           0      -14.606839    2.586237    0.106091
    131          1           0      -15.060236    0.987572   -0.303531
    132          1           0      -12.170931    1.397980   -1.106279
    133          1           0      -13.075107    2.722165   -1.599026
    134          1           0      -14.641775    0.826371   -2.630205
    135          1           0      -13.182189   -1.361116   -3.005255
    136          1           0      -13.728419   -1.075736   -1.275540
    137          1           0      -12.097486   -0.617294   -1.803330
    138          1           0      -12.328959    0.470772   -4.426531
    139          1           0      -12.238209    2.031323   -3.499965
    140          1           0      -13.537912    1.508310   -4.545205
 ---------------------------------------------------------------------

 SCF Done:  E(RCAM-B3LYP) =  -3007.14172944     A.U. after   17 cycles

 Excitation energies and oscillator strengths:

 Excited State   1:      Singlet-A      1.7749 eV  698.52 nm  f=0.3615  <S**2>=0.000
     245 -> 248       -0.19571
     246 -> 247        0.68083
     245 <- 248       -0.10683
 This state for optimization and/or second-order correction.
 Total Energy, E(TD-HF/TD-DFT) =  -3007.07650137
 Copying the excited state density for this state as the 1-particle RhoCI density.

 Excited State   2:      Singlet-A      2.1764 eV  569.66 nm  f=0.1143  <S**2>=0.000
     245 -> 247        0.64280
     246 -> 248        0.28045

 Excited State   3:      Singlet-A      3.3472 eV  370.41 nm  f=0.0050  <S**2>=0.000
     242 -> 247        0.11985
     243 -> 247       -0.22638
     244 -> 247        0.61787
     246 -> 248       -0.11937

 Excited State   4:      Singlet-A      3.4185 eV  362.69 nm  f=0.0293  <S**2>=0.000
     242 -> 247        0.27732
     242 -> 249       -0.12116
     243 -> 247        0.44178
     243 -> 248       -0.11728
     243 -> 249       -0.23943
     243 -> 250        0.11419
     243 -> 251       -0.17859
     244 -> 247        0.19701
     246 -> 248        0.11488

 Excited State   5:      Singlet-A      3.4754 eV  356.75 nm  f=0.3780  <S**2>=0.000
     239 -> 247       -0.14035
     240 -> 247        0.17971
     242 -> 247        0.21284
     243 -> 247       -0.21787
     245 -> 247       -0.20247
     246 -> 248        0.54672

 The electronic state is 1-A.
 Alpha  occ. eigenvalues --  -46.88594 -19.26343 -19.24078 -19.20508 -19.19388
 Alpha  occ. eigenvalues --  -19.18206 -19.17427 -14.42789 -14.41717 -14.39545
 Alpha  occ. eigenvalues --  -14.37893 -10.40837 -10.37714 -10.35726 -10.33805
 Alpha  occ. eigenvalues --  -10.32833 -10.31765 -10.31394 -10.30740 -10.30717
 Alpha  occ. eigenvalues --  -10.30616 -10.30608 -10.30098 -10.30020 -10.29072
 Alpha  occ. eigenvalues --  -10.28648 -10.28482 -10.28461 -10.28365 -10.28309
 Alpha  occ. eigenvalues --  -10.27837 -10.27684 -10.27578 -10.27429 -10.27316
 Alpha  occ. eigenvalues --  -10.27277 -10.27069 -10.26870 -10.26769 -10.26735
 Alpha  occ. eigenvalues --  -10.26651 -10.26629 -10.26468 -10.26403 -10.26392
 Alpha  occ. eigenvalues --  -10.26358 -10.26013 -10.25974 -10.25672 -10.25614
 Alpha  occ. eigenvalues --  -10.25499 -10.25445 -10.25417 -10.25364 -10.25292
 Alpha  occ. eigenvalues --  -10.25225 -10.24994 -10.24920 -10.24828 -10.24462
 Alpha  occ. eigenvalues --  -10.24377 -10.24290 -10.24226 -10.24198 -10.24080
 Alpha  occ. eigenvalues --  -10.24027  -3.17153  -1.92055  -1.91618  -1.91442
 Alpha  occ. eigenvalues --   -1.18227  -1.14328  -1.10652  -1.07795  -1.06796
 Alpha  occ. eigenvalues --   -1.05921  -1.05506  -1.04908  -1.03138  -1.02724
 Alpha  occ. eigenvalues --   -0.92994  -0.90572  -0.89825  -0.89564  -0.89415
 Alpha  occ. eigenvalues --   -0.88775  -0.88289  -0.87677  -0.87200  -0.86657
 Alpha  occ. eigenvalues --   -0.86140  -0.85416  -0.84246  -0.83432  -0.83090
 Alpha  occ. eigenvalues --   -0.82184  -0.82089  -0.81469  -0.80798  -0.80103
 Alpha  occ. eigenvalues --   -0.79874  -0.78396  -0.78138  -0.76923  -0.76194
 Alpha  occ. eigenvalues --   -0.75800  -0.75500  -0.75471  -0.74620  -0.74450
 Alpha  occ. eigenvalues --   -0.73956  -0.72907  -0.72039  -0.70817  -0.70395
 Alpha  occ. eigenvalues --   -0.68699  -0.68301  -0.67315  -0.66634  -0.65529
 Alpha  occ. eigenvalues --   -0.65218  -0.64884  -0.64650  -0.63825  -0.63722
 Alpha  occ. eigenvalues --   -0.63377  -0.63346  -0.62960  -0.60807  -0.60260
 Alpha  occ. eigenvalues --   -0.59972  -0.59481  -0.58894  -0.58429  -0.57920
 Alpha  occ. eigenvalues --   -0.57463  -0.57007  -0.56974  -0.56147  -0.55804
 Alpha  occ. eigenvalues --   -0.55730  -0.55250  -0.54753  -0.54525  -0.53790
 Alpha  occ. eigenvalues --   -0.53688  -0.53568  -0.53103  -0.52929  -0.52760
 Alpha  occ. eigenvalues --   -0.52381  -0.52263  -0.52189  -0.51931  -0.51871
 Alpha  occ. eigenvalues --   -0.51726  -0.51320  -0.51146  -0.51003  -0.50799
 Alpha  occ. eigenvalues --   -0.50672  -0.50057  -0.50002  -0.49931  -0.49681
 Alpha  occ. eigenvalues --   -0.49558  -0.49367  -0.49190  -0.48924  -0.48613
 Alpha  occ. eigenvalues --   -0.48398  -0.48082  -0.48033  -0.47700  -0.47605
 Alpha  occ. eigenvalues --   -0.47534  -0.47127  -0.47013  -0.46846  -0.46509
 Alpha  occ. eigenvalues --   -0.46346  -0.46235  -0.46127  -0.45775  -0.45673
 Alpha  occ. eigenvalues --   -0.45359  -0.45229  -0.45014  -0.44926  -0.44652
 Alpha  occ. eigenvalues --   -0.44462  -0.44382  -0.44321  -0.44101  -0.43874
 Alpha  occ. eigenvalues --   -0.43832  -0.43733  -0.43541  -0.43301  -0.43220
 Alpha  occ. eigenvalues --   -0.43002  -0.42707  -0.42511  -0.42421  -0.42003
 Alpha  occ. eigenvalues --   -0.41846  -0.41789  -0.41611  -0.41208  -0.40948
 Alpha  occ. eigenvalues --   -0.40887  -0.40754  -0.40363  -0.40189  -0.40175
 Alpha  occ. eigenvalues --   -0.40007  -0.39596  -0.39297  -0.39239  -0.38623
 Alpha  occ. eigenvalues --   -0.38538  -0.38295  -0.37757  -0.37742  -0.37586
 Alpha  occ. eigenvalues --   -0.37314  -0.37177  -0.36843  -0.36717  -0.36551
 Alpha  occ. eigenvalues --   -0.35757  -0.35654  -0.34776  -0.34606  -0.34525
 Alpha  occ. eigenvalues --   -0.33741  -0.33370  -0.32568  -0.31567  -0.30856
 Alpha  occ. eigenvalues --   -0.30201  -0.30174  -0.29706  -0.28816  -0.23602
 Alpha  occ. eigenvalues --   -0.21250
 Alpha virt. eigenvalues --   -0.08397  -0.01836   0.00179   0.02394   0.02756
 Alpha virt. eigenvalues --    0.03712   0.04481   0.05332   0.06072   0.06680
 Alpha virt. eigenvalues --    0.07631   0.07938   0.08617   0.08908   0.09121

 Mulliken charges:
               1
     1  Mg   0.827684
     2  C    0.006926
     3  C   -0.055476
     4  C   -0.069097
     5  C   -0.093560
     6  N   -0.239953
     7  C   -0.045876
     8  C   -0.048986
     9  C   -0.077613
    10  C    0.005360
    11  C    0.077259
    12  C    0.060620
    13  C   -0.000835
    14  C    0.206493
    15  O   -0.255455
    16  O   -0.297556
    17  N   -0.388736
    18  C    0.127485
    19  C   -0.144866
    20  C   -0.041086
    21  C    0.131629
    22  C    0.117128
    23  C   -0.014997
    24  O   -0.204434
    25  C    0.061095
    26  N   -0.252035
    27  C    0.009982
    28  C   -0.041838
    29  C    0.014186
    30  C    0.007807
    31  C    0.061780
    32  C    0.066399
    33  C   -0.006027
    34  N   -0.358137
    35  C    0.097790
    36  C   -0.158306
    37  C    0.028838
    38  C    0.075036
    39  C    0.132560
    40  C    0.066154
    41  O   -0.207634
    42  C    0.018617
    43  C    0.169781
    44  O   -0.204602
    45  O   -0.369517
    46  C    0.167120
    47  C    0.255630
    48  C   -0.092483
    49  C   -0.186991
    50  C    0.086845
    51  C    0.062164
    52  C    0.022680
    53  C   -0.006280
    54  C   -0.135697
    55  C    0.068981
    56  C    0.074964
    57  C   -0.042919
    58  C    0.071936
    59  C   -0.141324
    60  C    0.066478
    61  C    0.038270
    62  C    0.022538
    63  C    0.000671
    64  C   -0.128990
    65  C    0.038999
    66  C    0.036203
    67  H   -0.022231
    68  H   -0.008272
    69  H   -0.040488
    70  H    0.004217
    71  H    0.023163
    72  H    0.018272
    73  H    0.014111
    74  H    0.026825
    75  H    0.018714
    76  H    0.022995
    77  H    0.025377
    78  H    0.046737
    79  H    0.043302
    80  H   -0.002665
    81  H    0.031041
    82  H    0.049260
    83  H    0.027358
    84  H    0.044869
    85  H    0.013888
    86  H    0.010262
    87  H    0.011269
    88  H    0.015932
    89  H    0.031658
    90  H    0.006991
    91  H    0.015240
    92  H    0.014285
    93  H    0.019333
    94  H    0.030396
    95  H    0.012233
    96  H    0.039946
    97  H    0.029394
    98  H    0.034718
    99  H    0.026653
   100  H    0.052484
   101  H    0.058725
   102  H    0.034509
   103  H    0.035589
   104  H    0.008669
   105  H    0.015910
   106  H    0.020386
   107  H    0.023116
   108  H   -0.000540
   109  H   -0.004505
   110  H    0.016019
   111  H    0.014363
   112  H    0.015466
   113  H   -0.009437
   114  H    0.007140
   115  H    0.002928
   116  H    0.006513
   117  H   -0.000267
   118  H   -0.006731
   119  H   -0.006962
   120  H   -0.000002
   121  H   -0.018107
   122  H   -0.003663
   123  H   -0.001308
   124  H   -0.002718
   125  H    0.012427
   126  H    0.000733
   127  H   -0.002614
   128  H    0.002304
   129  H   -0.008287
   130  H    0.006463
   131  H   -0.001211
   132  H   -0.004569
   133  H   -0.002623
   134  H   -0.000873
   135  H    0.017992
   136  H    0.012376
   137  H    0.002326
   138  H    0.003445
   139  H    0.000979
   140  H   -0.004009
 Sum of Mulliken charges =  -0.00000

 Dipole moment (field-independent basis, Debye):
    X=             -3.5226    Y=              6.5539    Z=             -2.5301  Tot=              7.8590
 Quadrupole moment (field-independent basis, Debye-Ang):
   XX=           -358.0297   YY=           -437.0203   ZZ=           -404.1737
   XY=             18.7834   XZ=              7.0119   YZ=             -1.2801

 Normal termination of Gaussian 16 at Wed May  4 04:44:18 2022.
