 Gaussian 16, Revision A.03,
 Gaussian 16:  ES64L-G16RevA.03 25-Dec-2016

 ---------------------------------
 #p PBE1PBE/Def2SVP td=(nstates=5)
 ---------------------------------

 -----------------------------------------------------
 step_1401_chromophore_1 TDDFT with PBE1PBE functional
 -----------------------------------------------------
 Symbolic Z-matrix:
 Charge =  0 Multiplicity = 1

                         Standard orientation:
 ---------------------------------------------------------------------
 Center     Atomic      Atomic             Coordinates (Angstroms)
 Number     Number       Type             X           Y           Z
 ---------------------------------------------------------------------
      1         12           0        5.920430    0.497089    0.038431
      2          6           0        4.081385   -2.393887   -0.644180
      3          6           0        3.470357    2.312711   -1.468650
      4          6           0        7.920927    3.171624    0.247449
      5          6           0        8.579945   -1.526475    0.752327
      6          7           0        3.935019   -0.005742   -0.756695
      7          6           0        3.298741   -1.201709   -0.792255
      8          6           0        1.771663   -1.077150   -1.130001
      9          6           0        1.635651    0.475285   -1.501853
     10          6           0        3.136132    0.922107   -1.262586
     11          6           0        1.139807    0.834595   -2.930103
     12          6           0        0.833260   -1.593773    0.004032
     13          6           0       -0.548385   -0.883667    0.083418
     14          6           0       -1.782442   -1.740145    0.584574
     15          8           0       -1.728164   -2.798725    1.245370
     16          8           0       -2.920570   -1.138565    0.212566
     17          7           0        5.655657    2.523091   -0.371370
     18          6           0        4.556799    3.097300   -1.007632
     19          6           0        4.752923    4.544671   -1.080479
     20          6           0        5.989531    4.782558   -0.393535
     21          6           0        6.602279    3.461796   -0.148577
     22          6           0        3.647829    5.487158   -1.673179
     23          6           0        6.761672    6.085327   -0.059491
     24          8           0        7.781406    6.085624    0.616064
     25          6           0        6.328439    7.439278   -0.602907
     26          7           0        8.006674    0.782706    0.335599
     27          6           0        8.583754    1.960762    0.496522
     28          6           0       10.060355    1.895481    0.859551
     29          6           0       10.301334    0.407923    0.970072
     30          6           0        8.867758   -0.156627    0.755318
     31          6           0       11.077816    2.647784   -0.123717
     32          6           0       11.113406   -0.163128    2.130105
     33          6           0       10.237613   -0.290823    3.417966
     34          7           0        6.334701   -1.548541    0.059866
     35          6           0        7.455866   -2.231401    0.451131
     36          6           0        7.293368   -3.607577    0.377641
     37          6           0        5.966705   -3.738714   -0.094049
     38          6           0        5.413706   -2.494275   -0.297510
     39          6           0        8.282206   -4.701269    0.631746
     40          6           0        4.957562   -4.678688   -0.467634
     41          8           0        4.896621   -5.936286   -0.491957
     42          6           0        3.727865   -3.821363   -0.936825
     43          6           0        2.472014   -4.366013   -0.423434
     44          8           0        2.391153   -4.670916    0.748287
     45          8           0        1.454450   -4.549387   -1.357849
     46          6           0        0.217880   -5.216598   -0.828701
     47          6           0       -4.147668   -1.739727    0.642791
     48          6           0       -5.352681   -1.241781   -0.189901
     49          6           0       -6.555080   -1.909944   -0.372306
     50          6           0       -6.888669   -3.222143    0.245659
     51          6           0       -7.593329   -1.391350   -1.415309
     52          6           0       -8.859664   -0.594147   -1.010713
     53          6           0       -8.984271   -0.232670    0.529113
     54          6           0       -9.216979    1.236796    0.870542
     55          6           0       -7.982613    2.074207    0.528059
     56          6           0       -9.592656    1.402666    2.384553
     57          6           0      -10.976217    2.041206    2.472744
     58          6           0      -12.116041    1.200762    3.147808
     59          6           0      -13.438298    1.566253    2.469468
     60          6           0      -14.547005    1.244113    3.487778
     61          6           0      -13.612901    0.760901    1.130884
     62          6           0      -14.186137    1.595741   -0.067612
     63          6           0      -13.203254    1.677121   -1.318492
     64          6           0      -13.566939    0.744860   -2.464079
     65          6           0      -13.134240   -0.725783   -2.121054
     66          6           0      -12.848334    1.169525   -3.771716
     67          1           0        2.554008    2.865043   -1.683963
     68          1           0        8.604476    4.021340    0.275461
     69          1           0        9.281222   -2.230065    1.206699
     70          1           0        1.459438   -1.710837   -1.960103
     71          1           0        1.003214    0.944675   -0.747831
     72          1           0        1.872308    1.498402   -3.388239
     73          1           0        0.231492    1.422536   -2.801292
     74          1           0        0.990420    0.011433   -3.628571
     75          1           0        1.439527   -1.477168    0.903495
     76          1           0        0.501950   -2.598374   -0.258128
     77          1           0       -0.683446   -0.622029   -0.966337
     78          1           0       -0.356108    0.045498    0.618947
     79          1           0        3.524766    5.420939   -2.755272
     80          1           0        3.902532    6.489849   -1.329530
     81          1           0        2.698328    5.215312   -1.212272
     82          1           0        5.358295    7.650464   -0.151935
     83          1           0        6.130493    7.199515   -1.647917
     84          1           0        7.170183    8.115403   -0.453267
     85          1           0       10.119019    2.430097    1.807753
     86          1           0       10.736588    0.181848   -0.004261
     87          1           0       11.652661    2.003671   -0.789688
     88          1           0       11.878281    3.062073    0.488100
     89          1           0       10.516642    3.387131   -0.694676
     90          1           0       11.916540    0.566921    2.237055
     91          1           0       11.529401   -1.136319    1.870127
     92          1           0       10.698842    0.252811    4.242938
     93          1           0       10.202671   -1.349433    3.675985
     94          1           0        9.221031    0.089217    3.318450
     95          1           0        9.329696   -4.441929    0.481686
     96          1           0        8.051311   -5.569134    0.013870
     97          1           0        8.176553   -4.950062    1.688076
     98          1           0        3.629290   -3.765096   -2.020526
     99          1           0       -0.205874   -5.722307   -1.696606
    100          1           0       -0.532083   -4.523285   -0.447092
    101          1           0        0.563802   -5.975883   -0.128537
    102          1           0       -4.111076   -1.582766    1.721177
    103          1           0       -4.144235   -2.808997    0.433038
    104          1           0       -5.148124   -0.391400   -0.840706
    105          1           0       -7.778984   -3.088392    0.859764
    106          1           0       -6.174511   -3.707851    0.910818
    107          1           0       -7.156204   -3.900988   -0.565037
    108          1           0       -7.922207   -2.245730   -2.007482
    109          1           0       -7.085015   -0.713535   -2.101754
    110          1           0       -9.660376   -1.319895   -1.148738
    111          1           0       -8.854693    0.286377   -1.652466
    112          1           0       -8.132821   -0.647532    1.069031
    113          1           0       -9.875306   -0.761212    0.867595
    114          1           0      -10.104087    1.469826    0.281378
    115          1           0       -8.194544    2.742440   -0.306075
    116          1           0       -7.135653    1.407088    0.364587
    117          1           0       -7.652188    2.759008    1.308632
    118          1           0       -9.029895    2.100103    3.005510
    119          1           0       -9.438916    0.428252    2.848076
    120          1           0      -11.267511    2.506903    1.531508
    121          1           0      -10.908442    2.918628    3.115530
    122          1           0      -12.167020    1.492500    4.196863
    123          1           0      -11.770392    0.174770    3.017246
    124          1           0      -13.453256    2.621176    2.196173
    125          1           0      -14.216916    0.823344    4.437161
    126          1           0      -15.346012    0.658673    3.032825
    127          1           0      -14.988879    2.202784    3.761301
    128          1           0      -14.135406   -0.155449    1.403966
    129          1           0      -12.631909    0.495307    0.736817
    130          1           0      -14.606839    2.586237    0.106091
    131          1           0      -15.060236    0.987572   -0.303531
    132          1           0      -12.170931    1.397980   -1.106279
    133          1           0      -13.075107    2.722165   -1.599026
    134          1           0      -14.641775    0.826371   -2.630205
    135          1           0      -13.182189   -1.361116   -3.005255
    136          1           0      -13.728419   -1.075736   -1.275540
    137          1           0      -12.097486   -0.617294   -1.803330
    138          1           0      -12.328959    0.470772   -4.426531
    139          1           0      -12.238209    2.031323   -3.499965
    140          1           0      -13.537912    1.508310   -4.545205
 ---------------------------------------------------------------------

 SCF Done:  E(RPBE1PBE) =  -3005.33042175     A.U. after   16 cycles

 Excitation energies and oscillator strengths:

 Excited State   1:      Singlet-A      1.8974 eV  653.45 nm  f=0.3462  <S**2>=0.000
     245 -> 248        0.19198
     246 -> 247        0.68638
 This state for optimization and/or second-order correction.
 Total Energy, E(TD-HF/TD-DFT) =  -3005.26069426
 Copying the excited state density for this state as the 1-particle RhoCI density.

 Excited State   2:      Singlet-A      2.1584 eV  574.43 nm  f=0.1180  <S**2>=0.000
     245 -> 247        0.65725
     246 -> 248       -0.24567

 Excited State   3:      Singlet-A      2.8787 eV  430.69 nm  f=0.0013  <S**2>=0.000
     243 -> 247        0.63807
     243 -> 249        0.15358
     243 -> 250       -0.10996
     244 -> 247       -0.18445

 Excited State   4:      Singlet-A      2.9841 eV  415.49 nm  f=0.0015  <S**2>=0.000
     241 -> 247       -0.12212
     243 -> 247        0.17814
     244 -> 247        0.66043

 Excited State   5:      Singlet-A      3.0858 eV  401.79 nm  f=0.0018  <S**2>=0.000
     239 -> 247        0.10069
     240 -> 247        0.42417
     241 -> 247        0.50575
     241 -> 249       -0.14226

 The electronic state is 1-A.
 Alpha  occ. eigenvalues --  -46.92015 -19.27067 -19.24816 -19.20861 -19.19410
 Alpha  occ. eigenvalues --  -19.18519 -19.17913 -14.42232 -14.41236 -14.39125
 Alpha  occ. eigenvalues --  -14.37703 -10.37932 -10.34819 -10.32687 -10.31139
 Alpha  occ. eigenvalues --  -10.30264 -10.29342 -10.29338 -10.28159 -10.28153
 Alpha  occ. eigenvalues --  -10.28047 -10.28045 -10.28027 -10.27398 -10.26849
 Alpha  occ. eigenvalues --  -10.26359 -10.26352 -10.25910 -10.25889 -10.25655
 Alpha  occ. eigenvalues --  -10.25520 -10.25506 -10.25466 -10.25318 -10.24949
 Alpha  occ. eigenvalues --  -10.24888 -10.24887 -10.24752 -10.24580 -10.24401
 Alpha  occ. eigenvalues --  -10.24069 -10.24053 -10.23967 -10.23866 -10.23851
 Alpha  occ. eigenvalues --  -10.23770 -10.23680 -10.23541 -10.23312 -10.23241
 Alpha  occ. eigenvalues --  -10.23143 -10.23104 -10.23078 -10.22986 -10.22907
 Alpha  occ. eigenvalues --  -10.22814 -10.22569 -10.22494 -10.22216 -10.22180
 Alpha  occ. eigenvalues --  -10.22020 -10.21866 -10.21783 -10.21638 -10.21555
 Alpha  occ. eigenvalues --  -10.21421  -3.14152  -1.86995  -1.86536  -1.86365
 Alpha  occ. eigenvalues --   -1.13123  -1.09153  -1.05193  -1.02688  -1.01687
 Alpha  occ. eigenvalues --   -1.00848  -1.00177  -0.99536  -0.97977  -0.97272
 Alpha  occ. eigenvalues --   -0.87516  -0.84675  -0.83954  -0.83741  -0.83711
 Alpha  occ. eigenvalues --   -0.82885  -0.82552  -0.81795  -0.81530  -0.80938
 Alpha  occ. eigenvalues --   -0.80449  -0.79664  -0.78453  -0.77773  -0.77335
 Alpha  occ. eigenvalues --   -0.76413  -0.76145  -0.75652  -0.75129  -0.74271
 Alpha  occ. eigenvalues --   -0.74220  -0.72615  -0.72370  -0.71248  -0.70394
 Alpha  occ. eigenvalues --   -0.70138  -0.69823  -0.69571  -0.68767  -0.68648
 Alpha  occ. eigenvalues --   -0.68215  -0.67405  -0.66459  -0.65106  -0.64804
 Alpha  occ. eigenvalues --   -0.63139  -0.62684  -0.61608  -0.60973  -0.59933
 Alpha  occ. eigenvalues --   -0.59710  -0.59428  -0.58875  -0.58389  -0.57931
 Alpha  occ. eigenvalues --   -0.57857  -0.57501  -0.57129  -0.55464  -0.54723
 Alpha  occ. eigenvalues --   -0.54399  -0.53987  -0.53510  -0.53060  -0.52339
 Alpha  occ. eigenvalues --   -0.52013  -0.51543  -0.51487  -0.50714  -0.50330
 Alpha  occ. eigenvalues --   -0.50275  -0.49780  -0.49356  -0.49077  -0.48421
 Alpha  occ. eigenvalues --   -0.48205  -0.48049  -0.47522  -0.47334  -0.47204
 Alpha  occ. eigenvalues --   -0.46970  -0.46757  -0.46538  -0.46458  -0.46431
 Alpha  occ. eigenvalues --   -0.46249  -0.46008  -0.45679  -0.45530  -0.45435
 Alpha  occ. eigenvalues --   -0.45014  -0.44701  -0.44588  -0.44513  -0.44302
 Alpha  occ. eigenvalues --   -0.44001  -0.43898  -0.43629  -0.43489  -0.43263
 Alpha  occ. eigenvalues --   -0.43028  -0.42799  -0.42702  -0.42314  -0.42242
 Alpha  occ. eigenvalues --   -0.42132  -0.41872  -0.41616  -0.41551  -0.41204
 Alpha  occ. eigenvalues --   -0.41073  -0.40879  -0.40850  -0.40532  -0.40287
 Alpha  occ. eigenvalues --   -0.40102  -0.39998  -0.39724  -0.39509  -0.39462
 Alpha  occ. eigenvalues --   -0.39262  -0.39129  -0.38965  -0.38925  -0.38627
 Alpha  occ. eigenvalues --   -0.38590  -0.38510  -0.38395  -0.38204  -0.38058
 Alpha  occ. eigenvalues --   -0.37884  -0.37453  -0.37359  -0.37187  -0.36799
 Alpha  occ. eigenvalues --   -0.36695  -0.36493  -0.36302  -0.36062  -0.35795
 Alpha  occ. eigenvalues --   -0.35752  -0.35546  -0.35314  -0.35146  -0.34936
 Alpha  occ. eigenvalues --   -0.34916  -0.34566  -0.34193  -0.34077  -0.33547
 Alpha  occ. eigenvalues --   -0.33423  -0.33040  -0.32732  -0.32635  -0.32474
 Alpha  occ. eigenvalues --   -0.32123  -0.32008  -0.31940  -0.31669  -0.31529
 Alpha  occ. eigenvalues --   -0.30680  -0.30662  -0.29911  -0.29515  -0.29468
 Alpha  occ. eigenvalues --   -0.29172  -0.28314  -0.27666  -0.26776  -0.25729
 Alpha  occ. eigenvalues --   -0.25631  -0.25564  -0.24784  -0.24655  -0.20521
 Alpha  occ. eigenvalues --   -0.18842
 Alpha virt. eigenvalues --   -0.10942  -0.05305  -0.03988  -0.01742  -0.00841
 Alpha virt. eigenvalues --   -0.00347  -0.00066   0.01076   0.01345   0.03189
 Alpha virt. eigenvalues --    0.03978   0.04306   0.04859   0.05022   0.05620

 Mulliken charges:
               1
     1  Mg   0.976036
     2  C   -0.003714
     3  C   -0.048531
     4  C   -0.060847
     5  C   -0.077338
     6  N   -0.346280
     7  C    0.023563
     8  C   -0.102629
     9  C   -0.159002
    10  C    0.045962
    11  C    0.019885
    12  C    0.001482
    13  C   -0.078043
    14  C    0.267539
    15  O   -0.286937
    16  O   -0.330142
    17  N   -0.499872
    18  C    0.143579
    19  C   -0.168795
    20  C   -0.090066
    21  C    0.161895
    22  C    0.054629
    23  C    0.035947
    24  O   -0.241540
    25  C   -0.015247
    26  N   -0.359116
    27  C    0.045062
    28  C   -0.110346
    29  C   -0.060634
    30  C    0.041993
    31  C    0.004019
    32  C   -0.002623
    33  C   -0.078422
    34  N   -0.484130
    35  C    0.121120
    36  C   -0.174156
    37  C   -0.025684
    38  C    0.125946
    39  C    0.079761
    40  C    0.161833
    41  O   -0.251439
    42  C   -0.097559
    43  C    0.264919
    44  O   -0.238528
    45  O   -0.402332
    46  C    0.109539
    47  C    0.220311
    48  C   -0.101548
    49  C   -0.246139
    50  C    0.027327
    51  C    0.012843
    52  C   -0.045486
    53  C   -0.061048
    54  C   -0.238028
    55  C    0.011867
    56  C    0.030321
    57  C   -0.105471
    58  C    0.013746
    59  C   -0.228193
    60  C    0.007995
    61  C   -0.018751
    62  C   -0.032580
    63  C   -0.065985
    64  C   -0.223394
    65  C   -0.028569
    66  C   -0.019901
    67  H    0.008712
    68  H    0.023820
    69  H   -0.007170
    70  H    0.041678
    71  H    0.061072
    72  H    0.046107
    73  H    0.040899
    74  H    0.052881
    75  H    0.052131
    76  H    0.065239
    77  H    0.061251
    78  H    0.078464
    79  H    0.068950
    80  H    0.027500
    81  H    0.057036
    82  H    0.075008
    83  H    0.055693
    84  H    0.070662
    85  H    0.051697
    86  H    0.050973
    87  H    0.037351
    88  H    0.042892
    89  H    0.058980
    90  H    0.041635
    91  H    0.046341
    92  H    0.043066
    93  H    0.046417
    94  H    0.059808
    95  H    0.039264
    96  H    0.067712
    97  H    0.059178
    98  H    0.073715
    99  H    0.049375
   100  H    0.075460
   101  H    0.079448
   102  H    0.061108
   103  H    0.061670
   104  H    0.037461
   105  H    0.044390
   106  H    0.045922
   107  H    0.050506
   108  H    0.031516
   109  H    0.027448
   110  H    0.048845
   111  H    0.044793
   112  H    0.049534
   113  H    0.025048
   114  H    0.054657
   115  H    0.029621
   116  H    0.036259
   117  H    0.027100
   118  H    0.025062
   119  H    0.023928
   120  H    0.031926
   121  H    0.016447
   122  H    0.029700
   123  H    0.031473
   124  H    0.034201
   125  H    0.038747
   126  H    0.028029
   127  H    0.025908
   128  H    0.032466
   129  H    0.030162
   130  H    0.036830
   131  H    0.031656
   132  H    0.034589
   133  H    0.029804
   134  H    0.036672
   135  H    0.046119
   136  H    0.041682
   137  H    0.034059
   138  H    0.029462
   139  H    0.027947
   140  H    0.023932
 Sum of Mulliken charges =  -0.00000

 Dipole moment (field-independent basis, Debye):
    X=             -3.3974    Y=              5.9548    Z=             -2.4206  Tot=              7.2705
 Quadrupole moment (field-independent basis, Debye-Ang):
   XX=           -350.9037   YY=           -435.0159   ZZ=           -401.5326
   XY=             15.2259   XZ=              8.4733   YZ=             -1.3427

 Normal termination of Gaussian 16 at Wed May  4 05:00:32 2022.
