 Gaussian 16, Revision A.03,
 Gaussian 16:  ES64L-G16RevA.03 25-Dec-2016

 --------------------------------
 #p wB97XD/Def2SVP td=(nstates=5)
 --------------------------------

 ----------------------------------------------------
 step_1401_chromophore_1 TDDFT with wB97XD functional
 ----------------------------------------------------
 Symbolic Z-matrix:
 Charge =  0 Multiplicity = 1

                         Standard orientation:
 ---------------------------------------------------------------------
 Center     Atomic      Atomic             Coordinates (Angstroms)
 Number     Number       Type             X           Y           Z
 ---------------------------------------------------------------------
      1         12           0        5.920430    0.497089    0.038431
      2          6           0        4.081385   -2.393887   -0.644180
      3          6           0        3.470357    2.312711   -1.468650
      4          6           0        7.920927    3.171624    0.247449
      5          6           0        8.579945   -1.526475    0.752327
      6          7           0        3.935019   -0.005742   -0.756695
      7          6           0        3.298741   -1.201709   -0.792255
      8          6           0        1.771663   -1.077150   -1.130001
      9          6           0        1.635651    0.475285   -1.501853
     10          6           0        3.136132    0.922107   -1.262586
     11          6           0        1.139807    0.834595   -2.930103
     12          6           0        0.833260   -1.593773    0.004032
     13          6           0       -0.548385   -0.883667    0.083418
     14          6           0       -1.782442   -1.740145    0.584574
     15          8           0       -1.728164   -2.798725    1.245370
     16          8           0       -2.920570   -1.138565    0.212566
     17          7           0        5.655657    2.523091   -0.371370
     18          6           0        4.556799    3.097300   -1.007632
     19          6           0        4.752923    4.544671   -1.080479
     20          6           0        5.989531    4.782558   -0.393535
     21          6           0        6.602279    3.461796   -0.148577
     22          6           0        3.647829    5.487158   -1.673179
     23          6           0        6.761672    6.085327   -0.059491
     24          8           0        7.781406    6.085624    0.616064
     25          6           0        6.328439    7.439278   -0.602907
     26          7           0        8.006674    0.782706    0.335599
     27          6           0        8.583754    1.960762    0.496522
     28          6           0       10.060355    1.895481    0.859551
     29          6           0       10.301334    0.407923    0.970072
     30          6           0        8.867758   -0.156627    0.755318
     31          6           0       11.077816    2.647784   -0.123717
     32          6           0       11.113406   -0.163128    2.130105
     33          6           0       10.237613   -0.290823    3.417966
     34          7           0        6.334701   -1.548541    0.059866
     35          6           0        7.455866   -2.231401    0.451131
     36          6           0        7.293368   -3.607577    0.377641
     37          6           0        5.966705   -3.738714   -0.094049
     38          6           0        5.413706   -2.494275   -0.297510
     39          6           0        8.282206   -4.701269    0.631746
     40          6           0        4.957562   -4.678688   -0.467634
     41          8           0        4.896621   -5.936286   -0.491957
     42          6           0        3.727865   -3.821363   -0.936825
     43          6           0        2.472014   -4.366013   -0.423434
     44          8           0        2.391153   -4.670916    0.748287
     45          8           0        1.454450   -4.549387   -1.357849
     46          6           0        0.217880   -5.216598   -0.828701
     47          6           0       -4.147668   -1.739727    0.642791
     48          6           0       -5.352681   -1.241781   -0.189901
     49          6           0       -6.555080   -1.909944   -0.372306
     50          6           0       -6.888669   -3.222143    0.245659
     51          6           0       -7.593329   -1.391350   -1.415309
     52          6           0       -8.859664   -0.594147   -1.010713
     53          6           0       -8.984271   -0.232670    0.529113
     54          6           0       -9.216979    1.236796    0.870542
     55          6           0       -7.982613    2.074207    0.528059
     56          6           0       -9.592656    1.402666    2.384553
     57          6           0      -10.976217    2.041206    2.472744
     58          6           0      -12.116041    1.200762    3.147808
     59          6           0      -13.438298    1.566253    2.469468
     60          6           0      -14.547005    1.244113    3.487778
     61          6           0      -13.612901    0.760901    1.130884
     62          6           0      -14.186137    1.595741   -0.067612
     63          6           0      -13.203254    1.677121   -1.318492
     64          6           0      -13.566939    0.744860   -2.464079
     65          6           0      -13.134240   -0.725783   -2.121054
     66          6           0      -12.848334    1.169525   -3.771716
     67          1           0        2.554008    2.865043   -1.683963
     68          1           0        8.604476    4.021340    0.275461
     69          1           0        9.281222   -2.230065    1.206699
     70          1           0        1.459438   -1.710837   -1.960103
     71          1           0        1.003214    0.944675   -0.747831
     72          1           0        1.872308    1.498402   -3.388239
     73          1           0        0.231492    1.422536   -2.801292
     74          1           0        0.990420    0.011433   -3.628571
     75          1           0        1.439527   -1.477168    0.903495
     76          1           0        0.501950   -2.598374   -0.258128
     77          1           0       -0.683446   -0.622029   -0.966337
     78          1           0       -0.356108    0.045498    0.618947
     79          1           0        3.524766    5.420939   -2.755272
     80          1           0        3.902532    6.489849   -1.329530
     81          1           0        2.698328    5.215312   -1.212272
     82          1           0        5.358295    7.650464   -0.151935
     83          1           0        6.130493    7.199515   -1.647917
     84          1           0        7.170183    8.115403   -0.453267
     85          1           0       10.119019    2.430097    1.807753
     86          1           0       10.736588    0.181848   -0.004261
     87          1           0       11.652661    2.003671   -0.789688
     88          1           0       11.878281    3.062073    0.488100
     89          1           0       10.516642    3.387131   -0.694676
     90          1           0       11.916540    0.566921    2.237055
     91          1           0       11.529401   -1.136319    1.870127
     92          1           0       10.698842    0.252811    4.242938
     93          1           0       10.202671   -1.349433    3.675985
     94          1           0        9.221031    0.089217    3.318450
     95          1           0        9.329696   -4.441929    0.481686
     96          1           0        8.051311   -5.569134    0.013870
     97          1           0        8.176553   -4.950062    1.688076
     98          1           0        3.629290   -3.765096   -2.020526
     99          1           0       -0.205874   -5.722307   -1.696606
    100          1           0       -0.532083   -4.523285   -0.447092
    101          1           0        0.563802   -5.975883   -0.128537
    102          1           0       -4.111076   -1.582766    1.721177
    103          1           0       -4.144235   -2.808997    0.433038
    104          1           0       -5.148124   -0.391400   -0.840706
    105          1           0       -7.778984   -3.088392    0.859764
    106          1           0       -6.174511   -3.707851    0.910818
    107          1           0       -7.156204   -3.900988   -0.565037
    108          1           0       -7.922207   -2.245730   -2.007482
    109          1           0       -7.085015   -0.713535   -2.101754
    110          1           0       -9.660376   -1.319895   -1.148738
    111          1           0       -8.854693    0.286377   -1.652466
    112          1           0       -8.132821   -0.647532    1.069031
    113          1           0       -9.875306   -0.761212    0.867595
    114          1           0      -10.104087    1.469826    0.281378
    115          1           0       -8.194544    2.742440   -0.306075
    116          1           0       -7.135653    1.407088    0.364587
    117          1           0       -7.652188    2.759008    1.308632
    118          1           0       -9.029895    2.100103    3.005510
    119          1           0       -9.438916    0.428252    2.848076
    120          1           0      -11.267511    2.506903    1.531508
    121          1           0      -10.908442    2.918628    3.115530
    122          1           0      -12.167020    1.492500    4.196863
    123          1           0      -11.770392    0.174770    3.017246
    124          1           0      -13.453256    2.621176    2.196173
    125          1           0      -14.216916    0.823344    4.437161
    126          1           0      -15.346012    0.658673    3.032825
    127          1           0      -14.988879    2.202784    3.761301
    128          1           0      -14.135406   -0.155449    1.403966
    129          1           0      -12.631909    0.495307    0.736817
    130          1           0      -14.606839    2.586237    0.106091
    131          1           0      -15.060236    0.987572   -0.303531
    132          1           0      -12.170931    1.397980   -1.106279
    133          1           0      -13.075107    2.722165   -1.599026
    134          1           0      -14.641775    0.826371   -2.630205
    135          1           0      -13.182189   -1.361116   -3.005255
    136          1           0      -13.728419   -1.075736   -1.275540
    137          1           0      -12.097486   -0.617294   -1.803330
    138          1           0      -12.328959    0.470772   -4.426531
    139          1           0      -12.238209    2.031323   -3.499965
    140          1           0      -13.537912    1.508310   -4.545205
 ---------------------------------------------------------------------

 SCF Done:  E(RwB97XD) =  -3007.84400415     A.U. after   19 cycles

 Excitation energies and oscillator strengths:

 Excited State   1:      Singlet-A      1.7319 eV  715.89 nm  f=0.3606  <S**2>=0.000
     245 -> 248        0.19960
     246 -> 247        0.67897
     245 <- 248        0.11500
 This state for optimization and/or second-order correction.
 Total Energy, E(TD-HF/TD-DFT) =  -3007.78035846
 Copying the excited state density for this state as the 1-particle RhoCI density.

 Excited State   2:      Singlet-A      2.1217 eV  584.37 nm  f=0.1111  <S**2>=0.000
     245 -> 247        0.64053
     246 -> 248       -0.28226

 Excited State   3:      Singlet-A      3.3755 eV  367.31 nm  f=0.0026  <S**2>=0.000
     240 -> 247        0.11247
     241 -> 247       -0.22392
     243 -> 247       -0.18326
     244 -> 247        0.59732

 Excited State   4:      Singlet-A      3.4618 eV  358.15 nm  f=0.1291  <S**2>=0.000
     241 -> 247       -0.24880
     243 -> 247        0.39863
     243 -> 248       -0.12301
     243 -> 249       -0.25831
     243 -> 250        0.22390
     244 -> 247        0.10687
     245 -> 247       -0.11826
     246 -> 248       -0.29052

 Excited State   5:      Singlet-A      3.4819 eV  356.08 nm  f=0.2588  <S**2>=0.000
     239 -> 247        0.14042
     240 -> 247       -0.17983
     241 -> 247        0.16572
     243 -> 247        0.30093
     243 -> 249       -0.12441
     243 -> 250        0.11705
     244 -> 247        0.16382
     245 -> 247        0.16347
     246 -> 248        0.47456

 The electronic state is 1-A.
 Alpha  occ. eigenvalues --  -46.94955 -19.31602 -19.29289 -19.25478 -19.24463
 Alpha  occ. eigenvalues --  -19.23120 -19.22462 -14.47380 -14.46283 -14.44178
 Alpha  occ. eigenvalues --  -14.42479 -10.44678 -10.41542 -10.39747 -10.37801
 Alpha  occ. eigenvalues --  -10.36730 -10.35847 -10.35408 -10.34887 -10.34724
 Alpha  occ. eigenvalues --  -10.34664 -10.34476 -10.34275 -10.34068 -10.33162
 Alpha  occ. eigenvalues --  -10.32675 -10.32648 -10.32557 -10.32307 -10.32302
 Alpha  occ. eigenvalues --  -10.31946 -10.31721 -10.31487 -10.31431 -10.31366
 Alpha  occ. eigenvalues --  -10.31250 -10.31081 -10.30862 -10.30803 -10.30648
 Alpha  occ. eigenvalues --  -10.30557 -10.30526 -10.30380 -10.30338 -10.30304
 Alpha  occ. eigenvalues --  -10.30251 -10.29963 -10.29910 -10.29746 -10.29446
 Alpha  occ. eigenvalues --  -10.29442 -10.29433 -10.29339 -10.29275 -10.29227
 Alpha  occ. eigenvalues --  -10.29161 -10.28945 -10.28868 -10.28663 -10.28392
 Alpha  occ. eigenvalues --  -10.28224 -10.28205 -10.28198 -10.28011 -10.28001
 Alpha  occ. eigenvalues --  -10.27854  -3.20946  -1.94538  -1.94078  -1.93907
 Alpha  occ. eigenvalues --   -1.20457  -1.16460  -1.12913  -1.09998  -1.08968
 Alpha  occ. eigenvalues --   -1.08107  -1.07512  -1.06926  -1.05182  -1.04808
 Alpha  occ. eigenvalues --   -0.94962  -0.92358  -0.91615  -0.91379  -0.91256
 Alpha  occ. eigenvalues --   -0.90553  -0.90255  -0.89462  -0.89126  -0.88635
 Alpha  occ. eigenvalues --   -0.88071  -0.87320  -0.86120  -0.85322  -0.84983
 Alpha  occ. eigenvalues --   -0.84060  -0.84030  -0.83344  -0.82722  -0.81927
 Alpha  occ. eigenvalues --   -0.81819  -0.80393  -0.80044  -0.78831  -0.78040
 Alpha  occ. eigenvalues --   -0.77729  -0.77395  -0.77285  -0.76444  -0.76303
 Alpha  occ. eigenvalues --   -0.75848  -0.74874  -0.74011  -0.72727  -0.72323
 Alpha  occ. eigenvalues --   -0.70653  -0.70242  -0.69214  -0.68686  -0.67468
 Alpha  occ. eigenvalues --   -0.67191  -0.66842  -0.66509  -0.65784  -0.65584
 Alpha  occ. eigenvalues --   -0.65327  -0.65164  -0.64793  -0.62795  -0.62209
 Alpha  occ. eigenvalues --   -0.62003  -0.61414  -0.60895  -0.60391  -0.59825
 Alpha  occ. eigenvalues --   -0.59392  -0.58984  -0.58888  -0.58115  -0.57694
 Alpha  occ. eigenvalues --   -0.57673  -0.57243  -0.56702  -0.56463  -0.55735
 Alpha  occ. eigenvalues --   -0.55568  -0.55458  -0.54960  -0.54889  -0.54625
 Alpha  occ. eigenvalues --   -0.54295  -0.54236  -0.54082  -0.53828  -0.53801
 Alpha  occ. eigenvalues --   -0.53621  -0.53262  -0.53023  -0.52884  -0.52720
 Alpha  occ. eigenvalues --   -0.52668  -0.51962  -0.51886  -0.51826  -0.51621
 Alpha  occ. eigenvalues --   -0.51537  -0.51241  -0.51155  -0.50817  -0.50511
 Alpha  occ. eigenvalues --   -0.50290  -0.50020  -0.49938  -0.49652  -0.49483
 Alpha  occ. eigenvalues --   -0.49479  -0.49067  -0.48880  -0.48776  -0.48484
 Alpha  occ. eigenvalues --   -0.48281  -0.48090  -0.48026  -0.47732  -0.47538
 Alpha  occ. eigenvalues --   -0.47270  -0.47149  -0.46948  -0.46764  -0.46578
 Alpha  occ. eigenvalues --   -0.46389  -0.46276  -0.46163  -0.46002  -0.45745
 Alpha  occ. eigenvalues --   -0.45734  -0.45627  -0.45460  -0.45203  -0.45145
 Alpha  occ. eigenvalues --   -0.44961  -0.44573  -0.44493  -0.44354  -0.43985
 Alpha  occ. eigenvalues --   -0.43720  -0.43631  -0.43474  -0.43100  -0.42848
 Alpha  occ. eigenvalues --   -0.42815  -0.42616  -0.42252  -0.42134  -0.42034
 Alpha  occ. eigenvalues --   -0.41921  -0.41522  -0.41212  -0.41100  -0.40480
 Alpha  occ. eigenvalues --   -0.40452  -0.40126  -0.39697  -0.39676  -0.39553
 Alpha  occ. eigenvalues --   -0.39166  -0.39016  -0.38817  -0.38624  -0.38562
 Alpha  occ. eigenvalues --   -0.37655  -0.37601  -0.36728  -0.36486  -0.36439
 Alpha  occ. eigenvalues --   -0.35951  -0.35212  -0.34582  -0.33680  -0.32930
 Alpha  occ. eigenvalues --   -0.32348  -0.32241  -0.31689  -0.30948  -0.25536
 Alpha  occ. eigenvalues --   -0.23079
 Alpha virt. eigenvalues --   -0.06744   0.00086   0.02246   0.04778   0.05581
 Alpha virt. eigenvalues --    0.05963   0.06720   0.07744   0.08246   0.09515
 Alpha virt. eigenvalues --    0.10565   0.10843   0.11697   0.11805   0.12342

 Mulliken charges:
               1
     1  Mg   0.965658
     2  C   -0.005043
     3  C   -0.066190
     4  C   -0.079184
     5  C   -0.095275
     6  N   -0.311217
     7  C   -0.010103
     8  C   -0.085402
     9  C   -0.131397
    10  C    0.035561
    11  C    0.029766
    12  C    0.026944
    13  C   -0.057206
    14  C    0.258600
    15  O   -0.283674
    16  O   -0.328955
    17  N   -0.470569
    18  C    0.142343
    19  C   -0.161623
    20  C   -0.082961
    21  C    0.156092
    22  C    0.072046
    23  C    0.032345
    24  O   -0.234736
    25  C   -0.001987
    26  N   -0.324886
    27  C    0.036972
    28  C   -0.094495
    29  C   -0.030586
    30  C    0.028963
    31  C    0.016259
    32  C    0.012608
    33  C   -0.061357
    34  N   -0.446174
    35  C    0.111601
    36  C   -0.171709
    37  C   -0.019187
    38  C    0.106861
    39  C    0.088646
    40  C    0.142484
    41  O   -0.243636
    42  C   -0.054532
    43  C    0.238379
    44  O   -0.233162
    45  O   -0.400511
    46  C    0.129754
    47  C    0.234096
    48  C   -0.114841
    49  C   -0.222558
    50  C    0.038015
    51  C    0.024741
    52  C   -0.030272
    53  C   -0.037850
    54  C   -0.192439
    55  C    0.025833
    56  C    0.036457
    57  C   -0.083824
    58  C    0.031565
    59  C   -0.197064
    60  C    0.018637
    61  C    0.005874
    62  C   -0.023830
    63  C   -0.034651
    64  C   -0.193028
    65  C   -0.006467
    66  C   -0.010959
    67  H    0.000568
    68  H    0.016512
    69  H   -0.017818
    70  H    0.030859
    71  H    0.047777
    72  H    0.038784
    73  H    0.035983
    74  H    0.049730
    75  H    0.045433
    76  H    0.038566
    77  H    0.049890
    78  H    0.071778
    79  H    0.066941
    80  H    0.019643
    81  H    0.053067
    82  H    0.070317
    83  H    0.048729
    84  H    0.071042
    85  H    0.041798
    86  H    0.037301
    87  H    0.032680
    88  H    0.037724
    89  H    0.052107
    90  H    0.032650
    91  H    0.040346
    92  H    0.037656
    93  H    0.041149
    94  H    0.050096
    95  H    0.033359
    96  H    0.063601
    97  H    0.052969
    98  H    0.065877
    99  H    0.045617
   100  H    0.068826
   101  H    0.075649
   102  H    0.057297
   103  H    0.053549
   104  H    0.035023
   105  H    0.037674
   106  H    0.042045
   107  H    0.044790
   108  H    0.024290
   109  H    0.020418
   110  H    0.041003
   111  H    0.037975
   112  H    0.033007
   113  H    0.013821
   114  H    0.028023
   115  H    0.024781
   116  H    0.024598
   117  H    0.021359
   118  H    0.018151
   119  H    0.015626
   120  H    0.018114
   121  H    0.008265
   122  H    0.021378
   123  H    0.020428
   124  H    0.021507
   125  H    0.033122
   126  H    0.022074
   127  H    0.020123
   128  H    0.024828
   129  H    0.006152
   130  H    0.031111
   131  H    0.022445
   132  H    0.010331
   133  H    0.022388
   134  H    0.025907
   135  H    0.040846
   136  H    0.033898
   137  H    0.018851
   138  H    0.024530
   139  H    0.021177
   140  H    0.018324
 Sum of Mulliken charges =  -0.00000

 Dipole moment (field-independent basis, Debye):
    X=             -3.5963    Y=              6.7812    Z=             -2.5635  Tot=              8.0925
 Quadrupole moment (field-independent basis, Debye-Ang):
   XX=           -352.9533   YY=           -432.5631   ZZ=           -401.0969
   XY=             19.9387   XZ=              7.4554   YZ=             -1.5683

 Normal termination of Gaussian 16 at Wed May  4 05:28:47 2022.
