 Gaussian 16, Revision A.03,
 Gaussian 16:  ES64L-G16RevA.03 25-Dec-2016

 --------------------
 #p ZINDO=(nstates=5)
 --------------------

 -----------------------------
 step_1401_chromophore_1 ZINDO
 -----------------------------
 Symbolic Z-matrix:
 Charge =  0 Multiplicity = 1

                         Standard orientation:
 ---------------------------------------------------------------------
 Center     Atomic      Atomic             Coordinates (Angstroms)
 Number     Number       Type             X           Y           Z
 ---------------------------------------------------------------------
      1         12           0        5.920430    0.497089    0.038431
      2          6           0        4.081385   -2.393887   -0.644180
      3          6           0        3.470357    2.312711   -1.468650
      4          6           0        7.920927    3.171624    0.247449
      5          6           0        8.579945   -1.526475    0.752327
      6          7           0        3.935019   -0.005742   -0.756695
      7          6           0        3.298741   -1.201709   -0.792255
      8          6           0        1.771663   -1.077150   -1.130001
      9          6           0        1.635651    0.475285   -1.501853
     10          6           0        3.136132    0.922107   -1.262586
     11          6           0        1.139807    0.834595   -2.930103
     12          6           0        0.833260   -1.593773    0.004032
     13          6           0       -0.548385   -0.883667    0.083418
     14          6           0       -1.782442   -1.740145    0.584574
     15          8           0       -1.728164   -2.798725    1.245370
     16          8           0       -2.920570   -1.138565    0.212566
     17          7           0        5.655657    2.523091   -0.371370
     18          6           0        4.556799    3.097300   -1.007632
     19          6           0        4.752923    4.544671   -1.080479
     20          6           0        5.989531    4.782558   -0.393535
     21          6           0        6.602279    3.461796   -0.148577
     22          6           0        3.647829    5.487158   -1.673179
     23          6           0        6.761672    6.085327   -0.059491
     24          8           0        7.781406    6.085624    0.616064
     25          6           0        6.328439    7.439278   -0.602907
     26          7           0        8.006674    0.782706    0.335599
     27          6           0        8.583754    1.960762    0.496522
     28          6           0       10.060355    1.895481    0.859551
     29          6           0       10.301334    0.407923    0.970072
     30          6           0        8.867758   -0.156627    0.755318
     31          6           0       11.077816    2.647784   -0.123717
     32          6           0       11.113406   -0.163128    2.130105
     33          6           0       10.237613   -0.290823    3.417966
     34          7           0        6.334701   -1.548541    0.059866
     35          6           0        7.455866   -2.231401    0.451131
     36          6           0        7.293368   -3.607577    0.377641
     37          6           0        5.966705   -3.738714   -0.094049
     38          6           0        5.413706   -2.494275   -0.297510
     39          6           0        8.282206   -4.701269    0.631746
     40          6           0        4.957562   -4.678688   -0.467634
     41          8           0        4.896621   -5.936286   -0.491957
     42          6           0        3.727865   -3.821363   -0.936825
     43          6           0        2.472014   -4.366013   -0.423434
     44          8           0        2.391153   -4.670916    0.748287
     45          8           0        1.454450   -4.549387   -1.357849
     46          6           0        0.217880   -5.216598   -0.828701
     47          6           0       -4.147668   -1.739727    0.642791
     48          6           0       -5.352681   -1.241781   -0.189901
     49          6           0       -6.555080   -1.909944   -0.372306
     50          6           0       -6.888669   -3.222143    0.245659
     51          6           0       -7.593329   -1.391350   -1.415309
     52          6           0       -8.859664   -0.594147   -1.010713
     53          6           0       -8.984271   -0.232670    0.529113
     54          6           0       -9.216979    1.236796    0.870542
     55          6           0       -7.982613    2.074207    0.528059
     56          6           0       -9.592656    1.402666    2.384553
     57          6           0      -10.976217    2.041206    2.472744
     58          6           0      -12.116041    1.200762    3.147808
     59          6           0      -13.438298    1.566253    2.469468
     60          6           0      -14.547005    1.244113    3.487778
     61          6           0      -13.612901    0.760901    1.130884
     62          6           0      -14.186137    1.595741   -0.067612
     63          6           0      -13.203254    1.677121   -1.318492
     64          6           0      -13.566939    0.744860   -2.464079
     65          6           0      -13.134240   -0.725783   -2.121054
     66          6           0      -12.848334    1.169525   -3.771716
     67          1           0        2.554008    2.865043   -1.683963
     68          1           0        8.604476    4.021340    0.275461
     69          1           0        9.281222   -2.230065    1.206699
     70          1           0        1.459438   -1.710837   -1.960103
     71          1           0        1.003214    0.944675   -0.747831
     72          1           0        1.872308    1.498402   -3.388239
     73          1           0        0.231492    1.422536   -2.801292
     74          1           0        0.990420    0.011433   -3.628571
     75          1           0        1.439527   -1.477168    0.903495
     76          1           0        0.501950   -2.598374   -0.258128
     77          1           0       -0.683446   -0.622029   -0.966337
     78          1           0       -0.356108    0.045498    0.618947
     79          1           0        3.524766    5.420939   -2.755272
     80          1           0        3.902532    6.489849   -1.329530
     81          1           0        2.698328    5.215312   -1.212272
     82          1           0        5.358295    7.650464   -0.151935
     83          1           0        6.130493    7.199515   -1.647917
     84          1           0        7.170183    8.115403   -0.453267
     85          1           0       10.119019    2.430097    1.807753
     86          1           0       10.736588    0.181848   -0.004261
     87          1           0       11.652661    2.003671   -0.789688
     88          1           0       11.878281    3.062073    0.488100
     89          1           0       10.516642    3.387131   -0.694676
     90          1           0       11.916540    0.566921    2.237055
     91          1           0       11.529401   -1.136319    1.870127
     92          1           0       10.698842    0.252811    4.242938
     93          1           0       10.202671   -1.349433    3.675985
     94          1           0        9.221031    0.089217    3.318450
     95          1           0        9.329696   -4.441929    0.481686
     96          1           0        8.051311   -5.569134    0.013870
     97          1           0        8.176553   -4.950062    1.688076
     98          1           0        3.629290   -3.765096   -2.020526
     99          1           0       -0.205874   -5.722307   -1.696606
    100          1           0       -0.532083   -4.523285   -0.447092
    101          1           0        0.563802   -5.975883   -0.128537
    102          1           0       -4.111076   -1.582766    1.721177
    103          1           0       -4.144235   -2.808997    0.433038
    104          1           0       -5.148124   -0.391400   -0.840706
    105          1           0       -7.778984   -3.088392    0.859764
    106          1           0       -6.174511   -3.707851    0.910818
    107          1           0       -7.156204   -3.900988   -0.565037
    108          1           0       -7.922207   -2.245730   -2.007482
    109          1           0       -7.085015   -0.713535   -2.101754
    110          1           0       -9.660376   -1.319895   -1.148738
    111          1           0       -8.854693    0.286377   -1.652466
    112          1           0       -8.132821   -0.647532    1.069031
    113          1           0       -9.875306   -0.761212    0.867595
    114          1           0      -10.104087    1.469826    0.281378
    115          1           0       -8.194544    2.742440   -0.306075
    116          1           0       -7.135653    1.407088    0.364587
    117          1           0       -7.652188    2.759008    1.308632
    118          1           0       -9.029895    2.100103    3.005510
    119          1           0       -9.438916    0.428252    2.848076
    120          1           0      -11.267511    2.506903    1.531508
    121          1           0      -10.908442    2.918628    3.115530
    122          1           0      -12.167020    1.492500    4.196863
    123          1           0      -11.770392    0.174770    3.017246
    124          1           0      -13.453256    2.621176    2.196173
    125          1           0      -14.216916    0.823344    4.437161
    126          1           0      -15.346012    0.658673    3.032825
    127          1           0      -14.988879    2.202784    3.761301
    128          1           0      -14.135406   -0.155449    1.403966
    129          1           0      -12.631909    0.495307    0.736817
    130          1           0      -14.606839    2.586237    0.106091
    131          1           0      -15.060236    0.987572   -0.303531
    132          1           0      -12.170931    1.397980   -1.106279
    133          1           0      -13.075107    2.722165   -1.599026
    134          1           0      -14.641775    0.826371   -2.630205
    135          1           0      -13.182189   -1.361116   -3.005255
    136          1           0      -13.728419   -1.075736   -1.275540
    137          1           0      -12.097486   -0.617294   -1.803330
    138          1           0      -12.328959    0.470772   -4.426531
    139          1           0      -12.238209    2.031323   -3.499965
    140          1           0      -13.537912    1.508310   -4.545205
 ---------------------------------------------------------------------

 SCF Done:  E(RZINDO/S) =  -474.250949085     A.U. after   19 cycles

 Excitation energies and oscillator strengths:

 Excited State   1:      Singlet-A      1.3143 eV  943.32 nm  f=0.5355  <S**2>=0.000
     175 ->178         0.19064
     176 ->177         0.66356
 This state for optimization and/or second-order correction.
 Total Energy, E(CIS/TDA) =  -474.202647813
 Copying the excited state density for this state as the 1-particle RhoCI density.

 Excited State   2:      Singlet-A      1.8888 eV  656.41 nm  f=0.0302  <S**2>=0.000
     175 ->177         0.53283
     176 ->178        -0.43468

 Excited State   3:      Singlet-A      2.9235 eV  424.09 nm  f=0.1195  <S**2>=0.000
     168 ->177         0.28570
     168 ->179        -0.37984
     168 ->181         0.21459
     168 ->186         0.19398
     175 ->177         0.12748
     176 ->178         0.17580

 Excited State   4:      Singlet-A      2.9431 eV  421.27 nm  f=0.7284  <S**2>=0.000
     168 ->179         0.13193
     170 ->177         0.12107
     175 ->177         0.33953
     176 ->178         0.45656
     176 ->179         0.23596
     176 ->181         0.14546

 Excited State   5:      Singlet-A      2.9813 eV  415.87 nm  f=0.0124  <S**2>=0.000
     170 ->179        -0.10157
     170 ->181        -0.13967
     171 ->177         0.27747
     171 ->178         0.20011
     171 ->179         0.24250
     171 ->181         0.33198
     171 ->186        -0.17682
     171 ->188         0.17970

 The electronic state is 1-A.
 Alpha  occ. eigenvalues --   -1.86197  -1.83066  -1.79967  -1.74358  -1.71494
 Alpha  occ. eigenvalues --   -1.70846  -1.66395  -1.60350  -1.59890  -1.57948
 Alpha  occ. eigenvalues --   -1.55906  -1.51039  -1.49116  -1.47555  -1.45751
 Alpha  occ. eigenvalues --   -1.43695  -1.43532  -1.39945  -1.38622  -1.37111
 Alpha  occ. eigenvalues --   -1.35931  -1.33315  -1.32242  -1.30428  -1.28252
 Alpha  occ. eigenvalues --   -1.27790  -1.25430  -1.22502  -1.20553  -1.18069
 Alpha  occ. eigenvalues --   -1.16833  -1.16045  -1.15399  -1.13810  -1.12167
 Alpha  occ. eigenvalues --   -1.11624  -1.11049  -1.10839  -1.05874  -1.04417
 Alpha  occ. eigenvalues --   -1.03283  -1.01620  -0.99695  -0.98745  -0.97564
 Alpha  occ. eigenvalues --   -0.96481  -0.94983  -0.93347  -0.92642  -0.91702
 Alpha  occ. eigenvalues --   -0.90285  -0.89743  -0.89384  -0.88647  -0.85251
 Alpha  occ. eigenvalues --   -0.84918  -0.83370  -0.82707  -0.82553  -0.80307
 Alpha  occ. eigenvalues --   -0.79061  -0.78900  -0.77674  -0.76506  -0.76201
 Alpha  occ. eigenvalues --   -0.76061  -0.75655  -0.74228  -0.74087  -0.73750
 Alpha  occ. eigenvalues --   -0.72571  -0.72381  -0.71252  -0.71055  -0.70927
 Alpha  occ. eigenvalues --   -0.70009  -0.69722  -0.68917  -0.68042  -0.67829
 Alpha  occ. eigenvalues --   -0.67003  -0.66841  -0.66167  -0.65824  -0.65314
 Alpha  occ. eigenvalues --   -0.65089  -0.64803  -0.64402  -0.64044  -0.63404
 Alpha  occ. eigenvalues --   -0.62962  -0.62782  -0.62344  -0.62177  -0.62013
 Alpha  occ. eigenvalues --   -0.61459  -0.61213  -0.60917  -0.60805  -0.60436
 Alpha  occ. eigenvalues --   -0.59637  -0.59527  -0.58828  -0.58451  -0.58060
 Alpha  occ. eigenvalues --   -0.57689  -0.56996  -0.56835  -0.56548  -0.56267
 Alpha  occ. eigenvalues --   -0.55875  -0.55329  -0.55131  -0.54990  -0.54587
 Alpha  occ. eigenvalues --   -0.54387  -0.54144  -0.53732  -0.53580  -0.53197
 Alpha  occ. eigenvalues --   -0.52672  -0.52314  -0.51858  -0.51605  -0.51408
 Alpha  occ. eigenvalues --   -0.50990  -0.50806  -0.50624  -0.50246  -0.49793
 Alpha  occ. eigenvalues --   -0.49690  -0.49605  -0.49148  -0.48898  -0.48727
 Alpha  occ. eigenvalues --   -0.48639  -0.48572  -0.48146  -0.47718  -0.47571
 Alpha  occ. eigenvalues --   -0.47495  -0.47031  -0.46971  -0.46782  -0.46682
 Alpha  occ. eigenvalues --   -0.46453  -0.45993  -0.45928  -0.45412  -0.45274
 Alpha  occ. eigenvalues --   -0.45132  -0.44930  -0.44567  -0.44186  -0.44054
 Alpha  occ. eigenvalues --   -0.43656  -0.43369  -0.42416  -0.42161  -0.42033
 Alpha  occ. eigenvalues --   -0.41845  -0.41029  -0.40326  -0.39086  -0.38734
 Alpha  occ. eigenvalues --   -0.37113  -0.36814  -0.35897  -0.34824  -0.33899
 Alpha  occ. eigenvalues --   -0.33774  -0.32003  -0.31859  -0.31474  -0.26280
 Alpha  occ. eigenvalues --   -0.21803
 Alpha virt. eigenvalues --   -0.08082  -0.02313  -0.00459   0.01507   0.01633
 Alpha virt. eigenvalues --    0.02014   0.03052   0.03705   0.03803   0.04636
 Alpha virt. eigenvalues --    0.05917   0.06524   0.07175   0.07417   0.07942

 Mulliken charges:
               1
     1  Mg   0.428319
     2  C   -0.017074
     3  C   -0.106776
     4  C   -0.083033
     5  C   -0.064531
     6  N   -0.245843
     7  C    0.083595
     8  C   -0.005157
     9  C   -0.004479
    10  C    0.152995
    11  C   -0.050435
    12  C   -0.034550
    13  C   -0.005861
    14  C    0.465718
    15  O   -0.518937
    16  O   -0.256985
    17  N   -0.338624
    18  C    0.125625
    19  C    0.011047
    20  C   -0.032214
    21  C    0.159819
    22  C   -0.041271
    23  C    0.320253
    24  O   -0.515230
    25  C   -0.031424
    26  N   -0.251387
    27  C    0.168990
    28  C    0.008346
    29  C    0.003949
    30  C    0.093455
    31  C   -0.056568
    32  C   -0.023601
    33  C   -0.055571
    34  N   -0.348368
    35  C    0.096388
    36  C    0.016433
    37  C   -0.046984
    38  C    0.098490
    39  C   -0.035773
    40  C    0.328960
    41  O   -0.540552
    42  C    0.059095
    43  C    0.487353
    44  O   -0.510844
    45  O   -0.290392
    46  C    0.070754
    47  C    0.104227
    48  C   -0.105224
    49  C    0.004135
    50  C   -0.038291
    51  C   -0.026466
    52  C   -0.039692
    53  C   -0.037790
    54  C   -0.008858
    55  C   -0.055639
    56  C   -0.040083
    57  C   -0.049461
    58  C   -0.034978
    59  C   -0.011546
    60  C   -0.061499
    61  C   -0.040187
    62  C   -0.044168
    63  C   -0.034044
    64  C   -0.004099
    65  C   -0.058402
    66  C   -0.070142
    67  H    0.015728
    68  H    0.038486
    69  H    0.013866
    70  H    0.030230
    71  H    0.039476
    72  H    0.021644
    73  H    0.018247
    74  H    0.031312
    75  H    0.039281
    76  H    0.045968
    77  H    0.032858
    78  H    0.045819
    79  H    0.041433
    80  H    0.024414
    81  H    0.030240
    82  H    0.045984
    83  H    0.030077
    84  H    0.055173
    85  H    0.033350
    86  H    0.024315
    87  H    0.023206
    88  H    0.020413
    89  H    0.032566
    90  H    0.018920
    91  H    0.026313
    92  H    0.015847
    93  H    0.021458
    94  H    0.029181
    95  H    0.021284
    96  H    0.034369
    97  H    0.032898
    98  H    0.045306
    99  H    0.024938
   100  H    0.055490
   101  H    0.059575
   102  H    0.055741
   103  H    0.048822
   104  H    0.032705
   105  H    0.024232
   106  H    0.027995
   107  H    0.028548
   108  H    0.020295
   109  H    0.013544
   110  H    0.022738
   111  H    0.032354
   112  H    0.025873
   113  H    0.006790
   114  H    0.026541
   115  H    0.016205
   116  H    0.022585
   117  H    0.014589
   118  H    0.020295
   119  H    0.021529
   120  H    0.023480
   121  H    0.001830
   122  H    0.020567
   123  H    0.027274
   124  H    0.027242
   125  H    0.025530
   126  H    0.018815
   127  H    0.007942
   128  H    0.027749
   129  H    0.016020
   130  H    0.028449
   131  H    0.011418
   132  H    0.017251
   133  H    0.014309
   134  H    0.020830
   135  H    0.023335
   136  H    0.020728
   137  H    0.019824
   138  H    0.025967
   139  H    0.018274
   140  H    0.007205
 Sum of Mulliken charges =  -0.00000

 Dipole moment (field-independent basis, Debye):
    X=             -4.4085    Y=             11.1419    Z=             -5.4272  Tot=             13.1542
 N-N= 4.270763910793D+03 E-N= 0.000000000000D+00  KE=-9.216079565760D+03
 Leave Link  601 at Wed May  4 05:41:27 2022, MaxMem=  6710886400 cpu:               0.8 elap:               0.0
 (Enter /sw/apps/gaussian-16.0/g16/l9999.exe)
 1\1\GINC-BP1-COMPUTE101\SP\RZINDO CIS\STO-3G\C55H74Mg1N4O6\OF15641\04-
 May-2022\0\\#p ZINDO=(nstates=5)\\step_1401_chromophore_1 ZINDO\\0,1\M
 g,0,-1.663,16.684,27.165\C,0,-2.002,14.399,29.786\C,0,-2.702,19.138,29
 .279\C,0,-1.819,18.741,24.53\C,0,-1.442,14.013,25.045\N,0,-2.086,16.74
 7,29.32\C,0,-2.006,15.758,30.243\C,0,-2.062,16.287,31.719\C,0,-2.403,1
 7.838,31.507\C,0,-2.439,17.872,29.924\C,0,-3.718,18.38,32.133\C,0,-0.7
 77,15.976,32.547\C,0,-0.449,17.013,33.659\C,0,0.267,16.48,34.967\O,0,0

 Normal termination of Gaussian 16 at Wed May  4 05:41:27 2022.
