 Gaussian 16, Revision A.03,
 Gaussian 16:  ES64L-G16RevA.03 25-Dec-2016

 ------------------------------
 #p blyp/Def2SVP td=(nstates=5)
 ------------------------------

 --------------------------------------------------
 step_151_chromophore_18 TDDFT with blyp functional
 --------------------------------------------------
 Symbolic Z-matrix:
 Charge =  0 Multiplicity = 1

                         Standard orientation:
 ---------------------------------------------------------------------
 Center     Atomic      Atomic             Coordinates (Angstroms)
 Number     Number       Type             X           Y           Z
 ---------------------------------------------------------------------
      1         12           0        5.278403    0.859975    0.132163
      2          6           0        4.342470   -2.485504    0.140346
      3          6           0        1.981570    1.691184    0.135553
      4          6           0        6.177626    4.126981   -0.353636
      5          6           0        8.651096   -0.090606   -0.044238
      6          7           0        3.338610   -0.263923   -0.013471
      7          6           0        3.173444   -1.649677    0.080097
      8          6           0        1.668899   -2.001313    0.251886
      9          6           0        0.960490   -0.577693    0.038301
     10          6           0        2.155640    0.326672    0.054647
     11          6           0        0.073691   -0.312257   -1.160085
     12          6           0        1.372527   -2.671160    1.627797
     13          6           0        0.332305   -3.830164    1.579849
     14          6           0       -0.472388   -4.085802    0.390103
     15          8           0       -0.424310   -5.097706   -0.290437
     16          8           0       -1.376260   -3.090910    0.135531
     17          7           0        4.235314    2.735655   -0.050336
     18          6           0        2.896656    2.819337   -0.009274
     19          6           0        2.513724    4.192613   -0.175865
     20          6           0        3.684165    4.954799   -0.276249
     21          6           0        4.798121    3.992408   -0.301836
     22          6           0        1.028960    4.560353   -0.462805
     23          6           0        3.863420    6.463423   -0.310735
     24          8           0        4.898518    6.975069   -0.304663
     25          6           0        2.674997    7.417734   -0.183274
     26          7           0        7.136173    1.807471   -0.258621
     27          6           0        7.251377    3.199024   -0.329384
     28          6           0        8.758260    3.662633   -0.320403
     29          6           0        9.456730    2.306291    0.006984
     30          6           0        8.382236    1.257703   -0.080149
     31          6           0        9.198488    4.390819   -1.665218
     32          6           0       10.251765    2.409725    1.288118
     33          6           0        9.442647    2.158856    2.520072
     34          7           0        6.380779   -0.900275   -0.025093
     35          6           0        7.746876   -1.109754   -0.044169
     36          6           0        7.970410   -2.560216   -0.067464
     37          6           0        6.698193   -3.090058   -0.001257
     38          6           0        5.720244   -2.052763    0.097865
     39          6           0        9.220652   -3.211512   -0.127159
     40          6           0        5.973463   -4.298489    0.092455
     41          8           0        6.345616   -5.509089    0.058962
     42          6           0        4.407181   -3.985689    0.181995
     43          6           0        3.876719   -4.562709   -1.058701
     44          8           0        4.088964   -4.275352   -2.220456
     45          8           0        3.023436   -5.513330   -0.648305
     46          6           0        2.430562   -6.363726   -1.665278
     47          6           0       -2.517702   -3.445743   -0.725901
     48          6           0       -3.268810   -2.059248   -0.854378
     49          6           0       -4.595927   -1.792944   -0.814386
     50          6           0       -5.635131   -2.850973   -0.781855
     51          6           0       -5.025428   -0.294327   -0.611612
     52          6           0       -5.228036    0.259552    0.859511
     53          6           0       -6.463490    1.111859    1.193448
     54          6           0       -7.417712    0.382439    2.079397
     55          6           0       -7.061597    0.604232    3.534611
     56          6           0       -8.894697    0.676803    1.831489
     57          6           0       -9.495275   -0.070149    0.565239
     58          6           0      -10.877980   -0.802561    0.955734
     59          6           0      -12.116857    0.090369    1.214180
     60          6           0      -12.635598    0.017185    2.672384
     61          6           0      -13.248967   -0.264293    0.209633
     62          6           0      -13.216402    0.596526   -1.022276
     63          6           0      -14.507244    0.738606   -1.808247
     64          6           0      -15.195689    2.132431   -1.503429
     65          6           0      -16.749674    2.000169   -1.417690
     66          6           0      -14.932626    3.256080   -2.513408
     67          1           0        0.924288    1.962651    0.119539
     68          1           0        6.616831    5.124785   -0.411224
     69          1           0        9.666302   -0.415265   -0.279957
     70          1           0        1.426375   -2.682551   -0.563179
     71          1           0        0.328027   -0.330390    0.890659
     72          1           0        0.495071    0.455294   -1.809705
     73          1           0       -0.823012    0.131744   -0.728195
     74          1           0       -0.152211   -1.267710   -1.634100
     75          1           0        0.990199   -2.003506    2.398939
     76          1           0        2.353040   -3.010500    1.962289
     77          1           0       -0.375635   -3.761896    2.405469
     78          1           0        0.799732   -4.736588    1.964474
     79          1           0        0.477394    3.749650   -0.938555
     80          1           0        0.896174    5.392771   -1.154693
     81          1           0        0.516734    4.717009    0.486332
     82          1           0        2.056236    7.445962   -1.079862
     83          1           0        3.044515    8.433737   -0.042632
     84          1           0        2.027878    7.286462    0.684043
     85          1           0        8.914079    4.296025    0.552300
     86          1           0       10.190377    1.935416   -0.708211
     87          1           0        9.772164    3.664026   -2.240821
     88          1           0        9.834695    5.268817   -1.546724
     89          1           0        8.273074    4.736172   -2.123847
     90          1           0       10.717422    3.371991    1.496992
     91          1           0       11.102253    1.726798    1.268659
     92          1           0        9.665307    2.927701    3.259167
     93          1           0        9.599021    1.120803    2.813979
     94          1           0        8.381269    2.315686    2.328928
     95          1           0        8.963882   -4.264885   -0.237548
     96          1           0        9.774587   -2.963298    0.777891
     97          1           0        9.810524   -2.958017   -1.007762
     98          1           0        4.061648   -4.399148    1.129669
     99          1           0        2.302528   -7.329944   -1.176784
    100          1           0        3.081043   -6.545456   -2.520576
    101          1           0        1.515198   -6.028941   -2.154847
    102          1           0       -3.179720   -4.193581   -0.288615
    103          1           0       -2.095651   -3.843290   -1.648706
    104          1           0       -2.654997   -1.164903   -0.750035
    105          1           0       -6.609165   -2.499682   -1.122689
    106          1           0       -5.777034   -3.146054    0.257747
    107          1           0       -5.499310   -3.723707   -1.420350
    108          1           0       -5.991779   -0.127616   -1.087446
    109          1           0       -4.264004    0.313904   -1.100367
    110          1           0       -4.449789    1.016666    0.959486
    111          1           0       -4.987938   -0.502710    1.601332
    112          1           0       -7.018442    1.353877    0.287447
    113          1           0       -6.064322    2.060745    1.551875
    114          1           0       -7.262821   -0.684005    1.920406
    115          1           0       -7.381691   -0.266273    4.105983
    116          1           0       -7.446889    1.557456    3.897549
    117          1           0       -5.984483    0.726871    3.647813
    118          1           0       -9.003053    1.734439    1.591059
    119          1           0       -9.458606    0.542701    2.755146
    120          1           0       -8.772891   -0.766515    0.141506
    121          1           0       -9.620003    0.655724   -0.238313
    122          1           0      -10.707065   -1.493119    1.782038
    123          1           0      -11.039116   -1.456618    0.098738
    124          1           0      -11.875570    1.143099    1.072089
    125          1           0      -13.724476    0.038992    2.638662
    126          1           0      -12.215877    0.874561    3.199482
    127          1           0      -12.368681   -0.852289    3.271726
    128          1           0      -14.231573   -0.191972    0.676008
    129          1           0      -13.242416   -1.284637   -0.173468
    130          1           0      -12.579846    0.171375   -1.797815
    131          1           0      -12.691694    1.534955   -0.848458
    132          1           0      -15.110613   -0.139959   -1.580590
    133          1           0      -14.235450    0.680192   -2.862509
    134          1           0      -14.758668    2.549207   -0.596488
    135          1           0      -17.016940    2.316612   -0.409956
    136          1           0      -17.034058    0.954143   -1.529668
    137          1           0      -17.288548    2.582290   -2.166839
    138          1           0      -14.390475    2.829214   -3.356776
    139          1           0      -14.289208    4.056561   -2.149321
    140          1           0      -15.799060    3.731429   -2.974144
 ---------------------------------------------------------------------

 SCF Done:  E(RB-LYP) =  -3007.35574107     A.U. after   22 cycles

 Excitation energies and oscillator strengths:

 Excited State   1:      Singlet-A      1.7716 eV  699.83 nm  f=0.0007  <S**2>=0.000
     244 -> 247        0.70400
 This state for optimization and/or second-order correction.
 Total Energy, E(TD-HF/TD-DFT) =  -3007.29063483
 Copying the excited state density for this state as the 1-particle RhoCI density.

 Excited State   2:      Singlet-A      1.8107 eV  684.72 nm  f=0.3011  <S**2>=0.000
     245 -> 248       -0.20182
     246 -> 247        0.68868
     246 <- 247       -0.14944

 Excited State   3:      Singlet-A      2.0023 eV  619.21 nm  f=0.0686  <S**2>=0.000
     245 -> 247        0.64713
     246 -> 248        0.25957

 Excited State   4:      Singlet-A      2.0278 eV  611.43 nm  f=0.0007  <S**2>=0.000
     243 -> 247        0.70679

 Excited State   5:      Singlet-A      2.5035 eV  495.23 nm  f=0.0000  <S**2>=0.000
     241 -> 247        0.70704

 The electronic state is 1-A.
 Alpha  occ. eigenvalues --  -46.27598 -18.82357 -18.81169 -18.77153 -18.75808
 Alpha  occ. eigenvalues --  -18.75570 -18.74842 -14.03351 -14.03211 -14.00956
 Alpha  occ. eigenvalues --  -14.00666 -10.04453 -10.02690  -9.99631  -9.99158
 Alpha  occ. eigenvalues --   -9.98853  -9.97298  -9.96638  -9.96147  -9.95848
 Alpha  occ. eigenvalues --   -9.95797  -9.95787  -9.95514  -9.95102  -9.94889
 Alpha  occ. eigenvalues --   -9.94814  -9.94388  -9.94195  -9.94169  -9.93810
 Alpha  occ. eigenvalues --   -9.93697  -9.93685  -9.93671  -9.93215  -9.93086
 Alpha  occ. eigenvalues --   -9.93041  -9.92998  -9.92998  -9.92640  -9.92630
 Alpha  occ. eigenvalues --   -9.92434  -9.92430  -9.92396  -9.92375  -9.92342
 Alpha  occ. eigenvalues --   -9.92248  -9.92212  -9.92137  -9.92126  -9.92083
 Alpha  occ. eigenvalues --   -9.92002  -9.91787  -9.91719  -9.91556  -9.91501
 Alpha  occ. eigenvalues --   -9.91272  -9.91266  -9.91264  -9.91199  -9.91010
 Alpha  occ. eigenvalues --   -9.90976  -9.90952  -9.90666  -9.90559  -9.90542
 Alpha  occ. eigenvalues --   -9.90500  -2.92086  -1.72516  -1.71961  -1.71798
 Alpha  occ. eigenvalues --   -0.98537  -0.97754  -0.95605  -0.90181  -0.89219
 Alpha  occ. eigenvalues --   -0.88398  -0.86557  -0.85936  -0.85308  -0.84517
 Alpha  occ. eigenvalues --   -0.75288  -0.74117  -0.73417  -0.73029  -0.72865
 Alpha  occ. eigenvalues --   -0.72433  -0.71747  -0.71340  -0.71181  -0.70807
 Alpha  occ. eigenvalues --   -0.69765  -0.69461  -0.68099  -0.67756  -0.67281
 Alpha  occ. eigenvalues --   -0.66674  -0.66004  -0.65350  -0.64816  -0.64618
 Alpha  occ. eigenvalues --   -0.63940  -0.63194  -0.62511  -0.61932  -0.61268
 Alpha  occ. eigenvalues --   -0.60166  -0.59969  -0.59789  -0.59637  -0.59295
 Alpha  occ. eigenvalues --   -0.58531  -0.57816  -0.56950  -0.56367  -0.54795
 Alpha  occ. eigenvalues --   -0.54138  -0.53975  -0.52996  -0.52530  -0.51838
 Alpha  occ. eigenvalues --   -0.51709  -0.50785  -0.50656  -0.50501  -0.50308
 Alpha  occ. eigenvalues --   -0.50244  -0.49688  -0.49086  -0.48089  -0.46911
 Alpha  occ. eigenvalues --   -0.46304  -0.45892  -0.45447  -0.45060  -0.44645
 Alpha  occ. eigenvalues --   -0.43800  -0.43492  -0.43262  -0.43094  -0.42260
 Alpha  occ. eigenvalues --   -0.41982  -0.41782  -0.41551  -0.41350  -0.41272
 Alpha  occ. eigenvalues --   -0.40929  -0.40863  -0.40631  -0.40402  -0.40051
 Alpha  occ. eigenvalues --   -0.39961  -0.39743  -0.39583  -0.39448  -0.39352
 Alpha  occ. eigenvalues --   -0.39251  -0.39009  -0.38874  -0.38466  -0.38299
 Alpha  occ. eigenvalues --   -0.38161  -0.38055  -0.37845  -0.37711  -0.37435
 Alpha  occ. eigenvalues --   -0.37278  -0.37262  -0.36945  -0.36829  -0.36789
 Alpha  occ. eigenvalues --   -0.36510  -0.36422  -0.36053  -0.35992  -0.35677
 Alpha  occ. eigenvalues --   -0.35419  -0.35174  -0.34967  -0.34787  -0.34573
 Alpha  occ. eigenvalues --   -0.34476  -0.34378  -0.34289  -0.34017  -0.33795
 Alpha  occ. eigenvalues --   -0.33684  -0.33599  -0.33396  -0.33174  -0.32975
 Alpha  occ. eigenvalues --   -0.32746  -0.32666  -0.32385  -0.32246  -0.32172
 Alpha  occ. eigenvalues --   -0.32076  -0.31868  -0.31791  -0.31709  -0.31583
 Alpha  occ. eigenvalues --   -0.31455  -0.31236  -0.31117  -0.31053  -0.30707
 Alpha  occ. eigenvalues --   -0.30475  -0.30358  -0.30284  -0.29979  -0.29807
 Alpha  occ. eigenvalues --   -0.29533  -0.29360  -0.29276  -0.29052  -0.28825
 Alpha  occ. eigenvalues --   -0.28645  -0.28460  -0.28389  -0.28177  -0.27820
 Alpha  occ. eigenvalues --   -0.27606  -0.27432  -0.27357  -0.26694  -0.26615
 Alpha  occ. eigenvalues --   -0.26582  -0.26258  -0.25997  -0.25703  -0.25623
 Alpha  occ. eigenvalues --   -0.25364  -0.24609  -0.24242  -0.23846  -0.23704
 Alpha  occ. eigenvalues --   -0.23161  -0.22233  -0.22176  -0.21303  -0.20822
 Alpha  occ. eigenvalues --   -0.20698  -0.20474  -0.18883  -0.17905  -0.17203
 Alpha  occ. eigenvalues --   -0.15780
 Alpha virt. eigenvalues --   -0.11498  -0.06998  -0.06088  -0.04226  -0.04094
 Alpha virt. eigenvalues --   -0.02851  -0.02611  -0.01220  -0.00841   0.00466
 Alpha virt. eigenvalues --    0.00944   0.01580   0.01755   0.02252   0.02683

 Mulliken charges:
               1
     1  Mg   0.670066
     2  C   -0.023228
     3  C   -0.049093
     4  C   -0.024882
     5  C   -0.114848
     6  N   -0.197030
     7  C   -0.068344
     8  C    0.039536
     9  C   -0.015563
    10  C    0.002138
    11  C    0.143539
    12  C    0.155680
    13  C    0.159671
    14  C    0.056901
    15  O   -0.182694
    16  O   -0.296268
    17  N   -0.270000
    18  C    0.109773
    19  C   -0.126790
    20  C    0.040571
    21  C    0.117966
    22  C    0.156863
    23  C   -0.087774
    24  O   -0.087792
    25  C    0.094172
    26  N   -0.234768
    27  C   -0.031350
    28  C    0.040794
    29  C    0.059723
    30  C    0.050656
    31  C    0.129862
    32  C    0.061968
    33  C    0.080062
    34  N   -0.262120
    35  C    0.108510
    36  C   -0.165278
    37  C    0.169013
    38  C    0.072225
    39  C    0.176813
    40  C   -0.120018
    41  O   -0.187951
    42  C    0.089423
    43  C    0.113379
    44  O   -0.175502
    45  O   -0.243063
    46  C    0.218249
    47  C    0.317216
    48  C   -0.065009
    49  C   -0.170726
    50  C    0.128087
    51  C    0.129947
    52  C    0.064476
    53  C    0.119587
    54  C   -0.069083
    55  C    0.114947
    56  C    0.104104
    57  C    0.044625
    58  C    0.114734
    59  C   -0.043430
    60  C    0.101944
    61  C    0.122061
    62  C    0.029009
    63  C    0.129819
    64  C   -0.091497
    65  C    0.104329
    66  C    0.090777
    67  H   -0.083507
    68  H   -0.047195
    69  H   -0.054799
    70  H    0.003411
    71  H   -0.022339
    72  H   -0.001138
    73  H    0.005127
    74  H    0.004976
    75  H   -0.017849
    76  H   -0.018412
    77  H   -0.016737
    78  H   -0.014879
    79  H   -0.005711
    80  H   -0.002866
    81  H   -0.004795
    82  H    0.003723
    83  H   -0.018418
    84  H    0.000843
    85  H   -0.018114
    86  H   -0.040798
    87  H   -0.004395
    88  H   -0.006154
    89  H    0.003242
    90  H   -0.026127
    91  H   -0.035644
    92  H   -0.016799
    93  H   -0.002420
    94  H   -0.008910
    95  H    0.007541
    96  H    0.004424
    97  H   -0.001331
    98  H   -0.000365
    99  H    0.008404
   100  H    0.001662
   101  H    0.017023
   102  H    0.002126
   103  H    0.009558
   104  H   -0.052901
   105  H   -0.018133
   106  H    0.009215
   107  H    0.000925
   108  H   -0.033765
   109  H   -0.018853
   110  H   -0.046321
   111  H   -0.018812
   112  H   -0.044965
   113  H   -0.035162
   114  H   -0.041790
   115  H   -0.013057
   116  H   -0.021384
   117  H   -0.033613
   118  H   -0.041117
   119  H   -0.033052
   120  H   -0.031150
   121  H   -0.026014
   122  H   -0.031511
   123  H   -0.037854
   124  H   -0.029413
   125  H   -0.022571
   126  H   -0.011616
   127  H   -0.018116
   128  H   -0.043826
   129  H   -0.031961
   130  H   -0.050521
   131  H   -0.042536
   132  H   -0.033705
   133  H   -0.038272
   134  H   -0.024790
   135  H   -0.013216
   136  H   -0.023601
   137  H   -0.010561
   138  H   -0.033563
   139  H   -0.019006
   140  H   -0.014888
 Sum of Mulliken charges =  -0.00000

 Dipole moment (field-independent basis, Debye):
    X=             -4.2911    Y=              3.2389    Z=              2.9744  Tot=              6.1442
 Quadrupole moment (field-independent basis, Debye-Ang):
   XX=           -382.9430   YY=           -444.5953   ZZ=           -406.7263
   XY=             25.6156   XZ=             12.5104   YZ=             -5.9353

 Normal termination of Gaussian 16 at Thu Apr 28 09:57:01 2022.
