 Gaussian 16, Revision A.03,
 Gaussian 16:  ES64L-G16RevA.03 25-Dec-2016

 -----------------------------------
 #p cam-b3lyp/Def2SVP td=(nstates=5)
 -----------------------------------

 -------------------------------------------------------
 step_151_chromophore_18 TDDFT with cam-b3lyp functional
 -------------------------------------------------------
 Symbolic Z-matrix:
 Charge =  0 Multiplicity = 1

                         Standard orientation:
 ---------------------------------------------------------------------
 Center     Atomic      Atomic             Coordinates (Angstroms)
 Number     Number       Type             X           Y           Z
 ---------------------------------------------------------------------
      1         12           0        5.278403    0.859975    0.132163
      2          6           0        4.342470   -2.485504    0.140346
      3          6           0        1.981570    1.691184    0.135553
      4          6           0        6.177626    4.126981   -0.353636
      5          6           0        8.651096   -0.090606   -0.044238
      6          7           0        3.338610   -0.263923   -0.013471
      7          6           0        3.173444   -1.649677    0.080097
      8          6           0        1.668899   -2.001313    0.251886
      9          6           0        0.960490   -0.577693    0.038301
     10          6           0        2.155640    0.326672    0.054647
     11          6           0        0.073691   -0.312257   -1.160085
     12          6           0        1.372527   -2.671160    1.627797
     13          6           0        0.332305   -3.830164    1.579849
     14          6           0       -0.472388   -4.085802    0.390103
     15          8           0       -0.424310   -5.097706   -0.290437
     16          8           0       -1.376260   -3.090910    0.135531
     17          7           0        4.235314    2.735655   -0.050336
     18          6           0        2.896656    2.819337   -0.009274
     19          6           0        2.513724    4.192613   -0.175865
     20          6           0        3.684165    4.954799   -0.276249
     21          6           0        4.798121    3.992408   -0.301836
     22          6           0        1.028960    4.560353   -0.462805
     23          6           0        3.863420    6.463423   -0.310735
     24          8           0        4.898518    6.975069   -0.304663
     25          6           0        2.674997    7.417734   -0.183274
     26          7           0        7.136173    1.807471   -0.258621
     27          6           0        7.251377    3.199024   -0.329384
     28          6           0        8.758260    3.662633   -0.320403
     29          6           0        9.456730    2.306291    0.006984
     30          6           0        8.382236    1.257703   -0.080149
     31          6           0        9.198488    4.390819   -1.665218
     32          6           0       10.251765    2.409725    1.288118
     33          6           0        9.442647    2.158856    2.520072
     34          7           0        6.380779   -0.900275   -0.025093
     35          6           0        7.746876   -1.109754   -0.044169
     36          6           0        7.970410   -2.560216   -0.067464
     37          6           0        6.698193   -3.090058   -0.001257
     38          6           0        5.720244   -2.052763    0.097865
     39          6           0        9.220652   -3.211512   -0.127159
     40          6           0        5.973463   -4.298489    0.092455
     41          8           0        6.345616   -5.509089    0.058962
     42          6           0        4.407181   -3.985689    0.181995
     43          6           0        3.876719   -4.562709   -1.058701
     44          8           0        4.088964   -4.275352   -2.220456
     45          8           0        3.023436   -5.513330   -0.648305
     46          6           0        2.430562   -6.363726   -1.665278
     47          6           0       -2.517702   -3.445743   -0.725901
     48          6           0       -3.268810   -2.059248   -0.854378
     49          6           0       -4.595927   -1.792944   -0.814386
     50          6           0       -5.635131   -2.850973   -0.781855
     51          6           0       -5.025428   -0.294327   -0.611612
     52          6           0       -5.228036    0.259552    0.859511
     53          6           0       -6.463490    1.111859    1.193448
     54          6           0       -7.417712    0.382439    2.079397
     55          6           0       -7.061597    0.604232    3.534611
     56          6           0       -8.894697    0.676803    1.831489
     57          6           0       -9.495275   -0.070149    0.565239
     58          6           0      -10.877980   -0.802561    0.955734
     59          6           0      -12.116857    0.090369    1.214180
     60          6           0      -12.635598    0.017185    2.672384
     61          6           0      -13.248967   -0.264293    0.209633
     62          6           0      -13.216402    0.596526   -1.022276
     63          6           0      -14.507244    0.738606   -1.808247
     64          6           0      -15.195689    2.132431   -1.503429
     65          6           0      -16.749674    2.000169   -1.417690
     66          6           0      -14.932626    3.256080   -2.513408
     67          1           0        0.924288    1.962651    0.119539
     68          1           0        6.616831    5.124785   -0.411224
     69          1           0        9.666302   -0.415265   -0.279957
     70          1           0        1.426375   -2.682551   -0.563179
     71          1           0        0.328027   -0.330390    0.890659
     72          1           0        0.495071    0.455294   -1.809705
     73          1           0       -0.823012    0.131744   -0.728195
     74          1           0       -0.152211   -1.267710   -1.634100
     75          1           0        0.990199   -2.003506    2.398939
     76          1           0        2.353040   -3.010500    1.962289
     77          1           0       -0.375635   -3.761896    2.405469
     78          1           0        0.799732   -4.736588    1.964474
     79          1           0        0.477394    3.749650   -0.938555
     80          1           0        0.896174    5.392771   -1.154693
     81          1           0        0.516734    4.717009    0.486332
     82          1           0        2.056236    7.445962   -1.079862
     83          1           0        3.044515    8.433737   -0.042632
     84          1           0        2.027878    7.286462    0.684043
     85          1           0        8.914079    4.296025    0.552300
     86          1           0       10.190377    1.935416   -0.708211
     87          1           0        9.772164    3.664026   -2.240821
     88          1           0        9.834695    5.268817   -1.546724
     89          1           0        8.273074    4.736172   -2.123847
     90          1           0       10.717422    3.371991    1.496992
     91          1           0       11.102253    1.726798    1.268659
     92          1           0        9.665307    2.927701    3.259167
     93          1           0        9.599021    1.120803    2.813979
     94          1           0        8.381269    2.315686    2.328928
     95          1           0        8.963882   -4.264885   -0.237548
     96          1           0        9.774587   -2.963298    0.777891
     97          1           0        9.810524   -2.958017   -1.007762
     98          1           0        4.061648   -4.399148    1.129669
     99          1           0        2.302528   -7.329944   -1.176784
    100          1           0        3.081043   -6.545456   -2.520576
    101          1           0        1.515198   -6.028941   -2.154847
    102          1           0       -3.179720   -4.193581   -0.288615
    103          1           0       -2.095651   -3.843290   -1.648706
    104          1           0       -2.654997   -1.164903   -0.750035
    105          1           0       -6.609165   -2.499682   -1.122689
    106          1           0       -5.777034   -3.146054    0.257747
    107          1           0       -5.499310   -3.723707   -1.420350
    108          1           0       -5.991779   -0.127616   -1.087446
    109          1           0       -4.264004    0.313904   -1.100367
    110          1           0       -4.449789    1.016666    0.959486
    111          1           0       -4.987938   -0.502710    1.601332
    112          1           0       -7.018442    1.353877    0.287447
    113          1           0       -6.064322    2.060745    1.551875
    114          1           0       -7.262821   -0.684005    1.920406
    115          1           0       -7.381691   -0.266273    4.105983
    116          1           0       -7.446889    1.557456    3.897549
    117          1           0       -5.984483    0.726871    3.647813
    118          1           0       -9.003053    1.734439    1.591059
    119          1           0       -9.458606    0.542701    2.755146
    120          1           0       -8.772891   -0.766515    0.141506
    121          1           0       -9.620003    0.655724   -0.238313
    122          1           0      -10.707065   -1.493119    1.782038
    123          1           0      -11.039116   -1.456618    0.098738
    124          1           0      -11.875570    1.143099    1.072089
    125          1           0      -13.724476    0.038992    2.638662
    126          1           0      -12.215877    0.874561    3.199482
    127          1           0      -12.368681   -0.852289    3.271726
    128          1           0      -14.231573   -0.191972    0.676008
    129          1           0      -13.242416   -1.284637   -0.173468
    130          1           0      -12.579846    0.171375   -1.797815
    131          1           0      -12.691694    1.534955   -0.848458
    132          1           0      -15.110613   -0.139959   -1.580590
    133          1           0      -14.235450    0.680192   -2.862509
    134          1           0      -14.758668    2.549207   -0.596488
    135          1           0      -17.016940    2.316612   -0.409956
    136          1           0      -17.034058    0.954143   -1.529668
    137          1           0      -17.288548    2.582290   -2.166839
    138          1           0      -14.390475    2.829214   -3.356776
    139          1           0      -14.289208    4.056561   -2.149321
    140          1           0      -15.799060    3.731429   -2.974144
 ---------------------------------------------------------------------

 SCF Done:  E(RCAM-B3LYP) =  -3007.15827857     A.U. after   17 cycles

 Excitation energies and oscillator strengths:

 Excited State   1:      Singlet-A      1.6964 eV  730.86 nm  f=0.3778  <S**2>=0.000
     245 -> 248        0.18186
     246 -> 247        0.68501
     245 <- 248        0.10854
 This state for optimization and/or second-order correction.
 Total Energy, E(TD-HF/TD-DFT) =  -3007.09593684
 Copying the excited state density for this state as the 1-particle RhoCI density.

 Excited State   2:      Singlet-A      2.2055 eV  562.17 nm  f=0.0931  <S**2>=0.000
     245 -> 247        0.63458
     246 -> 248       -0.30224

 Excited State   3:      Singlet-A      3.3188 eV  373.58 nm  f=0.0014  <S**2>=0.000
     243 -> 247        0.56773
     243 -> 249       -0.36810
     243 -> 251       -0.13809

 Excited State   4:      Singlet-A      3.4311 eV  361.35 nm  f=0.2626  <S**2>=0.000
     242 -> 247        0.36235
     244 -> 247       -0.37871
     245 -> 247        0.18004
     246 -> 248        0.42241

 Excited State   5:      Singlet-A      3.4935 eV  354.90 nm  f=0.2593  <S**2>=0.000
     244 -> 247        0.54091
     245 -> 247        0.17402
     246 -> 248        0.40002

 The electronic state is 1-A.
 Alpha  occ. eigenvalues --  -46.89175 -19.25240 -19.24050 -19.20114 -19.19108
 Alpha  occ. eigenvalues --  -19.18566 -19.17918 -14.42244 -14.42059 -14.39445
 Alpha  occ. eigenvalues --  -14.39052 -10.39649 -10.37996 -10.34733 -10.34215
 Alpha  occ. eigenvalues --  -10.33315 -10.31927 -10.31162 -10.30418 -10.30216
 Alpha  occ. eigenvalues --  -10.30164 -10.29913 -10.29698 -10.29205 -10.29160
 Alpha  occ. eigenvalues --  -10.28994 -10.28359 -10.28314 -10.28268 -10.28148
 Alpha  occ. eigenvalues --  -10.27854 -10.27721 -10.27557 -10.27480 -10.27361
 Alpha  occ. eigenvalues --  -10.27185 -10.27111 -10.26890 -10.26825 -10.26639
 Alpha  occ. eigenvalues --  -10.26402 -10.26340 -10.26337 -10.26292 -10.26106
 Alpha  occ. eigenvalues --  -10.26068 -10.25911 -10.25892 -10.25841 -10.25799
 Alpha  occ. eigenvalues --  -10.25613 -10.25505 -10.25366 -10.25358 -10.25207
 Alpha  occ. eigenvalues --  -10.25158 -10.24975 -10.24951 -10.24725 -10.24644
 Alpha  occ. eigenvalues --  -10.24643 -10.24564 -10.24556 -10.24149 -10.24126
 Alpha  occ. eigenvalues --  -10.24108  -3.17561  -1.92470  -1.92007  -1.91859
 Alpha  occ. eigenvalues --   -1.16988  -1.16276  -1.14278  -1.08006  -1.07181
 Alpha  occ. eigenvalues --   -1.06559  -1.04249  -1.03533  -1.02937  -1.02060
 Alpha  occ. eigenvalues --   -0.92402  -0.90998  -0.90173  -0.89810  -0.89536
 Alpha  occ. eigenvalues --   -0.89170  -0.88392  -0.87942  -0.87765  -0.87377
 Alpha  occ. eigenvalues --   -0.86313  -0.85955  -0.84328  -0.83941  -0.83423
 Alpha  occ. eigenvalues --   -0.82747  -0.81948  -0.81149  -0.80784  -0.80465
 Alpha  occ. eigenvalues --   -0.79918  -0.78863  -0.78167  -0.77466  -0.76679
 Alpha  occ. eigenvalues --   -0.75517  -0.75298  -0.75055  -0.74961  -0.74548
 Alpha  occ. eigenvalues --   -0.73585  -0.72821  -0.71842  -0.71209  -0.69410
 Alpha  occ. eigenvalues --   -0.68781  -0.68584  -0.67491  -0.66918  -0.66074
 Alpha  occ. eigenvalues --   -0.66000  -0.64783  -0.64647  -0.64442  -0.64343
 Alpha  occ. eigenvalues --   -0.64039  -0.63643  -0.62989  -0.61788  -0.60482
 Alpha  occ. eigenvalues --   -0.59955  -0.59406  -0.58862  -0.58349  -0.58262
 Alpha  occ. eigenvalues --   -0.57077  -0.56854  -0.56521  -0.56160  -0.55256
 Alpha  occ. eigenvalues --   -0.55167  -0.55041  -0.54764  -0.54095  -0.54034
 Alpha  occ. eigenvalues --   -0.53939  -0.53611  -0.53315  -0.53103  -0.52989
 Alpha  occ. eigenvalues --   -0.52632  -0.52445  -0.52373  -0.52154  -0.51962
 Alpha  occ. eigenvalues --   -0.51757  -0.51673  -0.51316  -0.50920  -0.50764
 Alpha  occ. eigenvalues --   -0.50591  -0.50373  -0.50117  -0.50089  -0.49944
 Alpha  occ. eigenvalues --   -0.49523  -0.49439  -0.49384  -0.49060  -0.48960
 Alpha  occ. eigenvalues --   -0.48894  -0.48753  -0.48437  -0.48038  -0.47928
 Alpha  occ. eigenvalues --   -0.47661  -0.47142  -0.47099  -0.46994  -0.46644
 Alpha  occ. eigenvalues --   -0.46370  -0.46197  -0.46099  -0.45747  -0.45651
 Alpha  occ. eigenvalues --   -0.45485  -0.45372  -0.44994  -0.44894  -0.44576
 Alpha  occ. eigenvalues --   -0.44448  -0.44287  -0.43999  -0.43920  -0.43705
 Alpha  occ. eigenvalues --   -0.43603  -0.43580  -0.43453  -0.43187  -0.43148
 Alpha  occ. eigenvalues --   -0.43071  -0.42798  -0.42643  -0.42636  -0.42512
 Alpha  occ. eigenvalues --   -0.41797  -0.41605  -0.41497  -0.41373  -0.41106
 Alpha  occ. eigenvalues --   -0.40867  -0.40633  -0.40533  -0.40320  -0.40094
 Alpha  occ. eigenvalues --   -0.39822  -0.39674  -0.39296  -0.39249  -0.38712
 Alpha  occ. eigenvalues --   -0.38454  -0.38407  -0.38134  -0.37494  -0.37462
 Alpha  occ. eigenvalues --   -0.37310  -0.37218  -0.36924  -0.36671  -0.36656
 Alpha  occ. eigenvalues --   -0.36228  -0.35641  -0.35111  -0.34416  -0.34275
 Alpha  occ. eigenvalues --   -0.34077  -0.33767  -0.33064  -0.31393  -0.30994
 Alpha  occ. eigenvalues --   -0.30464  -0.30211  -0.29958  -0.29747  -0.23960
 Alpha  occ. eigenvalues --   -0.21009
 Alpha virt. eigenvalues --   -0.08573  -0.01894   0.00426   0.02247   0.02835
 Alpha virt. eigenvalues --    0.03527   0.04927   0.05827   0.06768   0.07066
 Alpha virt. eigenvalues --    0.07526   0.08215   0.08271   0.08835   0.09158

 Mulliken charges:
               1
     1  Mg   0.801955
     2  C   -0.056661
     3  C   -0.069239
     4  C   -0.040414
     5  C   -0.110749
     6  N   -0.271095
     7  C   -0.019764
     8  C   -0.017175
     9  C   -0.058849
    10  C    0.023554
    11  C    0.085412
    12  C    0.106429
    13  C    0.087120
    14  C    0.131773
    15  O   -0.223303
    16  O   -0.358394
    17  N   -0.355415
    18  C    0.124633
    19  C   -0.133332
    20  C   -0.025050
    21  C    0.135264
    22  C    0.099116
    23  C   -0.011759
    24  O   -0.127619
    25  C    0.018110
    26  N   -0.300618
    27  C   -0.014914
    28  C   -0.013513
    29  C    0.000529
    30  C    0.060653
    31  C    0.074927
    32  C    0.008555
    33  C    0.016680
    34  N   -0.351939
    35  C    0.111091
    36  C   -0.149230
    37  C    0.078176
    38  C    0.112776
    39  C    0.113370
    40  C   -0.020177
    41  O   -0.228035
    42  C    0.013158
    43  C    0.202706
    44  O   -0.213891
    45  O   -0.305350
    46  C    0.179606
    47  C    0.288504
    48  C   -0.081867
    49  C   -0.192718
    50  C    0.062824
    51  C    0.079023
    52  C    0.007204
    53  C    0.062633
    54  C   -0.125643
    55  C    0.056302
    56  C    0.049717
    57  C    0.000026
    58  C    0.063707
    59  C   -0.109051
    60  C    0.048429
    61  C    0.067576
    62  C   -0.022207
    63  C    0.075260
    64  C   -0.152623
    65  C    0.046297
    66  C    0.033166
    67  H   -0.049551
    68  H   -0.008123
    69  H   -0.018950
    70  H    0.035229
    71  H    0.013756
    72  H    0.026778
    73  H    0.023089
    74  H    0.027654
    75  H    0.013435
    76  H    0.011747
    77  H    0.017613
    78  H    0.020457
    79  H    0.020811
    80  H    0.022865
    81  H    0.022794
    82  H    0.029953
    83  H    0.016467
    84  H    0.028915
    85  H    0.015942
    86  H   -0.004734
    87  H    0.019373
    88  H    0.018359
    89  H    0.026635
    90  H    0.003793
    91  H   -0.005925
    92  H    0.008604
    93  H    0.021509
    94  H    0.011629
    95  H    0.037624
    96  H    0.031031
    97  H    0.025930
    98  H    0.042718
    99  H    0.031708
   100  H    0.027229
   101  H    0.038323
   102  H    0.028720
   103  H    0.040083
   104  H   -0.024124
   105  H    0.006895
   106  H    0.032548
   107  H    0.026179
   108  H   -0.006735
   109  H    0.010221
   110  H   -0.015561
   111  H    0.008563
   112  H   -0.015596
   113  H   -0.004526
   114  H   -0.011054
   115  H    0.011814
   116  H    0.003233
   117  H   -0.008688
   118  H   -0.012404
   119  H   -0.004996
   120  H   -0.007069
   121  H   -0.000588
   122  H   -0.003726
   123  H   -0.008476
   124  H    0.002149
   125  H    0.002297
   126  H    0.010649
   127  H    0.005675
   128  H   -0.015171
   129  H   -0.003430
   130  H   -0.020935
   131  H   -0.016039
   132  H   -0.005360
   133  H   -0.008252
   134  H    0.006091
   135  H    0.010437
   136  H   -0.000163
   137  H    0.012558
   138  H   -0.009719
   139  H    0.004882
   140  H    0.009267
 Sum of Mulliken charges =  -0.00000

 Dipole moment (field-independent basis, Debye):
    X=             -4.5894    Y=              3.7496    Z=              3.1016  Tot=              6.6889
 Quadrupole moment (field-independent basis, Debye-Ang):
   XX=           -381.8073   YY=           -440.6656   ZZ=           -406.7046
   XY=             27.2264   XZ=             13.4683   YZ=             -6.5129

 Normal termination of Gaussian 16 at Thu Apr 28 09:00:51 2022.
