 Gaussian 16, Revision A.03,
 Gaussian 16:  ES64L-G16RevA.03 25-Dec-2016

 ---------------------------------
 #p PBE1PBE/Def2SVP td=(nstates=5)
 ---------------------------------

 -----------------------------------------------------
 step_151_chromophore_18 TDDFT with PBE1PBE functional
 -----------------------------------------------------
 Symbolic Z-matrix:
 Charge =  0 Multiplicity = 1

                         Standard orientation:
 ---------------------------------------------------------------------
 Center     Atomic      Atomic             Coordinates (Angstroms)
 Number     Number       Type             X           Y           Z
 ---------------------------------------------------------------------
      1         12           0        5.278403    0.859975    0.132163
      2          6           0        4.342470   -2.485504    0.140346
      3          6           0        1.981570    1.691184    0.135553
      4          6           0        6.177626    4.126981   -0.353636
      5          6           0        8.651096   -0.090606   -0.044238
      6          7           0        3.338610   -0.263923   -0.013471
      7          6           0        3.173444   -1.649677    0.080097
      8          6           0        1.668899   -2.001313    0.251886
      9          6           0        0.960490   -0.577693    0.038301
     10          6           0        2.155640    0.326672    0.054647
     11          6           0        0.073691   -0.312257   -1.160085
     12          6           0        1.372527   -2.671160    1.627797
     13          6           0        0.332305   -3.830164    1.579849
     14          6           0       -0.472388   -4.085802    0.390103
     15          8           0       -0.424310   -5.097706   -0.290437
     16          8           0       -1.376260   -3.090910    0.135531
     17          7           0        4.235314    2.735655   -0.050336
     18          6           0        2.896656    2.819337   -0.009274
     19          6           0        2.513724    4.192613   -0.175865
     20          6           0        3.684165    4.954799   -0.276249
     21          6           0        4.798121    3.992408   -0.301836
     22          6           0        1.028960    4.560353   -0.462805
     23          6           0        3.863420    6.463423   -0.310735
     24          8           0        4.898518    6.975069   -0.304663
     25          6           0        2.674997    7.417734   -0.183274
     26          7           0        7.136173    1.807471   -0.258621
     27          6           0        7.251377    3.199024   -0.329384
     28          6           0        8.758260    3.662633   -0.320403
     29          6           0        9.456730    2.306291    0.006984
     30          6           0        8.382236    1.257703   -0.080149
     31          6           0        9.198488    4.390819   -1.665218
     32          6           0       10.251765    2.409725    1.288118
     33          6           0        9.442647    2.158856    2.520072
     34          7           0        6.380779   -0.900275   -0.025093
     35          6           0        7.746876   -1.109754   -0.044169
     36          6           0        7.970410   -2.560216   -0.067464
     37          6           0        6.698193   -3.090058   -0.001257
     38          6           0        5.720244   -2.052763    0.097865
     39          6           0        9.220652   -3.211512   -0.127159
     40          6           0        5.973463   -4.298489    0.092455
     41          8           0        6.345616   -5.509089    0.058962
     42          6           0        4.407181   -3.985689    0.181995
     43          6           0        3.876719   -4.562709   -1.058701
     44          8           0        4.088964   -4.275352   -2.220456
     45          8           0        3.023436   -5.513330   -0.648305
     46          6           0        2.430562   -6.363726   -1.665278
     47          6           0       -2.517702   -3.445743   -0.725901
     48          6           0       -3.268810   -2.059248   -0.854378
     49          6           0       -4.595927   -1.792944   -0.814386
     50          6           0       -5.635131   -2.850973   -0.781855
     51          6           0       -5.025428   -0.294327   -0.611612
     52          6           0       -5.228036    0.259552    0.859511
     53          6           0       -6.463490    1.111859    1.193448
     54          6           0       -7.417712    0.382439    2.079397
     55          6           0       -7.061597    0.604232    3.534611
     56          6           0       -8.894697    0.676803    1.831489
     57          6           0       -9.495275   -0.070149    0.565239
     58          6           0      -10.877980   -0.802561    0.955734
     59          6           0      -12.116857    0.090369    1.214180
     60          6           0      -12.635598    0.017185    2.672384
     61          6           0      -13.248967   -0.264293    0.209633
     62          6           0      -13.216402    0.596526   -1.022276
     63          6           0      -14.507244    0.738606   -1.808247
     64          6           0      -15.195689    2.132431   -1.503429
     65          6           0      -16.749674    2.000169   -1.417690
     66          6           0      -14.932626    3.256080   -2.513408
     67          1           0        0.924288    1.962651    0.119539
     68          1           0        6.616831    5.124785   -0.411224
     69          1           0        9.666302   -0.415265   -0.279957
     70          1           0        1.426375   -2.682551   -0.563179
     71          1           0        0.328027   -0.330390    0.890659
     72          1           0        0.495071    0.455294   -1.809705
     73          1           0       -0.823012    0.131744   -0.728195
     74          1           0       -0.152211   -1.267710   -1.634100
     75          1           0        0.990199   -2.003506    2.398939
     76          1           0        2.353040   -3.010500    1.962289
     77          1           0       -0.375635   -3.761896    2.405469
     78          1           0        0.799732   -4.736588    1.964474
     79          1           0        0.477394    3.749650   -0.938555
     80          1           0        0.896174    5.392771   -1.154693
     81          1           0        0.516734    4.717009    0.486332
     82          1           0        2.056236    7.445962   -1.079862
     83          1           0        3.044515    8.433737   -0.042632
     84          1           0        2.027878    7.286462    0.684043
     85          1           0        8.914079    4.296025    0.552300
     86          1           0       10.190377    1.935416   -0.708211
     87          1           0        9.772164    3.664026   -2.240821
     88          1           0        9.834695    5.268817   -1.546724
     89          1           0        8.273074    4.736172   -2.123847
     90          1           0       10.717422    3.371991    1.496992
     91          1           0       11.102253    1.726798    1.268659
     92          1           0        9.665307    2.927701    3.259167
     93          1           0        9.599021    1.120803    2.813979
     94          1           0        8.381269    2.315686    2.328928
     95          1           0        8.963882   -4.264885   -0.237548
     96          1           0        9.774587   -2.963298    0.777891
     97          1           0        9.810524   -2.958017   -1.007762
     98          1           0        4.061648   -4.399148    1.129669
     99          1           0        2.302528   -7.329944   -1.176784
    100          1           0        3.081043   -6.545456   -2.520576
    101          1           0        1.515198   -6.028941   -2.154847
    102          1           0       -3.179720   -4.193581   -0.288615
    103          1           0       -2.095651   -3.843290   -1.648706
    104          1           0       -2.654997   -1.164903   -0.750035
    105          1           0       -6.609165   -2.499682   -1.122689
    106          1           0       -5.777034   -3.146054    0.257747
    107          1           0       -5.499310   -3.723707   -1.420350
    108          1           0       -5.991779   -0.127616   -1.087446
    109          1           0       -4.264004    0.313904   -1.100367
    110          1           0       -4.449789    1.016666    0.959486
    111          1           0       -4.987938   -0.502710    1.601332
    112          1           0       -7.018442    1.353877    0.287447
    113          1           0       -6.064322    2.060745    1.551875
    114          1           0       -7.262821   -0.684005    1.920406
    115          1           0       -7.381691   -0.266273    4.105983
    116          1           0       -7.446889    1.557456    3.897549
    117          1           0       -5.984483    0.726871    3.647813
    118          1           0       -9.003053    1.734439    1.591059
    119          1           0       -9.458606    0.542701    2.755146
    120          1           0       -8.772891   -0.766515    0.141506
    121          1           0       -9.620003    0.655724   -0.238313
    122          1           0      -10.707065   -1.493119    1.782038
    123          1           0      -11.039116   -1.456618    0.098738
    124          1           0      -11.875570    1.143099    1.072089
    125          1           0      -13.724476    0.038992    2.638662
    126          1           0      -12.215877    0.874561    3.199482
    127          1           0      -12.368681   -0.852289    3.271726
    128          1           0      -14.231573   -0.191972    0.676008
    129          1           0      -13.242416   -1.284637   -0.173468
    130          1           0      -12.579846    0.171375   -1.797815
    131          1           0      -12.691694    1.534955   -0.848458
    132          1           0      -15.110613   -0.139959   -1.580590
    133          1           0      -14.235450    0.680192   -2.862509
    134          1           0      -14.758668    2.549207   -0.596488
    135          1           0      -17.016940    2.316612   -0.409956
    136          1           0      -17.034058    0.954143   -1.529668
    137          1           0      -17.288548    2.582290   -2.166839
    138          1           0      -14.390475    2.829214   -3.356776
    139          1           0      -14.289208    4.056561   -2.149321
    140          1           0      -15.799060    3.731429   -2.974144
 ---------------------------------------------------------------------

 SCF Done:  E(RPBE1PBE) =  -3005.34643258     A.U. after   15 cycles

 Excitation energies and oscillator strengths:

 Excited State   1:      Singlet-A      1.8554 eV  668.25 nm  f=0.3659  <S**2>=0.000
     245 -> 248       -0.17662
     246 -> 247        0.69214
     246 <- 247       -0.10721
 This state for optimization and/or second-order correction.
 Total Energy, E(TD-HF/TD-DFT) =  -3005.27824910
 Copying the excited state density for this state as the 1-particle RhoCI density.

 Excited State   2:      Singlet-A      2.2130 eV  560.25 nm  f=0.0942  <S**2>=0.000
     245 -> 247        0.64745
     246 -> 248        0.27541

 Excited State   3:      Singlet-A      2.8195 eV  439.73 nm  f=0.0002  <S**2>=0.000
     244 -> 247        0.67139
     244 -> 249       -0.20323

 Excited State   4:      Singlet-A      3.1144 eV  398.10 nm  f=0.0063  <S**2>=0.000
     242 -> 247        0.26037
     243 -> 247        0.63822

 Excited State   5:      Singlet-A      3.1743 eV  390.59 nm  f=0.0002  <S**2>=0.000
     240 -> 247        0.23733
     242 -> 247        0.59890
     243 -> 247       -0.23382

 The electronic state is 1-A.
 Alpha  occ. eigenvalues --  -46.92553 -19.25901 -19.24698 -19.20377 -19.19189
 Alpha  occ. eigenvalues --  -19.18795 -19.18234 -14.41697 -14.41652 -14.39071
 Alpha  occ. eigenvalues --  -14.38712 -10.36667 -10.34985 -10.31780 -10.31425
 Alpha  occ. eigenvalues --  -10.30717 -10.29698 -10.28948 -10.28228 -10.27855
 Alpha  occ. eigenvalues --  -10.27855 -10.27522 -10.27032 -10.26921 -10.26864
 Alpha  occ. eigenvalues --  -10.26772 -10.26303 -10.25994 -10.25935 -10.25912
 Alpha  occ. eigenvalues --  -10.25531 -10.25516 -10.25071 -10.25051 -10.25001
 Alpha  occ. eigenvalues --  -10.24735 -10.24729 -10.24585 -10.24413 -10.24191
 Alpha  occ. eigenvalues --  -10.24121 -10.24004 -10.23850 -10.23809 -10.23666
 Alpha  occ. eigenvalues --  -10.23560 -10.23486 -10.23482 -10.23428 -10.23383
 Alpha  occ. eigenvalues --  -10.23237 -10.23086 -10.22865 -10.22770 -10.22709
 Alpha  occ. eigenvalues --  -10.22595 -10.22531 -10.22520 -10.22393 -10.22200
 Alpha  occ. eigenvalues --  -10.22120 -10.21961 -10.21947 -10.21634 -10.21550
 Alpha  occ. eigenvalues --  -10.21521  -3.14525  -1.87375  -1.86891  -1.86744
 Alpha  occ. eigenvalues --   -1.11784  -1.11059  -1.08993  -1.02867  -1.01970
 Alpha  occ. eigenvalues --   -1.01325  -0.98888  -0.98208  -0.97562  -0.96676
 Alpha  occ. eigenvalues --   -0.86778  -0.85103  -0.84370  -0.83917  -0.83828
 Alpha  occ. eigenvalues --   -0.83339  -0.82733  -0.82258  -0.82090  -0.81481
 Alpha  occ. eigenvalues --   -0.80563  -0.80243  -0.78554  -0.78206  -0.77689
 Alpha  occ. eigenvalues --   -0.76916  -0.76247  -0.75424  -0.74991  -0.74616
 Alpha  occ. eigenvalues --   -0.74121  -0.73155  -0.72470  -0.71760  -0.70853
 Alpha  occ. eigenvalues --   -0.69871  -0.69423  -0.69392  -0.69050  -0.68726
 Alpha  occ. eigenvalues --   -0.67918  -0.67273  -0.66175  -0.65623  -0.63736
 Alpha  occ. eigenvalues --   -0.63176  -0.62861  -0.61930  -0.61155  -0.60510
 Alpha  occ. eigenvalues --   -0.60211  -0.59356  -0.59110  -0.59021  -0.58528
 Alpha  occ. eigenvalues --   -0.58462  -0.57789  -0.57191  -0.56356  -0.54900
 Alpha  occ. eigenvalues --   -0.54454  -0.53975  -0.53398  -0.53031  -0.52656
 Alpha  occ. eigenvalues --   -0.51623  -0.51391  -0.50921  -0.50759  -0.49802
 Alpha  occ. eigenvalues --   -0.49719  -0.49554  -0.49322  -0.48559  -0.48478
 Alpha  occ. eigenvalues --   -0.48459  -0.48063  -0.47891  -0.47627  -0.47506
 Alpha  occ. eigenvalues --   -0.47259  -0.46931  -0.46793  -0.46645  -0.46591
 Alpha  occ. eigenvalues --   -0.46242  -0.46203  -0.45891  -0.45476  -0.45352
 Alpha  occ. eigenvalues --   -0.45163  -0.44928  -0.44713  -0.44591  -0.44470
 Alpha  occ. eigenvalues --   -0.44112  -0.44041  -0.43981  -0.43639  -0.43576
 Alpha  occ. eigenvalues --   -0.43454  -0.43381  -0.43109  -0.42624  -0.42545
 Alpha  occ. eigenvalues --   -0.42299  -0.41821  -0.41747  -0.41658  -0.41296
 Alpha  occ. eigenvalues --   -0.41113  -0.40945  -0.40759  -0.40432  -0.40400
 Alpha  occ. eigenvalues --   -0.40232  -0.39933  -0.39684  -0.39645  -0.39277
 Alpha  occ. eigenvalues --   -0.39186  -0.39104  -0.38795  -0.38670  -0.38396
 Alpha  occ. eigenvalues --   -0.38366  -0.38312  -0.38210  -0.37969  -0.37942
 Alpha  occ. eigenvalues --   -0.37802  -0.37598  -0.37480  -0.37422  -0.37271
 Alpha  occ. eigenvalues --   -0.36641  -0.36425  -0.36339  -0.36210  -0.35856
 Alpha  occ. eigenvalues --   -0.35670  -0.35465  -0.35342  -0.35178  -0.34899
 Alpha  occ. eigenvalues --   -0.34606  -0.34568  -0.34186  -0.34069  -0.33495
 Alpha  occ. eigenvalues --   -0.33380  -0.33256  -0.32998  -0.32499  -0.32330
 Alpha  occ. eigenvalues --   -0.32171  -0.32128  -0.31741  -0.31679  -0.31522
 Alpha  occ. eigenvalues --   -0.31314  -0.30575  -0.30012  -0.29295  -0.29188
 Alpha  occ. eigenvalues --   -0.29142  -0.28786  -0.28447  -0.26966  -0.25895
 Alpha  occ. eigenvalues --   -0.25768  -0.25687  -0.25402  -0.24826  -0.20881
 Alpha  occ. eigenvalues --   -0.18674
 Alpha virt. eigenvalues --   -0.11060  -0.05370  -0.03797  -0.01610  -0.00997
 Alpha virt. eigenvalues --   -0.00564   0.00437   0.01587   0.02339   0.03431
 Alpha virt. eigenvalues --    0.03877   0.04381   0.04670   0.05142   0.05581

 Mulliken charges:
               1
     1  Mg   0.945530
     2  C   -0.072189
     3  C   -0.056624
     4  C   -0.046908
     5  C   -0.094756
     6  N   -0.373257
     7  C    0.056625
     8  C   -0.095602
     9  C   -0.121365
    10  C    0.054695
    11  C    0.024321
    12  C    0.054648
    13  C    0.022427
    14  C    0.190898
    15  O   -0.258424
    16  O   -0.386368
    17  N   -0.467630
    18  C    0.155019
    19  C   -0.160301
    20  C   -0.080756
    21  C    0.170553
    22  C    0.038346
    23  C    0.045636
    24  O   -0.166090
    25  C   -0.052776
    26  N   -0.402731
    27  C    0.018743
    28  C   -0.088621
    29  C   -0.074746
    30  C    0.096368
    31  C    0.017086
    32  C   -0.051287
    33  C   -0.057960
    34  N   -0.481439
    35  C    0.136449
    36  C   -0.170183
    37  C    0.021475
    38  C    0.173491
    39  C    0.057944
    40  C    0.071975
    41  O   -0.270124
    42  C   -0.101868
    43  C    0.301314
    44  O   -0.250460
    45  O   -0.339346
    46  C    0.125615
    47  C    0.249348
    48  C   -0.101992
    49  C   -0.235252
    50  C    0.001733
    51  C    0.015294
    52  C   -0.054601
    53  C    0.008936
    54  C   -0.217545
    55  C   -0.003584
    56  C   -0.002584
    57  C   -0.065728
    58  C    0.012780
    59  C   -0.198415
    60  C   -0.008141
    61  C    0.011801
    62  C   -0.081563
    63  C    0.019427
    64  C   -0.243957
    65  C   -0.015205
    66  C   -0.022980
    67  H   -0.015605
    68  H    0.023521
    69  H    0.010769
    70  H    0.075866
    71  H    0.050166
    72  H    0.055935
    73  H    0.047220
    74  H    0.057455
    75  H    0.043914
    76  H    0.046557
    77  H    0.049587
    78  H    0.051968
    79  H    0.046626
    80  H    0.050497
    81  H    0.051273
    82  H    0.055761
    83  H    0.044125
    84  H    0.054938
    85  H    0.053041
    86  H    0.033104
    87  H    0.046625
    88  H    0.045710
    89  H    0.054225
    90  H    0.037037
    91  H    0.026776
    92  H    0.036795
    93  H    0.049850
    94  H    0.043996
    95  H    0.066011
    96  H    0.058697
    97  H    0.053366
    98  H    0.078338
    99  H    0.053567
   100  H    0.048866
   101  H    0.060170
   102  H    0.054556
   103  H    0.065435
   104  H    0.013770
   105  H    0.034946
   106  H    0.059825
   107  H    0.052723
   108  H    0.026260
   109  H    0.041237
   110  H    0.018121
   111  H    0.039750
   112  H    0.018229
   113  H    0.027284
   114  H    0.029193
   115  H    0.039825
   116  H    0.031365
   117  H    0.020113
   118  H    0.020943
   119  H    0.028094
   120  H    0.026638
   121  H    0.031179
   122  H    0.028417
   123  H    0.024148
   124  H    0.039771
   125  H    0.029483
   126  H    0.037401
   127  H    0.032130
   128  H    0.017657
   129  H    0.028795
   130  H    0.012918
   131  H    0.015392
   132  H    0.025851
   133  H    0.023847
   134  H    0.043444
   135  H    0.038138
   136  H    0.027186
   137  H    0.038865
   138  H    0.017696
   139  H    0.031992
   140  H    0.035515
 Sum of Mulliken charges =  -0.00000

 Dipole moment (field-independent basis, Debye):
    X=             -4.5244    Y=              3.6712    Z=              3.1422  Tot=              6.6198
 Quadrupole moment (field-independent basis, Debye-Ang):
   XX=           -375.7738   YY=           -438.0149   ZZ=           -404.3828
   XY=             27.4680   XZ=             13.4335   YZ=             -6.4594

 Normal termination of Gaussian 16 at Thu Apr 28 09:19:54 2022.
