 Gaussian 16, Revision A.03,
 Gaussian 16:  ES64L-G16RevA.03 25-Dec-2016

 --------------------------------
 #p wB97XD/Def2SVP td=(nstates=5)
 --------------------------------

 ----------------------------------------------------
 step_151_chromophore_18 TDDFT with wB97XD functional
 ----------------------------------------------------
 Symbolic Z-matrix:
 Charge =  0 Multiplicity = 1

                         Standard orientation:
 ---------------------------------------------------------------------
 Center     Atomic      Atomic             Coordinates (Angstroms)
 Number     Number       Type             X           Y           Z
 ---------------------------------------------------------------------
      1         12           0        5.278403    0.859975    0.132163
      2          6           0        4.342470   -2.485504    0.140346
      3          6           0        1.981570    1.691184    0.135553
      4          6           0        6.177626    4.126981   -0.353636
      5          6           0        8.651096   -0.090606   -0.044238
      6          7           0        3.338610   -0.263923   -0.013471
      7          6           0        3.173444   -1.649677    0.080097
      8          6           0        1.668899   -2.001313    0.251886
      9          6           0        0.960490   -0.577693    0.038301
     10          6           0        2.155640    0.326672    0.054647
     11          6           0        0.073691   -0.312257   -1.160085
     12          6           0        1.372527   -2.671160    1.627797
     13          6           0        0.332305   -3.830164    1.579849
     14          6           0       -0.472388   -4.085802    0.390103
     15          8           0       -0.424310   -5.097706   -0.290437
     16          8           0       -1.376260   -3.090910    0.135531
     17          7           0        4.235314    2.735655   -0.050336
     18          6           0        2.896656    2.819337   -0.009274
     19          6           0        2.513724    4.192613   -0.175865
     20          6           0        3.684165    4.954799   -0.276249
     21          6           0        4.798121    3.992408   -0.301836
     22          6           0        1.028960    4.560353   -0.462805
     23          6           0        3.863420    6.463423   -0.310735
     24          8           0        4.898518    6.975069   -0.304663
     25          6           0        2.674997    7.417734   -0.183274
     26          7           0        7.136173    1.807471   -0.258621
     27          6           0        7.251377    3.199024   -0.329384
     28          6           0        8.758260    3.662633   -0.320403
     29          6           0        9.456730    2.306291    0.006984
     30          6           0        8.382236    1.257703   -0.080149
     31          6           0        9.198488    4.390819   -1.665218
     32          6           0       10.251765    2.409725    1.288118
     33          6           0        9.442647    2.158856    2.520072
     34          7           0        6.380779   -0.900275   -0.025093
     35          6           0        7.746876   -1.109754   -0.044169
     36          6           0        7.970410   -2.560216   -0.067464
     37          6           0        6.698193   -3.090058   -0.001257
     38          6           0        5.720244   -2.052763    0.097865
     39          6           0        9.220652   -3.211512   -0.127159
     40          6           0        5.973463   -4.298489    0.092455
     41          8           0        6.345616   -5.509089    0.058962
     42          6           0        4.407181   -3.985689    0.181995
     43          6           0        3.876719   -4.562709   -1.058701
     44          8           0        4.088964   -4.275352   -2.220456
     45          8           0        3.023436   -5.513330   -0.648305
     46          6           0        2.430562   -6.363726   -1.665278
     47          6           0       -2.517702   -3.445743   -0.725901
     48          6           0       -3.268810   -2.059248   -0.854378
     49          6           0       -4.595927   -1.792944   -0.814386
     50          6           0       -5.635131   -2.850973   -0.781855
     51          6           0       -5.025428   -0.294327   -0.611612
     52          6           0       -5.228036    0.259552    0.859511
     53          6           0       -6.463490    1.111859    1.193448
     54          6           0       -7.417712    0.382439    2.079397
     55          6           0       -7.061597    0.604232    3.534611
     56          6           0       -8.894697    0.676803    1.831489
     57          6           0       -9.495275   -0.070149    0.565239
     58          6           0      -10.877980   -0.802561    0.955734
     59          6           0      -12.116857    0.090369    1.214180
     60          6           0      -12.635598    0.017185    2.672384
     61          6           0      -13.248967   -0.264293    0.209633
     62          6           0      -13.216402    0.596526   -1.022276
     63          6           0      -14.507244    0.738606   -1.808247
     64          6           0      -15.195689    2.132431   -1.503429
     65          6           0      -16.749674    2.000169   -1.417690
     66          6           0      -14.932626    3.256080   -2.513408
     67          1           0        0.924288    1.962651    0.119539
     68          1           0        6.616831    5.124785   -0.411224
     69          1           0        9.666302   -0.415265   -0.279957
     70          1           0        1.426375   -2.682551   -0.563179
     71          1           0        0.328027   -0.330390    0.890659
     72          1           0        0.495071    0.455294   -1.809705
     73          1           0       -0.823012    0.131744   -0.728195
     74          1           0       -0.152211   -1.267710   -1.634100
     75          1           0        0.990199   -2.003506    2.398939
     76          1           0        2.353040   -3.010500    1.962289
     77          1           0       -0.375635   -3.761896    2.405469
     78          1           0        0.799732   -4.736588    1.964474
     79          1           0        0.477394    3.749650   -0.938555
     80          1           0        0.896174    5.392771   -1.154693
     81          1           0        0.516734    4.717009    0.486332
     82          1           0        2.056236    7.445962   -1.079862
     83          1           0        3.044515    8.433737   -0.042632
     84          1           0        2.027878    7.286462    0.684043
     85          1           0        8.914079    4.296025    0.552300
     86          1           0       10.190377    1.935416   -0.708211
     87          1           0        9.772164    3.664026   -2.240821
     88          1           0        9.834695    5.268817   -1.546724
     89          1           0        8.273074    4.736172   -2.123847
     90          1           0       10.717422    3.371991    1.496992
     91          1           0       11.102253    1.726798    1.268659
     92          1           0        9.665307    2.927701    3.259167
     93          1           0        9.599021    1.120803    2.813979
     94          1           0        8.381269    2.315686    2.328928
     95          1           0        8.963882   -4.264885   -0.237548
     96          1           0        9.774587   -2.963298    0.777891
     97          1           0        9.810524   -2.958017   -1.007762
     98          1           0        4.061648   -4.399148    1.129669
     99          1           0        2.302528   -7.329944   -1.176784
    100          1           0        3.081043   -6.545456   -2.520576
    101          1           0        1.515198   -6.028941   -2.154847
    102          1           0       -3.179720   -4.193581   -0.288615
    103          1           0       -2.095651   -3.843290   -1.648706
    104          1           0       -2.654997   -1.164903   -0.750035
    105          1           0       -6.609165   -2.499682   -1.122689
    106          1           0       -5.777034   -3.146054    0.257747
    107          1           0       -5.499310   -3.723707   -1.420350
    108          1           0       -5.991779   -0.127616   -1.087446
    109          1           0       -4.264004    0.313904   -1.100367
    110          1           0       -4.449789    1.016666    0.959486
    111          1           0       -4.987938   -0.502710    1.601332
    112          1           0       -7.018442    1.353877    0.287447
    113          1           0       -6.064322    2.060745    1.551875
    114          1           0       -7.262821   -0.684005    1.920406
    115          1           0       -7.381691   -0.266273    4.105983
    116          1           0       -7.446889    1.557456    3.897549
    117          1           0       -5.984483    0.726871    3.647813
    118          1           0       -9.003053    1.734439    1.591059
    119          1           0       -9.458606    0.542701    2.755146
    120          1           0       -8.772891   -0.766515    0.141506
    121          1           0       -9.620003    0.655724   -0.238313
    122          1           0      -10.707065   -1.493119    1.782038
    123          1           0      -11.039116   -1.456618    0.098738
    124          1           0      -11.875570    1.143099    1.072089
    125          1           0      -13.724476    0.038992    2.638662
    126          1           0      -12.215877    0.874561    3.199482
    127          1           0      -12.368681   -0.852289    3.271726
    128          1           0      -14.231573   -0.191972    0.676008
    129          1           0      -13.242416   -1.284637   -0.173468
    130          1           0      -12.579846    0.171375   -1.797815
    131          1           0      -12.691694    1.534955   -0.848458
    132          1           0      -15.110613   -0.139959   -1.580590
    133          1           0      -14.235450    0.680192   -2.862509
    134          1           0      -14.758668    2.549207   -0.596488
    135          1           0      -17.016940    2.316612   -0.409956
    136          1           0      -17.034058    0.954143   -1.529668
    137          1           0      -17.288548    2.582290   -2.166839
    138          1           0      -14.390475    2.829214   -3.356776
    139          1           0      -14.289208    4.056561   -2.149321
    140          1           0      -15.799060    3.731429   -2.974144
 ---------------------------------------------------------------------

 SCF Done:  E(RwB97XD) =  -3007.85775050     A.U. after   17 cycles

 Excitation energies and oscillator strengths:

 Excited State   1:      Singlet-A      1.6375 eV  757.15 nm  f=0.3762  <S**2>=0.000
     245 -> 248        0.18767
     246 -> 247        0.68279
     245 <- 248        0.11815
 This state for optimization and/or second-order correction.
 Total Energy, E(TD-HF/TD-DFT) =  -3007.79757343
 Copying the excited state density for this state as the 1-particle RhoCI density.

 Excited State   2:      Singlet-A      2.1501 eV  576.65 nm  f=0.0912  <S**2>=0.000
     245 -> 247        0.63327
     246 -> 248       -0.30359

 Excited State   3:      Singlet-A      3.3497 eV  370.13 nm  f=0.0018  <S**2>=0.000
     243 -> 247        0.43953
     243 -> 249       -0.30209
     243 -> 250        0.11780
     244 -> 247        0.33122
     244 -> 249       -0.24943

 Excited State   4:      Singlet-A      3.4497 eV  359.41 nm  f=0.3089  <S**2>=0.000
     242 -> 247        0.37416
     243 -> 247        0.18905
     244 -> 247       -0.26006
     245 -> 247        0.19074
     246 -> 248        0.45085

 Excited State   5:      Singlet-A      3.5117 eV  353.06 nm  f=0.2284  <S**2>=0.000
     243 -> 247       -0.35434
     244 -> 247        0.43423
     245 -> 247        0.16147
     246 -> 248        0.36983

 The electronic state is 1-A.
 Alpha  occ. eigenvalues --  -46.95501 -19.30457 -19.29250 -19.25016 -19.24070
 Alpha  occ. eigenvalues --  -19.23498 -19.22995 -14.46874 -14.46616 -14.44048
 Alpha  occ. eigenvalues --  -14.43618 -10.43436 -10.41810 -10.38653 -10.38256
 Alpha  occ. eigenvalues --  -10.37221 -10.35983 -10.35219 -10.34388 -10.34221
 Alpha  occ. eigenvalues --  -10.34207 -10.33955 -10.33423 -10.33272 -10.33167
 Alpha  occ. eigenvalues --  -10.32977 -10.32484 -10.32416 -10.32281 -10.32204
 Alpha  occ. eigenvalues --  -10.31880 -10.31752 -10.31573 -10.31433 -10.31394
 Alpha  occ. eigenvalues --  -10.31206 -10.31130 -10.30910 -10.30797 -10.30708
 Alpha  occ. eigenvalues --  -10.30390 -10.30386 -10.30348 -10.30124 -10.30095
 Alpha  occ. eigenvalues --  -10.29926 -10.29852 -10.29792 -10.29777 -10.29751
 Alpha  occ. eigenvalues --  -10.29516 -10.29453 -10.29225 -10.29213 -10.29161
 Alpha  occ. eigenvalues --  -10.29085 -10.28906 -10.28873 -10.28666 -10.28566
 Alpha  occ. eigenvalues --  -10.28525 -10.28392 -10.28385 -10.28002 -10.27963
 Alpha  occ. eigenvalues --  -10.27933  -3.21346  -1.94942  -1.94458  -1.94310
 Alpha  occ. eigenvalues --   -1.19144  -1.18440  -1.16472  -1.10187  -1.09359
 Alpha  occ. eigenvalues --   -1.08772  -1.06242  -1.05545  -1.04970  -1.04079
 Alpha  occ. eigenvalues --   -0.94372  -0.92772  -0.92001  -0.91575  -0.91391
 Alpha  occ. eigenvalues --   -0.90999  -0.90323  -0.89863  -0.89687  -0.89143
 Alpha  occ. eigenvalues --   -0.88256  -0.87875  -0.86192  -0.85832  -0.85305
 Alpha  occ. eigenvalues --   -0.84569  -0.83864  -0.83054  -0.82695  -0.82296
 Alpha  occ. eigenvalues --   -0.81835  -0.80777  -0.80106  -0.79376  -0.78530
 Alpha  occ. eigenvalues --   -0.77468  -0.77110  -0.76977  -0.76745  -0.76385
 Alpha  occ. eigenvalues --   -0.75510  -0.74803  -0.73765  -0.73171  -0.71305
 Alpha  occ. eigenvalues --   -0.70744  -0.70485  -0.69484  -0.68793  -0.68004
 Alpha  occ. eigenvalues --   -0.67858  -0.66790  -0.66578  -0.66434  -0.66146
 Alpha  occ. eigenvalues --   -0.65993  -0.65451  -0.64821  -0.63755  -0.62396
 Alpha  occ. eigenvalues --   -0.61946  -0.61385  -0.60832  -0.60346  -0.60193
 Alpha  occ. eigenvalues --   -0.59025  -0.58797  -0.58400  -0.58114  -0.57201
 Alpha  occ. eigenvalues --   -0.57135  -0.56970  -0.56704  -0.55957  -0.55927
 Alpha  occ. eigenvalues --   -0.55855  -0.55487  -0.55233  -0.54997  -0.54880
 Alpha  occ. eigenvalues --   -0.54566  -0.54336  -0.54280  -0.54069  -0.53872
 Alpha  occ. eigenvalues --   -0.53694  -0.53556  -0.53216  -0.52829  -0.52680
 Alpha  occ. eigenvalues --   -0.52485  -0.52255  -0.52030  -0.52008  -0.51844
 Alpha  occ. eigenvalues --   -0.51441  -0.51336  -0.51271  -0.50941  -0.50869
 Alpha  occ. eigenvalues --   -0.50754  -0.50651  -0.50360  -0.49924  -0.49864
 Alpha  occ. eigenvalues --   -0.49592  -0.49080  -0.49006  -0.48908  -0.48616
 Alpha  occ. eigenvalues --   -0.48281  -0.48118  -0.47971  -0.47619  -0.47554
 Alpha  occ. eigenvalues --   -0.47406  -0.47200  -0.46875  -0.46800  -0.46451
 Alpha  occ. eigenvalues --   -0.46344  -0.46231  -0.45971  -0.45866  -0.45586
 Alpha  occ. eigenvalues --   -0.45504  -0.45478  -0.45342  -0.45102  -0.45067
 Alpha  occ. eigenvalues --   -0.44944  -0.44709  -0.44569  -0.44535  -0.44413
 Alpha  occ. eigenvalues --   -0.43731  -0.43471  -0.43410  -0.43318  -0.42963
 Alpha  occ. eigenvalues --   -0.42780  -0.42522  -0.42429  -0.42223  -0.41962
 Alpha  occ. eigenvalues --   -0.41664  -0.41593  -0.41153  -0.41120  -0.40546
 Alpha  occ. eigenvalues --   -0.40343  -0.40266  -0.39992  -0.39479  -0.39337
 Alpha  occ. eigenvalues --   -0.39213  -0.39151  -0.38757  -0.38601  -0.38499
 Alpha  occ. eigenvalues --   -0.38247  -0.37645  -0.36954  -0.36302  -0.36112
 Alpha  occ. eigenvalues --   -0.36056  -0.35709  -0.35316  -0.33569  -0.32957
 Alpha  occ. eigenvalues --   -0.32510  -0.32391  -0.31925  -0.31916  -0.25880
 Alpha  occ. eigenvalues --   -0.22810
 Alpha virt. eigenvalues --   -0.06924   0.00023   0.02499   0.04897   0.05378
 Alpha virt. eigenvalues --    0.05797   0.07181   0.08278   0.09144   0.09896
 Alpha virt. eigenvalues --    0.10611   0.10891   0.11478   0.11902   0.12351

 Mulliken charges:
               1
     1  Mg   0.937024
     2  C   -0.074454
     3  C   -0.078104
     4  C   -0.056415
     5  C   -0.113412
     6  N   -0.342249
     7  C    0.026184
     8  C   -0.068029
     9  C   -0.101145
    10  C    0.049560
    11  C    0.036060
    12  C    0.066018
    13  C    0.032006
    14  C    0.180910
    15  O   -0.254316
    16  O   -0.384090
    17  N   -0.435965
    18  C    0.145308
    19  C   -0.150999
    20  C   -0.070800
    21  C    0.158633
    22  C    0.052084
    23  C    0.041354
    24  O   -0.161814
    25  C   -0.043992
    26  N   -0.370081
    27  C    0.006878
    28  C   -0.066000
    29  C   -0.045771
    30  C    0.081369
    31  C    0.029299
    32  C   -0.040337
    33  C   -0.038124
    34  N   -0.442119
    35  C    0.124269
    36  C   -0.158926
    37  C    0.026762
    38  C    0.152236
    39  C    0.063884
    40  C    0.053789
    41  O   -0.261106
    42  C   -0.060258
    43  C    0.274089
    44  O   -0.244628
    45  O   -0.336296
    46  C    0.139656
    47  C    0.261467
    48  C   -0.097470
    49  C   -0.222022
    50  C    0.010995
    51  C    0.038357
    52  C   -0.041692
    53  C    0.022247
    54  C   -0.181067
    55  C    0.006584
    56  C    0.010808
    57  C   -0.045995
    58  C    0.025851
    59  C   -0.170471
    60  C    0.004037
    61  C    0.028983
    62  C   -0.063913
    63  C    0.033451
    64  C   -0.216701
    65  C   -0.000209
    66  C   -0.011192
    67  H   -0.026033
    68  H    0.019180
    69  H    0.007280
    70  H    0.061012
    71  H    0.040120
    72  H    0.049802
    73  H    0.042130
    74  H    0.049475
    75  H    0.038595
    76  H    0.035077
    77  H    0.044333
    78  H    0.047917
    79  H    0.041557
    80  H    0.044857
    81  H    0.046812
    82  H    0.051305
    83  H    0.042536
    84  H    0.050924
    85  H    0.042093
    86  H    0.022148
    87  H    0.040808
    88  H    0.040830
    89  H    0.046714
    90  H    0.028637
    91  H    0.020003
    92  H    0.032378
    93  H    0.043756
    94  H    0.030695
    95  H    0.062332
    96  H    0.054422
    97  H    0.049274
    98  H    0.072605
    99  H    0.050410
   100  H    0.044607
   101  H    0.057072
   102  H    0.049732
   103  H    0.062072
   104  H   -0.004744
   105  H    0.029578
   106  H    0.054104
   107  H    0.048631
   108  H    0.015274
   109  H    0.034637
   110  H    0.010799
   111  H    0.030188
   112  H    0.007033
   113  H    0.020538
   114  H    0.012771
   115  H    0.034935
   116  H    0.024928
   117  H    0.013236
   118  H    0.011451
   119  H    0.017417
   120  H    0.016002
   121  H    0.022645
   122  H    0.019630
   123  H    0.015205
   124  H    0.026130
   125  H    0.023380
   126  H    0.031831
   127  H    0.026433
   128  H    0.006290
   129  H    0.020142
   130  H    0.004332
   131  H    0.004082
   132  H    0.017088
   133  H    0.015849
   134  H    0.031425
   135  H    0.032438
   136  H    0.020456
   137  H    0.032458
   138  H    0.010011
   139  H    0.026847
   140  H    0.029093
 Sum of Mulliken charges =  -0.00000

 Dipole moment (field-independent basis, Debye):
    X=             -4.6315    Y=              3.8214    Z=              3.1708  Tot=              6.7903
 Quadrupole moment (field-independent basis, Debye-Ang):
   XX=           -376.3795   YY=           -436.3774   ZZ=           -403.9421
   XY=             27.4638   XZ=             13.6279   YZ=             -6.5833

 Normal termination of Gaussian 16 at Thu Apr 28 09:44:29 2022.
