 Gaussian 16, Revision A.03,
 Gaussian 16:  ES64L-G16RevA.03 25-Dec-2016

 --------------------
 #p ZINDO=(nstates=5)
 --------------------

 -----------------------------
 step_151_chromophore_18 ZINDO
 -----------------------------
 Symbolic Z-matrix:
 Charge =  0 Multiplicity = 1

                         Standard orientation:
 ---------------------------------------------------------------------
 Center     Atomic      Atomic             Coordinates (Angstroms)
 Number     Number       Type             X           Y           Z
 ---------------------------------------------------------------------
      1         12           0        5.278403    0.859975    0.132163
      2          6           0        4.342470   -2.485504    0.140346
      3          6           0        1.981570    1.691184    0.135553
      4          6           0        6.177626    4.126981   -0.353636
      5          6           0        8.651096   -0.090606   -0.044238
      6          7           0        3.338610   -0.263923   -0.013471
      7          6           0        3.173444   -1.649677    0.080097
      8          6           0        1.668899   -2.001313    0.251886
      9          6           0        0.960490   -0.577693    0.038301
     10          6           0        2.155640    0.326672    0.054647
     11          6           0        0.073691   -0.312257   -1.160085
     12          6           0        1.372527   -2.671160    1.627797
     13          6           0        0.332305   -3.830164    1.579849
     14          6           0       -0.472388   -4.085802    0.390103
     15          8           0       -0.424310   -5.097706   -0.290437
     16          8           0       -1.376260   -3.090910    0.135531
     17          7           0        4.235314    2.735655   -0.050336
     18          6           0        2.896656    2.819337   -0.009274
     19          6           0        2.513724    4.192613   -0.175865
     20          6           0        3.684165    4.954799   -0.276249
     21          6           0        4.798121    3.992408   -0.301836
     22          6           0        1.028960    4.560353   -0.462805
     23          6           0        3.863420    6.463423   -0.310735
     24          8           0        4.898518    6.975069   -0.304663
     25          6           0        2.674997    7.417734   -0.183274
     26          7           0        7.136173    1.807471   -0.258621
     27          6           0        7.251377    3.199024   -0.329384
     28          6           0        8.758260    3.662633   -0.320403
     29          6           0        9.456730    2.306291    0.006984
     30          6           0        8.382236    1.257703   -0.080149
     31          6           0        9.198488    4.390819   -1.665218
     32          6           0       10.251765    2.409725    1.288118
     33          6           0        9.442647    2.158856    2.520072
     34          7           0        6.380779   -0.900275   -0.025093
     35          6           0        7.746876   -1.109754   -0.044169
     36          6           0        7.970410   -2.560216   -0.067464
     37          6           0        6.698193   -3.090058   -0.001257
     38          6           0        5.720244   -2.052763    0.097865
     39          6           0        9.220652   -3.211512   -0.127159
     40          6           0        5.973463   -4.298489    0.092455
     41          8           0        6.345616   -5.509089    0.058962
     42          6           0        4.407181   -3.985689    0.181995
     43          6           0        3.876719   -4.562709   -1.058701
     44          8           0        4.088964   -4.275352   -2.220456
     45          8           0        3.023436   -5.513330   -0.648305
     46          6           0        2.430562   -6.363726   -1.665278
     47          6           0       -2.517702   -3.445743   -0.725901
     48          6           0       -3.268810   -2.059248   -0.854378
     49          6           0       -4.595927   -1.792944   -0.814386
     50          6           0       -5.635131   -2.850973   -0.781855
     51          6           0       -5.025428   -0.294327   -0.611612
     52          6           0       -5.228036    0.259552    0.859511
     53          6           0       -6.463490    1.111859    1.193448
     54          6           0       -7.417712    0.382439    2.079397
     55          6           0       -7.061597    0.604232    3.534611
     56          6           0       -8.894697    0.676803    1.831489
     57          6           0       -9.495275   -0.070149    0.565239
     58          6           0      -10.877980   -0.802561    0.955734
     59          6           0      -12.116857    0.090369    1.214180
     60          6           0      -12.635598    0.017185    2.672384
     61          6           0      -13.248967   -0.264293    0.209633
     62          6           0      -13.216402    0.596526   -1.022276
     63          6           0      -14.507244    0.738606   -1.808247
     64          6           0      -15.195689    2.132431   -1.503429
     65          6           0      -16.749674    2.000169   -1.417690
     66          6           0      -14.932626    3.256080   -2.513408
     67          1           0        0.924288    1.962651    0.119539
     68          1           0        6.616831    5.124785   -0.411224
     69          1           0        9.666302   -0.415265   -0.279957
     70          1           0        1.426375   -2.682551   -0.563179
     71          1           0        0.328027   -0.330390    0.890659
     72          1           0        0.495071    0.455294   -1.809705
     73          1           0       -0.823012    0.131744   -0.728195
     74          1           0       -0.152211   -1.267710   -1.634100
     75          1           0        0.990199   -2.003506    2.398939
     76          1           0        2.353040   -3.010500    1.962289
     77          1           0       -0.375635   -3.761896    2.405469
     78          1           0        0.799732   -4.736588    1.964474
     79          1           0        0.477394    3.749650   -0.938555
     80          1           0        0.896174    5.392771   -1.154693
     81          1           0        0.516734    4.717009    0.486332
     82          1           0        2.056236    7.445962   -1.079862
     83          1           0        3.044515    8.433737   -0.042632
     84          1           0        2.027878    7.286462    0.684043
     85          1           0        8.914079    4.296025    0.552300
     86          1           0       10.190377    1.935416   -0.708211
     87          1           0        9.772164    3.664026   -2.240821
     88          1           0        9.834695    5.268817   -1.546724
     89          1           0        8.273074    4.736172   -2.123847
     90          1           0       10.717422    3.371991    1.496992
     91          1           0       11.102253    1.726798    1.268659
     92          1           0        9.665307    2.927701    3.259167
     93          1           0        9.599021    1.120803    2.813979
     94          1           0        8.381269    2.315686    2.328928
     95          1           0        8.963882   -4.264885   -0.237548
     96          1           0        9.774587   -2.963298    0.777891
     97          1           0        9.810524   -2.958017   -1.007762
     98          1           0        4.061648   -4.399148    1.129669
     99          1           0        2.302528   -7.329944   -1.176784
    100          1           0        3.081043   -6.545456   -2.520576
    101          1           0        1.515198   -6.028941   -2.154847
    102          1           0       -3.179720   -4.193581   -0.288615
    103          1           0       -2.095651   -3.843290   -1.648706
    104          1           0       -2.654997   -1.164903   -0.750035
    105          1           0       -6.609165   -2.499682   -1.122689
    106          1           0       -5.777034   -3.146054    0.257747
    107          1           0       -5.499310   -3.723707   -1.420350
    108          1           0       -5.991779   -0.127616   -1.087446
    109          1           0       -4.264004    0.313904   -1.100367
    110          1           0       -4.449789    1.016666    0.959486
    111          1           0       -4.987938   -0.502710    1.601332
    112          1           0       -7.018442    1.353877    0.287447
    113          1           0       -6.064322    2.060745    1.551875
    114          1           0       -7.262821   -0.684005    1.920406
    115          1           0       -7.381691   -0.266273    4.105983
    116          1           0       -7.446889    1.557456    3.897549
    117          1           0       -5.984483    0.726871    3.647813
    118          1           0       -9.003053    1.734439    1.591059
    119          1           0       -9.458606    0.542701    2.755146
    120          1           0       -8.772891   -0.766515    0.141506
    121          1           0       -9.620003    0.655724   -0.238313
    122          1           0      -10.707065   -1.493119    1.782038
    123          1           0      -11.039116   -1.456618    0.098738
    124          1           0      -11.875570    1.143099    1.072089
    125          1           0      -13.724476    0.038992    2.638662
    126          1           0      -12.215877    0.874561    3.199482
    127          1           0      -12.368681   -0.852289    3.271726
    128          1           0      -14.231573   -0.191972    0.676008
    129          1           0      -13.242416   -1.284637   -0.173468
    130          1           0      -12.579846    0.171375   -1.797815
    131          1           0      -12.691694    1.534955   -0.848458
    132          1           0      -15.110613   -0.139959   -1.580590
    133          1           0      -14.235450    0.680192   -2.862509
    134          1           0      -14.758668    2.549207   -0.596488
    135          1           0      -17.016940    2.316612   -0.409956
    136          1           0      -17.034058    0.954143   -1.529668
    137          1           0      -17.288548    2.582290   -2.166839
    138          1           0      -14.390475    2.829214   -3.356776
    139          1           0      -14.289208    4.056561   -2.149321
    140          1           0      -15.799060    3.731429   -2.974144
 ---------------------------------------------------------------------

 SCF Done:  E(RZINDO/S) =  -474.551727029     A.U. after   20 cycles

 Excitation energies and oscillator strengths:

 Excited State   1:      Singlet-A      1.2274 eV 1010.11 nm  f=0.6020  <S**2>=0.000
     175 ->178        -0.19455
     176 ->177         0.66203
 This state for optimization and/or second-order correction.
 Total Energy, E(CIS/TDA) =  -474.506619695
 Copying the excited state density for this state as the 1-particle RhoCI density.

 Excited State   2:      Singlet-A      1.9146 eV  647.58 nm  f=0.0235  <S**2>=0.000
     175 ->177         0.53729
     176 ->178         0.43674

 Excited State   3:      Singlet-A      2.8839 eV  429.92 nm  f=0.0008  <S**2>=0.000
     170 ->177        -0.34400
     170 ->178         0.12501
     170 ->179         0.44461
     170 ->180        -0.21712
     170 ->186         0.18835
     170 ->187        -0.11407
     170 ->201        -0.12397

 Excited State   4:      Singlet-A      2.9568 eV  419.32 nm  f=0.5550  <S**2>=0.000
     175 ->177        -0.29586
     176 ->178         0.41119
     176 ->179         0.44613

 Excited State   5:      Singlet-A      3.0188 eV  410.71 nm  f=0.5124  <S**2>=0.000
     168 ->177        -0.12000
     168 ->179        -0.11475
     168 ->180        -0.11001
     168 ->186        -0.10593
     169 ->180        -0.12336
     175 ->177         0.24855
     176 ->178        -0.28408
     176 ->179         0.42899

 The electronic state is 1-A.
 Alpha  occ. eigenvalues --   -1.84898  -1.80576  -1.80011  -1.74425  -1.73834
 Alpha  occ. eigenvalues --   -1.71083  -1.65798  -1.63669  -1.62216  -1.57568
 Alpha  occ. eigenvalues --   -1.53601  -1.51267  -1.48189  -1.46944  -1.46770
 Alpha  occ. eigenvalues --   -1.44735  -1.43618  -1.40339  -1.39820  -1.38610
 Alpha  occ. eigenvalues --   -1.35996  -1.35761  -1.33428  -1.31392  -1.28928
 Alpha  occ. eigenvalues --   -1.28865  -1.25382  -1.21279  -1.19922  -1.18003
 Alpha  occ. eigenvalues --   -1.17509  -1.16249  -1.15003  -1.14866  -1.14572
 Alpha  occ. eigenvalues --   -1.13406  -1.11232  -1.10562  -1.04951  -1.03501
 Alpha  occ. eigenvalues --   -1.02269  -1.00919  -0.98837  -0.97796  -0.96963
 Alpha  occ. eigenvalues --   -0.96066  -0.95149  -0.94531  -0.93890  -0.92685
 Alpha  occ. eigenvalues --   -0.92218  -0.90981  -0.90240  -0.88087  -0.87727
 Alpha  occ. eigenvalues --   -0.85693  -0.84997  -0.84128  -0.82209  -0.80527
 Alpha  occ. eigenvalues --   -0.79487  -0.78174  -0.76797  -0.76532  -0.76228
 Alpha  occ. eigenvalues --   -0.75852  -0.75305  -0.74698  -0.74365  -0.73664
 Alpha  occ. eigenvalues --   -0.72565  -0.72527  -0.72305  -0.71536  -0.70911
 Alpha  occ. eigenvalues --   -0.70550  -0.69759  -0.69413  -0.68769  -0.68466
 Alpha  occ. eigenvalues --   -0.68286  -0.66573  -0.66148  -0.65876  -0.65361
 Alpha  occ. eigenvalues --   -0.65243  -0.64616  -0.64417  -0.64257  -0.63787
 Alpha  occ. eigenvalues --   -0.63653  -0.63128  -0.62583  -0.62327  -0.61978
 Alpha  occ. eigenvalues --   -0.61773  -0.61634  -0.61347  -0.60761  -0.60333
 Alpha  occ. eigenvalues --   -0.60035  -0.59723  -0.59337  -0.59008  -0.58085
 Alpha  occ. eigenvalues --   -0.58030  -0.57752  -0.57292  -0.57160  -0.56397
 Alpha  occ. eigenvalues --   -0.55747  -0.55540  -0.55098  -0.54780  -0.54520
 Alpha  occ. eigenvalues --   -0.54206  -0.54035  -0.53613  -0.53158  -0.52797
 Alpha  occ. eigenvalues --   -0.52383  -0.52154  -0.51421  -0.51099  -0.50895
 Alpha  occ. eigenvalues --   -0.50432  -0.50282  -0.49845  -0.49813  -0.49368
 Alpha  occ. eigenvalues --   -0.49295  -0.49124  -0.48682  -0.48531  -0.48441
 Alpha  occ. eigenvalues --   -0.48122  -0.48000  -0.47934  -0.47591  -0.47533
 Alpha  occ. eigenvalues --   -0.47391  -0.47307  -0.47225  -0.47118  -0.46822
 Alpha  occ. eigenvalues --   -0.46515  -0.46063  -0.45844  -0.45535  -0.45360
 Alpha  occ. eigenvalues --   -0.44923  -0.44855  -0.44738  -0.44547  -0.43990
 Alpha  occ. eigenvalues --   -0.43869  -0.43613  -0.42898  -0.42742  -0.42653
 Alpha  occ. eigenvalues --   -0.41772  -0.41367  -0.40497  -0.39000  -0.38451
 Alpha  occ. eigenvalues --   -0.37571  -0.36612  -0.35065  -0.34637  -0.34294
 Alpha  occ. eigenvalues --   -0.33175  -0.32956  -0.32607  -0.32275  -0.26511
 Alpha  occ. eigenvalues --   -0.21475
 Alpha virt. eigenvalues --   -0.08287  -0.02120  -0.00471   0.01775   0.01842
 Alpha virt. eigenvalues --    0.02115   0.03183   0.03805   0.04029   0.05163
 Alpha virt. eigenvalues --    0.06431   0.07139   0.07374   0.07600   0.08636

 Mulliken charges:
               1
     1  Mg   0.429514
     2  C   -0.055119
     3  C   -0.117116
     4  C   -0.036316
     5  C   -0.051271
     6  N   -0.296098
     7  C    0.113108
     8  C    0.011447
     9  C    0.002946
    10  C    0.163344
    11  C   -0.045257
    12  C   -0.015855
    13  C    0.002019
    14  C    0.485532
    15  O   -0.522196
    16  O   -0.282172
    17  N   -0.322637
    18  C    0.127913
    19  C   -0.003971
    20  C   -0.030797
    21  C    0.112139
    22  C   -0.046810
    23  C    0.334913
    24  O   -0.486281
    25  C   -0.036504
    26  N   -0.265423
    27  C    0.107056
    28  C   -0.000276
    29  C    0.011136
    30  C    0.127398
    31  C   -0.053263
    32  C   -0.023728
    33  C   -0.055221
    34  N   -0.315367
    35  C    0.078995
    36  C    0.063432
    37  C   -0.047015
    38  C    0.119955
    39  C   -0.030814
    40  C    0.320739
    41  O   -0.554193
    42  C    0.057254
    43  C    0.508168
    44  O   -0.532269
    45  O   -0.262047
    46  C    0.072036
    47  C    0.107718
    48  C   -0.102706
    49  C   -0.000815
    50  C   -0.037931
    51  C   -0.024137
    52  C   -0.037899
    53  C   -0.020872
    54  C   -0.001293
    55  C   -0.056115
    56  C   -0.037095
    57  C   -0.044824
    58  C   -0.034134
    59  C   -0.003363
    60  C   -0.061349
    61  C   -0.027736
    62  C   -0.038481
    63  C   -0.030957
    64  C   -0.012782
    65  C   -0.060613
    66  C   -0.058682
    67  H    0.012745
    68  H    0.034400
    69  H    0.025601
    70  H    0.046895
    71  H    0.026868
    72  H    0.031246
    73  H    0.017471
    74  H    0.032268
    75  H    0.027737
    76  H    0.028513
    77  H    0.033159
    78  H    0.034024
    79  H    0.023388
    80  H    0.025252
    81  H    0.028906
    82  H    0.032511
    83  H    0.027985
    84  H    0.030457
    85  H    0.035493
    86  H    0.021580
    87  H    0.025488
    88  H    0.023456
    89  H    0.031384
    90  H    0.017345
    91  H    0.009322
    92  H    0.017510
    93  H    0.024293
    94  H    0.018683
    95  H    0.035913
    96  H    0.037551
    97  H    0.033127
    98  H    0.058934
    99  H    0.029906
   100  H    0.040254
   101  H    0.049007
   102  H    0.049859
   103  H    0.058509
   104  H    0.031233
   105  H    0.013367
   106  H    0.031706
   107  H    0.028014
   108  H    0.019423
   109  H    0.024898
   110  H    0.004807
   111  H    0.027230
   112  H    0.011905
   113  H    0.022453
   114  H    0.015584
   115  H    0.018792
   116  H    0.019520
   117  H    0.008901
   118  H    0.011428
   119  H    0.022325
   120  H    0.019634
   121  H    0.019683
   122  H    0.021270
   123  H    0.009934
   124  H    0.025365
   125  H    0.019778
   126  H    0.015034
   127  H    0.020336
   128  H    0.015077
   129  H    0.019232
   130  H    0.003441
   131  H    0.018096
   132  H    0.023858
   133  H    0.017699
   134  H    0.024205
   135  H    0.015890
   136  H    0.015777
   137  H    0.025978
   138  H    0.008693
   139  H    0.014170
   140  H    0.021259
 Sum of Mulliken charges =  -0.00000

 Dipole moment (field-independent basis, Debye):
    X=             -5.5843    Y=              5.2023    Z=              5.2422  Tot=              9.2590
 N-N= 4.347567145785D+03 E-N= 0.000000000000D+00  KE=-9.369713716721D+03
 Leave Link  601 at Thu Apr 28 09:57:08 2022, MaxMem=  6710886400 cpu:               0.9 elap:               0.1
 (Enter /sw/apps/gaussian-16.0/g16/l9999.exe)
 1\1\GINC-BP1-COMPUTE140\SP\RZINDO CIS\STO-3G\C55H74Mg1N4O6\OF15641\28-
 Apr-2022\0\\#p ZINDO=(nstates=5)\\step_151_chromophore_18 ZINDO\\0,1\M
 g,0,34.907,49.056,25.424\C,0,34.921,47.393,28.474\C,0,33.78,51.827,27.
 04\C,0,34.438,50.55,22.38\C,0,35.906,46.102,23.816\N,0,34.252,49.539,2
 7.518\C,0,34.414,48.728,28.646\C,0,34.127,49.542,29.939\C,0,33.569,50.
 927,29.352\C,0,33.884,50.753,27.897\C,0,32.131,51.35,29.567\C,0,35.391
 ,49.684,30.84\C,0,35.119,49.571,32.37\C,0,33.763,49.585,32.908\O,0,33.

 Normal termination of Gaussian 16 at Thu Apr 28 09:57:08 2022.
