 Gaussian 16, Revision A.03,
 Gaussian 16:  ES64L-G16RevA.03 25-Dec-2016

 ------------------------------
 #p blyp/Def2SVP td=(nstates=5)
 ------------------------------

 --------------------------------------------------
 step_201_chromophore_24 TDDFT with blyp functional
 --------------------------------------------------
 Symbolic Z-matrix:
 Charge =  0 Multiplicity = 1

                         Standard orientation:
 ---------------------------------------------------------------------
 Center     Atomic      Atomic             Coordinates (Angstroms)
 Number     Number       Type             X           Y           Z
 ---------------------------------------------------------------------
      1         12           0        5.341192    1.099233    0.184991
      2          6           0        4.451758   -2.280256    0.555361
      3          6           0        2.011228    1.816270   -0.503875
      4          6           0        6.205593    4.203915   -0.086405
      5          6           0        8.720833   -0.012812    0.255843
      6          7           0        3.401029   -0.124028    0.040825
      7          6           0        3.284880   -1.436967    0.357327
      8          6           0        1.828099   -1.941821    0.204053
      9          6           0        1.130143   -0.620997   -0.373524
     10          6           0        2.244738    0.483180   -0.207327
     11          6           0        0.527310   -0.731204   -1.781649
     12          6           0        1.209335   -2.386797    1.500835
     13          6           0       -0.118872   -3.200378    1.397681
     14          6           0       -0.648729   -3.573045    0.046391
     15          8           0       -0.311426   -4.527737   -0.675882
     16          8           0       -1.601246   -2.676685   -0.410792
     17          7           0        4.227406    2.841000   -0.119127
     18          6           0        2.904410    2.866669   -0.422287
     19          6           0        2.597709    4.281273   -0.525502
     20          6           0        3.799640    5.018027   -0.448897
     21          6           0        4.824039    4.072848   -0.159195
     22          6           0        1.263428    4.772435   -0.848106
     23          6           0        4.095881    6.519784   -0.617396
     24          8           0        5.140231    7.064674   -0.354981
     25          6           0        2.993984    7.418914   -1.197656
     26          7           0        7.205349    1.889163    0.069612
     27          6           0        7.245201    3.257322   -0.002206
     28          6           0        8.752051    3.666646   -0.323120
     29          6           0        9.462741    2.399500    0.058103
     30          6           0        8.468342    1.317780    0.168857
     31          6           0        8.901343    4.142677   -1.896131
     32          6           0       10.372667    2.571305    1.364529
     33          6           0        9.653259    2.275871    2.675671
     34          7           0        6.467235   -0.737831    0.249279
     35          6           0        7.780834   -1.055829    0.315491
     36          6           0        8.004642   -2.367209    0.539689
     37          6           0        6.720202   -2.960542    0.618966
     38          6           0        5.784025   -1.924400    0.430893
     39          6           0        9.375029   -3.071266    0.695876
     40          6           0        5.970200   -4.172371    0.867167
     41          8           0        6.385650   -5.250359    1.074775
     42          6           0        4.451258   -3.808734    0.830519
     43          6           0        3.789308   -4.649192   -0.286939
     44          8           0        4.142759   -4.682346   -1.481914
     45          8           0        2.983336   -5.550763    0.280883
     46          6           0        2.554690   -6.588925   -0.626507
     47          6           0       -2.323717   -3.141593   -1.651037
     48          6           0       -3.831982   -2.851931   -1.507611
     49          6           0       -4.778564   -3.712790   -1.102166
     50          6           0       -4.553816   -5.038509   -0.395239
     51          6           0       -6.256473   -3.345174   -1.220524
     52          6           0       -6.752829   -2.234706   -0.156705
     53          6           0       -7.554790   -1.092032   -0.975976
     54          6           0       -8.764738   -0.591543   -0.128518
     55          6           0       -8.346175    0.041797    1.266323
     56          6           0       -9.537354    0.349461   -1.108436
     57          6           0      -11.034510    0.288489   -1.028203
     58          6           0      -11.767920    1.547382   -1.446866
     59          6           0      -13.330827    1.378174   -1.184656
     60          6           0      -14.066184    0.981861   -2.511449
     61          6           0      -13.930778    2.708991   -0.595545
     62          6           0      -14.405871    2.606769    0.856805
     63          6           0      -13.221645    2.924588    1.823423
     64          6           0      -12.948421    1.789360    2.825460
     65          6           0      -12.924280    2.253075    4.285317
     66          6           0      -11.726428    0.931525    2.415971
     67          1           0        1.044651    2.215524   -0.818249
     68          1           0        6.572539    5.231241   -0.141315
     69          1           0        9.754122   -0.330037    0.408470
     70          1           0        1.822157   -2.696288   -0.582396
     71          1           0        0.292799   -0.290828    0.241421
     72          1           0        0.789160    0.151912   -2.363872
     73          1           0       -0.551845   -0.660801   -1.647360
     74          1           0        0.677956   -1.724612   -2.204706
     75          1           0        1.075831   -1.503172    2.123508
     76          1           0        2.005576   -2.921515    2.018630
     77          1           0       -0.789977   -2.687381    2.087047
     78          1           0        0.056706   -4.172234    1.859624
     79          1           0        0.441577    4.171872   -0.458791
     80          1           0        1.220880    4.951779   -1.921988
     81          1           0        1.203658    5.779613   -0.433765
     82          1           0        2.486816    6.845158   -1.973188
     83          1           0        3.580605    8.259319   -1.569762
     84          1           0        2.205113    7.746634   -0.521308
     85          1           0        9.019021    4.584413    0.201752
     86          1           0       10.029375    2.188377   -0.848882
     87          1           0        7.929482    4.215090   -2.384995
     88          1           0        9.383468    3.430345   -2.565154
     89          1           0        9.246890    5.174231   -1.954533
     90          1           0       10.725230    3.600406    1.296241
     91          1           0       11.258598    1.935820    1.362301
     92          1           0        8.630210    1.953335    2.482732
     93          1           0        9.566231    3.260184    3.134296
     94          1           0       10.323175    1.618166    3.229312
     95          1           0        9.913928   -2.900444   -0.236664
     96          1           0        9.267922   -4.147950    0.826662
     97          1           0        9.940836   -2.729190    1.562318
     98          1           0        3.970727   -3.970274    1.795198
     99          1           0        1.906455   -7.220474   -0.020733
    100          1           0        3.428611   -7.197681   -0.859020
    101          1           0        2.073742   -6.145285   -1.497834
    102          1           0       -2.244030   -4.210636   -1.845341
    103          1           0       -1.896493   -2.629833   -2.513790
    104          1           0       -4.315258   -1.994026   -1.974541
    105          1           0       -3.500902   -5.314272   -0.332732
    106          1           0       -4.994469   -5.889280   -0.914950
    107          1           0       -5.063675   -4.975706    0.566690
    108          1           0       -6.928028   -4.203585   -1.230710
    109          1           0       -6.245122   -2.880187   -2.206578
    110          1           0       -5.959984   -1.619133    0.269254
    111          1           0       -7.308835   -2.556759    0.723849
    112          1           0       -7.939465   -1.475643   -1.920827
    113          1           0       -6.951242   -0.221960   -1.236018
    114          1           0       -9.253812   -1.524241    0.149711
    115          1           0       -7.260077    0.095017    1.342351
    116          1           0       -8.732118   -0.505557    2.126240
    117          1           0       -8.788810    1.037414    1.276813
    118          1           0       -9.351993    0.086821   -2.150314
    119          1           0       -9.163727    1.367599   -0.999453
    120          1           0      -11.348451    0.030785   -0.016417
    121          1           0      -11.279973   -0.563236   -1.661615
    122          1           0      -11.595295    1.678760   -2.514844
    123          1           0      -11.302519    2.301470   -0.811566
    124          1           0      -13.497722    0.518894   -0.534592
    125          1           0      -13.643091    1.294524   -3.465181
    126          1           0      -15.067039    1.405658   -2.429012
    127          1           0      -14.273578   -0.088284   -2.474694
    128          1           0      -14.796444    2.941716   -1.216321
    129          1           0      -13.364184    3.626346   -0.759125
    130          1           0      -15.055533    1.751835    1.045472
    131          1           0      -15.079029    3.448750    1.024626
    132          1           0      -13.614631    3.718237    2.458757
    133          1           0      -12.256208    3.119550    1.355069
    134          1           0      -13.829828    1.163824    2.681087
    135          1           0      -13.871540    1.986113    4.754397
    136          1           0      -12.806486    3.325000    4.442450
    137          1           0      -12.111320    1.769002    4.827290
    138          1           0      -11.071376    0.673754    3.247299
    139          1           0      -11.086157    1.453589    1.705184
    140          1           0      -12.093030   -0.009981    2.005005
 ---------------------------------------------------------------------

 SCF Done:  E(RB-LYP) =  -3007.35586101     A.U. after   22 cycles

 Excitation energies and oscillator strengths:

 Excited State   1:      Singlet-A      1.8851 eV  657.71 nm  f=0.3087  <S**2>=0.000
     245 -> 248       -0.20324
     246 -> 247        0.68268
     246 <- 247       -0.14088
 This state for optimization and/or second-order correction.
 Total Energy, E(TD-HF/TD-DFT) =  -3007.28658529
 Copying the excited state density for this state as the 1-particle RhoCI density.

 Excited State   2:      Singlet-A      1.9421 eV  638.41 nm  f=0.0045  <S**2>=0.000
     244 -> 247        0.70261

 Excited State   3:      Singlet-A      2.0525 eV  604.05 nm  f=0.0711  <S**2>=0.000
     245 -> 247        0.64589
     246 -> 248        0.24823

 Excited State   4:      Singlet-A      2.1411 eV  579.08 nm  f=0.0004  <S**2>=0.000
     243 -> 247        0.70549

 Excited State   5:      Singlet-A      2.4434 eV  507.43 nm  f=0.0034  <S**2>=0.000
     242 -> 247        0.68912

 The electronic state is 1-A.
 Alpha  occ. eigenvalues --  -46.26620 -18.82403 -18.81946 -18.77561 -18.76230
 Alpha  occ. eigenvalues --  -18.75712 -18.75223 -14.03476 -14.02501 -14.00436
 Alpha  occ. eigenvalues --  -13.99546 -10.05008 -10.03318 -10.00242  -9.98774
 Alpha  occ. eigenvalues --   -9.98367  -9.96858  -9.96513  -9.96368  -9.96367
 Alpha  occ. eigenvalues --   -9.95553  -9.95233  -9.95074  -9.94409  -9.93974
 Alpha  occ. eigenvalues --   -9.93916  -9.93876  -9.93784  -9.93762  -9.93687
 Alpha  occ. eigenvalues --   -9.93576  -9.93568  -9.93559  -9.93388  -9.93060
 Alpha  occ. eigenvalues --   -9.92899  -9.92888  -9.92684  -9.92657  -9.92445
 Alpha  occ. eigenvalues --   -9.92420  -9.92314  -9.92309  -9.92258  -9.92211
 Alpha  occ. eigenvalues --   -9.92104  -9.92019  -9.91996  -9.91939  -9.91825
 Alpha  occ. eigenvalues --   -9.91739  -9.91622  -9.91602  -9.91499  -9.91436
 Alpha  occ. eigenvalues --   -9.91292  -9.91192  -9.91085  -9.90947  -9.90848
 Alpha  occ. eigenvalues --   -9.90842  -9.90840  -9.90800  -9.90716  -9.90190
 Alpha  occ. eigenvalues --   -9.90127  -2.91230  -1.71673  -1.71136  -1.70904
 Alpha  occ. eigenvalues --   -0.98246  -0.97336  -0.93498  -0.92902  -0.88973
 Alpha  occ. eigenvalues --   -0.88186  -0.86613  -0.85791  -0.85664  -0.84628
 Alpha  occ. eigenvalues --   -0.75082  -0.73654  -0.73241  -0.72935  -0.72379
 Alpha  occ. eigenvalues --   -0.72085  -0.71400  -0.70792  -0.70547  -0.70291
 Alpha  occ. eigenvalues --   -0.69302  -0.68896  -0.67994  -0.67209  -0.66774
 Alpha  occ. eigenvalues --   -0.66184  -0.65695  -0.65147  -0.65029  -0.64473
 Alpha  occ. eigenvalues --   -0.63861  -0.62821  -0.62369  -0.61568  -0.60677
 Alpha  occ. eigenvalues --   -0.60402  -0.60236  -0.59788  -0.59673  -0.59054
 Alpha  occ. eigenvalues --   -0.58162  -0.57663  -0.56700  -0.56096  -0.54415
 Alpha  occ. eigenvalues --   -0.53914  -0.53756  -0.52657  -0.52557  -0.51413
 Alpha  occ. eigenvalues --   -0.50850  -0.50547  -0.50097  -0.50090  -0.49846
 Alpha  occ. eigenvalues --   -0.49440  -0.49186  -0.48786  -0.48032  -0.46522
 Alpha  occ. eigenvalues --   -0.46054  -0.45751  -0.45341  -0.44998  -0.44238
 Alpha  occ. eigenvalues --   -0.43856  -0.43744  -0.43011  -0.42836  -0.42523
 Alpha  occ. eigenvalues --   -0.42377  -0.42278  -0.41910  -0.41610  -0.41271
 Alpha  occ. eigenvalues --   -0.40881  -0.40674  -0.40244  -0.40138  -0.39971
 Alpha  occ. eigenvalues --   -0.39932  -0.39878  -0.39719  -0.39237  -0.39128
 Alpha  occ. eigenvalues --   -0.39037  -0.38934  -0.38723  -0.38292  -0.38212
 Alpha  occ. eigenvalues --   -0.37808  -0.37759  -0.37626  -0.37378  -0.36966
 Alpha  occ. eigenvalues --   -0.36847  -0.36677  -0.36521  -0.36402  -0.36185
 Alpha  occ. eigenvalues --   -0.36120  -0.35839  -0.35777  -0.35635  -0.35568
 Alpha  occ. eigenvalues --   -0.35375  -0.35096  -0.35041  -0.34575  -0.34515
 Alpha  occ. eigenvalues --   -0.34476  -0.34199  -0.34118  -0.33955  -0.33800
 Alpha  occ. eigenvalues --   -0.33399  -0.33348  -0.33254  -0.33016  -0.32901
 Alpha  occ. eigenvalues --   -0.32789  -0.32722  -0.32625  -0.32510  -0.32337
 Alpha  occ. eigenvalues --   -0.32177  -0.32042  -0.31885  -0.31834  -0.31628
 Alpha  occ. eigenvalues --   -0.31570  -0.31177  -0.31083  -0.30863  -0.30736
 Alpha  occ. eigenvalues --   -0.30343  -0.30319  -0.30305  -0.30211  -0.29858
 Alpha  occ. eigenvalues --   -0.29389  -0.29171  -0.29111  -0.28948  -0.28771
 Alpha  occ. eigenvalues --   -0.28414  -0.28291  -0.28202  -0.28019  -0.27456
 Alpha  occ. eigenvalues --   -0.27364  -0.27220  -0.26950  -0.26482  -0.26428
 Alpha  occ. eigenvalues --   -0.26257  -0.25815  -0.25698  -0.25424  -0.25012
 Alpha  occ. eigenvalues --   -0.24659  -0.24524  -0.24456  -0.24116  -0.23076
 Alpha  occ. eigenvalues --   -0.22708  -0.22415  -0.22123  -0.20914  -0.20817
 Alpha  occ. eigenvalues --   -0.20495  -0.19769  -0.19155  -0.18405  -0.17270
 Alpha  occ. eigenvalues --   -0.15925
 Alpha virt. eigenvalues --   -0.11368  -0.06751  -0.05897  -0.04542  -0.03869
 Alpha virt. eigenvalues --   -0.03033  -0.02209  -0.01459  -0.01143   0.00364
 Alpha virt. eigenvalues --    0.01505   0.01768   0.02292   0.02567   0.02736

 Mulliken charges:
               1
     1  Mg   0.663754
     2  C   -0.035739
     3  C   -0.067896
     4  C   -0.030755
     5  C   -0.107572
     6  N   -0.160749
     7  C   -0.082570
     8  C   -0.011516
     9  C   -0.028861
    10  C    0.056454
    11  C    0.136245
    12  C    0.121865
    13  C    0.212836
    14  C    0.077117
    15  O   -0.216028
    16  O   -0.289097
    17  N   -0.302511
    18  C    0.103566
    19  C   -0.158865
    20  C    0.058074
    21  C    0.099632
    22  C    0.173098
    23  C   -0.067866
    24  O   -0.141916
    25  C    0.088689
    26  N   -0.273018
    27  C    0.054424
    28  C   -0.047425
    29  C    0.129925
    30  C    0.051342
    31  C    0.097855
    32  C    0.056634
    33  C    0.080489
    34  N   -0.228203
    35  C    0.114139
    36  C   -0.190834
    37  C    0.096933
    38  C    0.094193
    39  C    0.173498
    40  C   -0.084325
    41  O   -0.074483
    42  C    0.050104
    43  C    0.123576
    44  O   -0.218758
    45  O   -0.236682
    46  C    0.231010
    47  C    0.307808
    48  C   -0.061002
    49  C   -0.173358
    50  C    0.139590
    51  C    0.136783
    52  C    0.083007
    53  C    0.014871
    54  C   -0.080922
    55  C    0.106800
    56  C    0.128923
    57  C    0.033062
    58  C    0.123218
    59  C   -0.049944
    60  C    0.096758
    61  C    0.116077
    62  C    0.072529
    63  C    0.122921
    64  C   -0.114797
    65  C    0.114490
    66  C    0.086006
    67  H   -0.065942
    68  H   -0.044620
    69  H   -0.072917
    70  H    0.018331
    71  H   -0.035178
    72  H   -0.012831
    73  H   -0.015750
    74  H    0.007684
    75  H   -0.028802
    76  H   -0.028336
    77  H   -0.009910
    78  H   -0.004435
    79  H    0.003556
    80  H    0.013745
    81  H   -0.020476
    82  H   -0.012940
    83  H    0.001330
    84  H    0.026549
    85  H   -0.024095
    86  H   -0.039576
    87  H   -0.014561
    88  H   -0.005568
    89  H    0.000022
    90  H   -0.023246
    91  H   -0.023202
    92  H    0.019486
    93  H   -0.014378
    94  H    0.000801
    95  H    0.000862
    96  H   -0.000029
    97  H   -0.000339
    98  H    0.000847
    99  H    0.001065
   100  H    0.010907
   101  H    0.031103
   102  H    0.015839
   103  H   -0.001635
   104  H   -0.051153
   105  H   -0.008981
   106  H   -0.008224
   107  H    0.003549
   108  H   -0.022882
   109  H   -0.013824
   110  H   -0.020199
   111  H   -0.019169
   112  H   -0.019781
   113  H   -0.023755
   114  H   -0.038344
   115  H   -0.017295
   116  H   -0.004837
   117  H   -0.013531
   118  H   -0.044587
   119  H   -0.044738
   120  H   -0.048253
   121  H   -0.043200
   122  H   -0.034038
   123  H   -0.029203
   124  H   -0.034805
   125  H   -0.003020
   126  H   -0.029460
   127  H   -0.022922
   128  H   -0.063648
   129  H   -0.037278
   130  H   -0.024319
   131  H   -0.045209
   132  H   -0.041889
   133  H   -0.021766
   134  H   -0.042463
   135  H   -0.017415
   136  H   -0.016444
   137  H   -0.025867
   138  H   -0.025258
   139  H   -0.003993
   140  H    0.012233
 Sum of Mulliken charges =  -0.00000

 Dipole moment (field-independent basis, Debye):
    X=             -6.0398    Y=              2.0386    Z=              1.1713  Tot=              6.4813
 Quadrupole moment (field-independent basis, Debye-Ang):
   XX=           -383.0522   YY=           -432.6724   ZZ=           -404.0340
   XY=             24.5769   XZ=              3.4914   YZ=             -7.6471

 Normal termination of Gaussian 16 at Wed May  4 18:03:15 2022.
