 Gaussian 16, Revision A.03,
 Gaussian 16:  ES64L-G16RevA.03 25-Dec-2016

 -----------------------------------
 #p cam-b3lyp/Def2SVP td=(nstates=5)
 -----------------------------------

 -------------------------------------------------------
 step_201_chromophore_24 TDDFT with cam-b3lyp functional
 -------------------------------------------------------
 Symbolic Z-matrix:
 Charge =  0 Multiplicity = 1

                         Standard orientation:
 ---------------------------------------------------------------------
 Center     Atomic      Atomic             Coordinates (Angstroms)
 Number     Number       Type             X           Y           Z
 ---------------------------------------------------------------------
      1         12           0        5.341192    1.099233    0.184991
      2          6           0        4.451758   -2.280256    0.555361
      3          6           0        2.011228    1.816270   -0.503875
      4          6           0        6.205593    4.203915   -0.086405
      5          6           0        8.720833   -0.012812    0.255843
      6          7           0        3.401029   -0.124028    0.040825
      7          6           0        3.284880   -1.436967    0.357327
      8          6           0        1.828099   -1.941821    0.204053
      9          6           0        1.130143   -0.620997   -0.373524
     10          6           0        2.244738    0.483180   -0.207327
     11          6           0        0.527310   -0.731204   -1.781649
     12          6           0        1.209335   -2.386797    1.500835
     13          6           0       -0.118872   -3.200378    1.397681
     14          6           0       -0.648729   -3.573045    0.046391
     15          8           0       -0.311426   -4.527737   -0.675882
     16          8           0       -1.601246   -2.676685   -0.410792
     17          7           0        4.227406    2.841000   -0.119127
     18          6           0        2.904410    2.866669   -0.422287
     19          6           0        2.597709    4.281273   -0.525502
     20          6           0        3.799640    5.018027   -0.448897
     21          6           0        4.824039    4.072848   -0.159195
     22          6           0        1.263428    4.772435   -0.848106
     23          6           0        4.095881    6.519784   -0.617396
     24          8           0        5.140231    7.064674   -0.354981
     25          6           0        2.993984    7.418914   -1.197656
     26          7           0        7.205349    1.889163    0.069612
     27          6           0        7.245201    3.257322   -0.002206
     28          6           0        8.752051    3.666646   -0.323120
     29          6           0        9.462741    2.399500    0.058103
     30          6           0        8.468342    1.317780    0.168857
     31          6           0        8.901343    4.142677   -1.896131
     32          6           0       10.372667    2.571305    1.364529
     33          6           0        9.653259    2.275871    2.675671
     34          7           0        6.467235   -0.737831    0.249279
     35          6           0        7.780834   -1.055829    0.315491
     36          6           0        8.004642   -2.367209    0.539689
     37          6           0        6.720202   -2.960542    0.618966
     38          6           0        5.784025   -1.924400    0.430893
     39          6           0        9.375029   -3.071266    0.695876
     40          6           0        5.970200   -4.172371    0.867167
     41          8           0        6.385650   -5.250359    1.074775
     42          6           0        4.451258   -3.808734    0.830519
     43          6           0        3.789308   -4.649192   -0.286939
     44          8           0        4.142759   -4.682346   -1.481914
     45          8           0        2.983336   -5.550763    0.280883
     46          6           0        2.554690   -6.588925   -0.626507
     47          6           0       -2.323717   -3.141593   -1.651037
     48          6           0       -3.831982   -2.851931   -1.507611
     49          6           0       -4.778564   -3.712790   -1.102166
     50          6           0       -4.553816   -5.038509   -0.395239
     51          6           0       -6.256473   -3.345174   -1.220524
     52          6           0       -6.752829   -2.234706   -0.156705
     53          6           0       -7.554790   -1.092032   -0.975976
     54          6           0       -8.764738   -0.591543   -0.128518
     55          6           0       -8.346175    0.041797    1.266323
     56          6           0       -9.537354    0.349461   -1.108436
     57          6           0      -11.034510    0.288489   -1.028203
     58          6           0      -11.767920    1.547382   -1.446866
     59          6           0      -13.330827    1.378174   -1.184656
     60          6           0      -14.066184    0.981861   -2.511449
     61          6           0      -13.930778    2.708991   -0.595545
     62          6           0      -14.405871    2.606769    0.856805
     63          6           0      -13.221645    2.924588    1.823423
     64          6           0      -12.948421    1.789360    2.825460
     65          6           0      -12.924280    2.253075    4.285317
     66          6           0      -11.726428    0.931525    2.415971
     67          1           0        1.044651    2.215524   -0.818249
     68          1           0        6.572539    5.231241   -0.141315
     69          1           0        9.754122   -0.330037    0.408470
     70          1           0        1.822157   -2.696288   -0.582396
     71          1           0        0.292799   -0.290828    0.241421
     72          1           0        0.789160    0.151912   -2.363872
     73          1           0       -0.551845   -0.660801   -1.647360
     74          1           0        0.677956   -1.724612   -2.204706
     75          1           0        1.075831   -1.503172    2.123508
     76          1           0        2.005576   -2.921515    2.018630
     77          1           0       -0.789977   -2.687381    2.087047
     78          1           0        0.056706   -4.172234    1.859624
     79          1           0        0.441577    4.171872   -0.458791
     80          1           0        1.220880    4.951779   -1.921988
     81          1           0        1.203658    5.779613   -0.433765
     82          1           0        2.486816    6.845158   -1.973188
     83          1           0        3.580605    8.259319   -1.569762
     84          1           0        2.205113    7.746634   -0.521308
     85          1           0        9.019021    4.584413    0.201752
     86          1           0       10.029375    2.188377   -0.848882
     87          1           0        7.929482    4.215090   -2.384995
     88          1           0        9.383468    3.430345   -2.565154
     89          1           0        9.246890    5.174231   -1.954533
     90          1           0       10.725230    3.600406    1.296241
     91          1           0       11.258598    1.935820    1.362301
     92          1           0        8.630210    1.953335    2.482732
     93          1           0        9.566231    3.260184    3.134296
     94          1           0       10.323175    1.618166    3.229312
     95          1           0        9.913928   -2.900444   -0.236664
     96          1           0        9.267922   -4.147950    0.826662
     97          1           0        9.940836   -2.729190    1.562318
     98          1           0        3.970727   -3.970274    1.795198
     99          1           0        1.906455   -7.220474   -0.020733
    100          1           0        3.428611   -7.197681   -0.859020
    101          1           0        2.073742   -6.145285   -1.497834
    102          1           0       -2.244030   -4.210636   -1.845341
    103          1           0       -1.896493   -2.629833   -2.513790
    104          1           0       -4.315258   -1.994026   -1.974541
    105          1           0       -3.500902   -5.314272   -0.332732
    106          1           0       -4.994469   -5.889280   -0.914950
    107          1           0       -5.063675   -4.975706    0.566690
    108          1           0       -6.928028   -4.203585   -1.230710
    109          1           0       -6.245122   -2.880187   -2.206578
    110          1           0       -5.959984   -1.619133    0.269254
    111          1           0       -7.308835   -2.556759    0.723849
    112          1           0       -7.939465   -1.475643   -1.920827
    113          1           0       -6.951242   -0.221960   -1.236018
    114          1           0       -9.253812   -1.524241    0.149711
    115          1           0       -7.260077    0.095017    1.342351
    116          1           0       -8.732118   -0.505557    2.126240
    117          1           0       -8.788810    1.037414    1.276813
    118          1           0       -9.351993    0.086821   -2.150314
    119          1           0       -9.163727    1.367599   -0.999453
    120          1           0      -11.348451    0.030785   -0.016417
    121          1           0      -11.279973   -0.563236   -1.661615
    122          1           0      -11.595295    1.678760   -2.514844
    123          1           0      -11.302519    2.301470   -0.811566
    124          1           0      -13.497722    0.518894   -0.534592
    125          1           0      -13.643091    1.294524   -3.465181
    126          1           0      -15.067039    1.405658   -2.429012
    127          1           0      -14.273578   -0.088284   -2.474694
    128          1           0      -14.796444    2.941716   -1.216321
    129          1           0      -13.364184    3.626346   -0.759125
    130          1           0      -15.055533    1.751835    1.045472
    131          1           0      -15.079029    3.448750    1.024626
    132          1           0      -13.614631    3.718237    2.458757
    133          1           0      -12.256208    3.119550    1.355069
    134          1           0      -13.829828    1.163824    2.681087
    135          1           0      -13.871540    1.986113    4.754397
    136          1           0      -12.806486    3.325000    4.442450
    137          1           0      -12.111320    1.769002    4.827290
    138          1           0      -11.071376    0.673754    3.247299
    139          1           0      -11.086157    1.453589    1.705184
    140          1           0      -12.093030   -0.009981    2.005005
 ---------------------------------------------------------------------

 SCF Done:  E(RCAM-B3LYP) =  -3007.15719314     A.U. after   17 cycles

 Excitation energies and oscillator strengths:

 Excited State   1:      Singlet-A      1.7981 eV  689.53 nm  f=0.3909  <S**2>=0.000
     245 -> 248        0.19077
     246 -> 247        0.68288
     245 <- 248        0.10659
 This state for optimization and/or second-order correction.
 Total Energy, E(TD-HF/TD-DFT) =  -3007.09111440
 Copying the excited state density for this state as the 1-particle RhoCI density.

 Excited State   2:      Singlet-A      2.2825 eV  543.19 nm  f=0.1054  <S**2>=0.000
     245 -> 247        0.63917
     246 -> 248       -0.28801

 Excited State   3:      Singlet-A      3.2826 eV  377.70 nm  f=0.0010  <S**2>=0.000
     243 -> 247       -0.18258
     244 -> 247        0.66980

 Excited State   4:      Singlet-A      3.4677 eV  357.54 nm  f=0.0911  <S**2>=0.000
     243 -> 247        0.56852
     244 -> 247        0.13324
     246 -> 248        0.35455

 Excited State   5:      Singlet-A      3.5548 eV  348.78 nm  f=0.0019  <S**2>=0.000
     242 -> 247        0.60969
     242 -> 248       -0.10995
     242 -> 249        0.20394
     242 -> 251        0.18276

 The electronic state is 1-A.
 Alpha  occ. eigenvalues --  -46.88157 -19.25303 -19.24843 -19.20574 -19.19700
 Alpha  occ. eigenvalues --  -19.18730 -19.18240 -14.42506 -14.41198 -14.38932
 Alpha  occ. eigenvalues --  -14.37777 -10.40431 -10.38768 -10.35693 -10.33813
 Alpha  occ. eigenvalues --  -10.32594 -10.31261 -10.31217 -10.30932 -10.30242
 Alpha  occ. eigenvalues --  -10.29923 -10.29659 -10.29622 -10.28563 -10.28398
 Alpha  occ. eigenvalues --  -10.28365 -10.28088 -10.28049 -10.27821 -10.27807
 Alpha  occ. eigenvalues --  -10.27721 -10.27582 -10.27546 -10.27473 -10.27237
 Alpha  occ. eigenvalues --  -10.27035 -10.26938 -10.26832 -10.26474 -10.26365
 Alpha  occ. eigenvalues --  -10.26330 -10.26127 -10.26105 -10.26100 -10.26013
 Alpha  occ. eigenvalues --  -10.25971 -10.25897 -10.25849 -10.25837 -10.25520
 Alpha  occ. eigenvalues --  -10.25493 -10.25377 -10.25348 -10.25171 -10.25110
 Alpha  occ. eigenvalues --  -10.24942 -10.24789 -10.24643 -10.24608 -10.24525
 Alpha  occ. eigenvalues --  -10.24502 -10.24477 -10.24475 -10.24294 -10.24054
 Alpha  occ. eigenvalues --  -10.23771  -3.16671  -1.91591  -1.91152  -1.90934
 Alpha  occ. eigenvalues --   -1.16731  -1.15781  -1.11867  -1.11603  -1.06770
 Alpha  occ. eigenvalues --   -1.06088  -1.04428  -1.03451  -1.03279  -1.02084
 Alpha  occ. eigenvalues --   -0.92158  -0.90530  -0.90079  -0.89748  -0.89277
 Alpha  occ. eigenvalues --   -0.88798  -0.87947  -0.87704  -0.87116  -0.86774
 Alpha  occ. eigenvalues --   -0.85629  -0.85187  -0.84277  -0.83368  -0.82847
 Alpha  occ. eigenvalues --   -0.82174  -0.81783  -0.81160  -0.80898  -0.80471
 Alpha  occ. eigenvalues --   -0.79618  -0.78690  -0.78041  -0.77012  -0.76071
 Alpha  occ. eigenvalues --   -0.75749  -0.75581  -0.75081  -0.74933  -0.74310
 Alpha  occ. eigenvalues --   -0.73230  -0.72652  -0.71603  -0.70968  -0.69043
 Alpha  occ. eigenvalues --   -0.68419  -0.68375  -0.67155  -0.67023  -0.65668
 Alpha  occ. eigenvalues --   -0.65067  -0.64368  -0.64247  -0.64043  -0.63890
 Alpha  occ. eigenvalues --   -0.63169  -0.63134  -0.62705  -0.61771  -0.60362
 Alpha  occ. eigenvalues --   -0.59658  -0.59274  -0.58828  -0.58338  -0.57647
 Alpha  occ. eigenvalues --   -0.57320  -0.57243  -0.56164  -0.55988  -0.55579
 Alpha  occ. eigenvalues --   -0.55449  -0.55136  -0.55117  -0.54851  -0.54424
 Alpha  occ. eigenvalues --   -0.53816  -0.53344  -0.53231  -0.52820  -0.52777
 Alpha  occ. eigenvalues --   -0.52626  -0.52448  -0.52369  -0.52142  -0.51987
 Alpha  occ. eigenvalues --   -0.51725  -0.51314  -0.51066  -0.50853  -0.50735
 Alpha  occ. eigenvalues --   -0.50630  -0.50211  -0.50067  -0.49553  -0.49501
 Alpha  occ. eigenvalues --   -0.49212  -0.49108  -0.48856  -0.48781  -0.48603
 Alpha  occ. eigenvalues --   -0.48481  -0.48097  -0.47891  -0.47802  -0.47760
 Alpha  occ. eigenvalues --   -0.47491  -0.47240  -0.46944  -0.46488  -0.46325
 Alpha  occ. eigenvalues --   -0.46246  -0.46070  -0.45942  -0.45785  -0.45570
 Alpha  occ. eigenvalues --   -0.45224  -0.45148  -0.45007  -0.44783  -0.44631
 Alpha  occ. eigenvalues --   -0.44477  -0.44400  -0.44123  -0.44037  -0.43993
 Alpha  occ. eigenvalues --   -0.43868  -0.43706  -0.43565  -0.43345  -0.43201
 Alpha  occ. eigenvalues --   -0.43057  -0.42752  -0.42609  -0.42469  -0.42236
 Alpha  occ. eigenvalues --   -0.41873  -0.41594  -0.41576  -0.41485  -0.41144
 Alpha  occ. eigenvalues --   -0.41079  -0.40293  -0.40244  -0.40196  -0.39974
 Alpha  occ. eigenvalues --   -0.39390  -0.39233  -0.39189  -0.38974  -0.38360
 Alpha  occ. eigenvalues --   -0.38279  -0.38060  -0.37865  -0.37232  -0.37109
 Alpha  occ. eigenvalues --   -0.36995  -0.36916  -0.36745  -0.36500  -0.35920
 Alpha  occ. eigenvalues --   -0.35596  -0.35519  -0.35222  -0.35080  -0.33911
 Alpha  occ. eigenvalues --   -0.33371  -0.33199  -0.33122  -0.31474  -0.31175
 Alpha  occ. eigenvalues --   -0.30587  -0.30150  -0.30025  -0.28823  -0.24040
 Alpha  occ. eigenvalues --   -0.21335
 Alpha virt. eigenvalues --   -0.08439  -0.01678   0.00676   0.03019   0.03301
 Alpha virt. eigenvalues --    0.03522   0.04444   0.05408   0.05647   0.07324
 Alpha virt. eigenvalues --    0.08171   0.08533   0.08684   0.08996   0.09178

 Mulliken charges:
               1
     1  Mg   0.797498
     2  C   -0.055210
     3  C   -0.079621
     4  C   -0.062969
     5  C   -0.103772
     6  N   -0.227361
     7  C   -0.039537
     8  C   -0.073265
     9  C   -0.071184
    10  C    0.071770
    11  C    0.076457
    12  C    0.079806
    13  C    0.137019
    14  C    0.152090
    15  O   -0.257066
    16  O   -0.350807
    17  N   -0.395874
    18  C    0.118606
    19  C   -0.157512
    20  C   -0.018457
    21  C    0.133487
    22  C    0.104427
    23  C    0.017457
    24  O   -0.180984
    25  C    0.009750
    26  N   -0.350056
    27  C    0.081592
    28  C   -0.094807
    29  C    0.061659
    30  C    0.059831
    31  C    0.042204
    32  C    0.008620
    33  C    0.017520
    34  N   -0.314899
    35  C    0.115719
    36  C   -0.189459
    37  C    0.017132
    38  C    0.122128
    39  C    0.124305
    40  C    0.012415
    41  O   -0.114639
    42  C   -0.019518
    43  C    0.206468
    44  O   -0.255789
    45  O   -0.297042
    46  C    0.187575
    47  C    0.274239
    48  C   -0.086093
    49  C   -0.187526
    50  C    0.080431
    51  C    0.071569
    52  C    0.029621
    53  C   -0.029604
    54  C   -0.133117
    55  C    0.048048
    56  C    0.072016
    57  C   -0.013421
    58  C    0.073406
    59  C   -0.107792
    60  C    0.041423
    61  C    0.057650
    62  C    0.014791
    63  C    0.067091
    64  C   -0.170859
    65  C    0.054396
    66  C    0.034157
    67  H   -0.028374
    68  H   -0.004637
    69  H   -0.036598
    70  H    0.047519
    71  H    0.000282
    72  H    0.013296
    73  H    0.009064
    74  H    0.030658
    75  H    0.002671
    76  H    0.001052
    77  H    0.026390
    78  H    0.029640
    79  H    0.032341
    80  H    0.042714
    81  H    0.008084
    82  H    0.013948
    83  H    0.036141
    84  H    0.053674
    85  H    0.010481
    86  H   -0.001207
    87  H    0.011055
    88  H    0.019458
    89  H    0.023659
    90  H    0.004110
    91  H    0.004526
    92  H    0.040549
    93  H    0.009016
    94  H    0.024075
    95  H    0.024405
    96  H    0.027462
    97  H    0.023129
    98  H    0.043297
    99  H    0.025540
   100  H    0.035149
   101  H    0.054652
   102  H    0.047666
   103  H    0.024768
   104  H   -0.019497
   105  H    0.013316
   106  H    0.017096
   107  H    0.026581
   108  H    0.007958
   109  H    0.015695
   110  H    0.008143
   111  H    0.008203
   112  H    0.006920
   113  H    0.002182
   114  H   -0.006871
   115  H    0.007100
   116  H    0.017719
   117  H    0.008812
   118  H   -0.014015
   119  H   -0.015807
   120  H   -0.024521
   121  H   -0.015464
   122  H   -0.006597
   123  H   -0.005412
   124  H   -0.003314
   125  H    0.019752
   126  H   -0.004579
   127  H    0.001701
   128  H   -0.031103
   129  H   -0.006816
   130  H    0.003540
   131  H   -0.013631
   132  H   -0.010178
   133  H    0.003857
   134  H   -0.009605
   135  H    0.006903
   136  H    0.007224
   137  H   -0.001210
   138  H   -0.000942
   139  H    0.008494
   140  H    0.032574
 Sum of Mulliken charges =  -0.00000

 Dipole moment (field-independent basis, Debye):
    X=             -6.7120    Y=              2.8769    Z=              1.0596  Tot=              7.3790
 Quadrupole moment (field-independent basis, Debye-Ang):
   XX=           -387.2673   YY=           -427.7622   ZZ=           -403.7694
   XY=             27.6922   XZ=              3.5708   YZ=             -9.4347

 Normal termination of Gaussian 16 at Wed May  4 16:26:27 2022.
