 Gaussian 16, Revision A.03,
 Gaussian 16:  ES64L-G16RevA.03 25-Dec-2016

 ---------------------------------
 #p PBE1PBE/Def2SVP td=(nstates=5)
 ---------------------------------

 -----------------------------------------------------
 step_201_chromophore_24 TDDFT with PBE1PBE functional
 -----------------------------------------------------
 Symbolic Z-matrix:
 Charge =  0 Multiplicity = 1

                         Standard orientation:
 ---------------------------------------------------------------------
 Center     Atomic      Atomic             Coordinates (Angstroms)
 Number     Number       Type             X           Y           Z
 ---------------------------------------------------------------------
      1         12           0        5.341192    1.099233    0.184991
      2          6           0        4.451758   -2.280256    0.555361
      3          6           0        2.011228    1.816270   -0.503875
      4          6           0        6.205593    4.203915   -0.086405
      5          6           0        8.720833   -0.012812    0.255843
      6          7           0        3.401029   -0.124028    0.040825
      7          6           0        3.284880   -1.436967    0.357327
      8          6           0        1.828099   -1.941821    0.204053
      9          6           0        1.130143   -0.620997   -0.373524
     10          6           0        2.244738    0.483180   -0.207327
     11          6           0        0.527310   -0.731204   -1.781649
     12          6           0        1.209335   -2.386797    1.500835
     13          6           0       -0.118872   -3.200378    1.397681
     14          6           0       -0.648729   -3.573045    0.046391
     15          8           0       -0.311426   -4.527737   -0.675882
     16          8           0       -1.601246   -2.676685   -0.410792
     17          7           0        4.227406    2.841000   -0.119127
     18          6           0        2.904410    2.866669   -0.422287
     19          6           0        2.597709    4.281273   -0.525502
     20          6           0        3.799640    5.018027   -0.448897
     21          6           0        4.824039    4.072848   -0.159195
     22          6           0        1.263428    4.772435   -0.848106
     23          6           0        4.095881    6.519784   -0.617396
     24          8           0        5.140231    7.064674   -0.354981
     25          6           0        2.993984    7.418914   -1.197656
     26          7           0        7.205349    1.889163    0.069612
     27          6           0        7.245201    3.257322   -0.002206
     28          6           0        8.752051    3.666646   -0.323120
     29          6           0        9.462741    2.399500    0.058103
     30          6           0        8.468342    1.317780    0.168857
     31          6           0        8.901343    4.142677   -1.896131
     32          6           0       10.372667    2.571305    1.364529
     33          6           0        9.653259    2.275871    2.675671
     34          7           0        6.467235   -0.737831    0.249279
     35          6           0        7.780834   -1.055829    0.315491
     36          6           0        8.004642   -2.367209    0.539689
     37          6           0        6.720202   -2.960542    0.618966
     38          6           0        5.784025   -1.924400    0.430893
     39          6           0        9.375029   -3.071266    0.695876
     40          6           0        5.970200   -4.172371    0.867167
     41          8           0        6.385650   -5.250359    1.074775
     42          6           0        4.451258   -3.808734    0.830519
     43          6           0        3.789308   -4.649192   -0.286939
     44          8           0        4.142759   -4.682346   -1.481914
     45          8           0        2.983336   -5.550763    0.280883
     46          6           0        2.554690   -6.588925   -0.626507
     47          6           0       -2.323717   -3.141593   -1.651037
     48          6           0       -3.831982   -2.851931   -1.507611
     49          6           0       -4.778564   -3.712790   -1.102166
     50          6           0       -4.553816   -5.038509   -0.395239
     51          6           0       -6.256473   -3.345174   -1.220524
     52          6           0       -6.752829   -2.234706   -0.156705
     53          6           0       -7.554790   -1.092032   -0.975976
     54          6           0       -8.764738   -0.591543   -0.128518
     55          6           0       -8.346175    0.041797    1.266323
     56          6           0       -9.537354    0.349461   -1.108436
     57          6           0      -11.034510    0.288489   -1.028203
     58          6           0      -11.767920    1.547382   -1.446866
     59          6           0      -13.330827    1.378174   -1.184656
     60          6           0      -14.066184    0.981861   -2.511449
     61          6           0      -13.930778    2.708991   -0.595545
     62          6           0      -14.405871    2.606769    0.856805
     63          6           0      -13.221645    2.924588    1.823423
     64          6           0      -12.948421    1.789360    2.825460
     65          6           0      -12.924280    2.253075    4.285317
     66          6           0      -11.726428    0.931525    2.415971
     67          1           0        1.044651    2.215524   -0.818249
     68          1           0        6.572539    5.231241   -0.141315
     69          1           0        9.754122   -0.330037    0.408470
     70          1           0        1.822157   -2.696288   -0.582396
     71          1           0        0.292799   -0.290828    0.241421
     72          1           0        0.789160    0.151912   -2.363872
     73          1           0       -0.551845   -0.660801   -1.647360
     74          1           0        0.677956   -1.724612   -2.204706
     75          1           0        1.075831   -1.503172    2.123508
     76          1           0        2.005576   -2.921515    2.018630
     77          1           0       -0.789977   -2.687381    2.087047
     78          1           0        0.056706   -4.172234    1.859624
     79          1           0        0.441577    4.171872   -0.458791
     80          1           0        1.220880    4.951779   -1.921988
     81          1           0        1.203658    5.779613   -0.433765
     82          1           0        2.486816    6.845158   -1.973188
     83          1           0        3.580605    8.259319   -1.569762
     84          1           0        2.205113    7.746634   -0.521308
     85          1           0        9.019021    4.584413    0.201752
     86          1           0       10.029375    2.188377   -0.848882
     87          1           0        7.929482    4.215090   -2.384995
     88          1           0        9.383468    3.430345   -2.565154
     89          1           0        9.246890    5.174231   -1.954533
     90          1           0       10.725230    3.600406    1.296241
     91          1           0       11.258598    1.935820    1.362301
     92          1           0        8.630210    1.953335    2.482732
     93          1           0        9.566231    3.260184    3.134296
     94          1           0       10.323175    1.618166    3.229312
     95          1           0        9.913928   -2.900444   -0.236664
     96          1           0        9.267922   -4.147950    0.826662
     97          1           0        9.940836   -2.729190    1.562318
     98          1           0        3.970727   -3.970274    1.795198
     99          1           0        1.906455   -7.220474   -0.020733
    100          1           0        3.428611   -7.197681   -0.859020
    101          1           0        2.073742   -6.145285   -1.497834
    102          1           0       -2.244030   -4.210636   -1.845341
    103          1           0       -1.896493   -2.629833   -2.513790
    104          1           0       -4.315258   -1.994026   -1.974541
    105          1           0       -3.500902   -5.314272   -0.332732
    106          1           0       -4.994469   -5.889280   -0.914950
    107          1           0       -5.063675   -4.975706    0.566690
    108          1           0       -6.928028   -4.203585   -1.230710
    109          1           0       -6.245122   -2.880187   -2.206578
    110          1           0       -5.959984   -1.619133    0.269254
    111          1           0       -7.308835   -2.556759    0.723849
    112          1           0       -7.939465   -1.475643   -1.920827
    113          1           0       -6.951242   -0.221960   -1.236018
    114          1           0       -9.253812   -1.524241    0.149711
    115          1           0       -7.260077    0.095017    1.342351
    116          1           0       -8.732118   -0.505557    2.126240
    117          1           0       -8.788810    1.037414    1.276813
    118          1           0       -9.351993    0.086821   -2.150314
    119          1           0       -9.163727    1.367599   -0.999453
    120          1           0      -11.348451    0.030785   -0.016417
    121          1           0      -11.279973   -0.563236   -1.661615
    122          1           0      -11.595295    1.678760   -2.514844
    123          1           0      -11.302519    2.301470   -0.811566
    124          1           0      -13.497722    0.518894   -0.534592
    125          1           0      -13.643091    1.294524   -3.465181
    126          1           0      -15.067039    1.405658   -2.429012
    127          1           0      -14.273578   -0.088284   -2.474694
    128          1           0      -14.796444    2.941716   -1.216321
    129          1           0      -13.364184    3.626346   -0.759125
    130          1           0      -15.055533    1.751835    1.045472
    131          1           0      -15.079029    3.448750    1.024626
    132          1           0      -13.614631    3.718237    2.458757
    133          1           0      -12.256208    3.119550    1.355069
    134          1           0      -13.829828    1.163824    2.681087
    135          1           0      -13.871540    1.986113    4.754397
    136          1           0      -12.806486    3.325000    4.442450
    137          1           0      -12.111320    1.769002    4.827290
    138          1           0      -11.071376    0.673754    3.247299
    139          1           0      -11.086157    1.453589    1.705184
    140          1           0      -12.093030   -0.009981    2.005005
 ---------------------------------------------------------------------

 SCF Done:  E(RPBE1PBE) =  -3005.34384251     A.U. after   16 cycles

 Excitation energies and oscillator strengths:

 Excited State   1:      Singlet-A      1.9411 eV  638.74 nm  f=0.3785  <S**2>=0.000
     245 -> 248       -0.18578
     246 -> 247        0.68924
 This state for optimization and/or second-order correction.
 Total Energy, E(TD-HF/TD-DFT) =  -3005.27250911
 Copying the excited state density for this state as the 1-particle RhoCI density.

 Excited State   2:      Singlet-A      2.2776 eV  544.36 nm  f=0.1011  <S**2>=0.000
     245 -> 247        0.64950
     246 -> 248        0.26458

 Excited State   3:      Singlet-A      2.9400 eV  421.72 nm  f=0.0019  <S**2>=0.000
     243 -> 247        0.11083
     244 -> 247        0.68396

 Excited State   4:      Singlet-A      2.9861 eV  415.21 nm  f=0.0002  <S**2>=0.000
     243 -> 247        0.67729
     243 -> 249        0.11084
     244 -> 247       -0.11762

 Excited State   5:      Singlet-A      3.1715 eV  390.93 nm  f=0.0056  <S**2>=0.000
     240 -> 247        0.10902
     242 -> 247        0.66527
     246 -> 248       -0.16312

 The electronic state is 1-A.
 Alpha  occ. eigenvalues --  -46.91524 -19.25955 -19.25509 -19.20842 -19.19761
 Alpha  occ. eigenvalues --  -19.19029 -19.18537 -14.41889 -14.40843 -14.38532
 Alpha  occ. eigenvalues --  -14.37529 -10.37443 -10.35834 -10.32695 -10.31038
 Alpha  occ. eigenvalues --  -10.29993 -10.29135 -10.28868 -10.28545 -10.27520
 Alpha  occ. eigenvalues --  -10.27484 -10.27337 -10.27098 -10.26148 -10.25928
 Alpha  occ. eigenvalues --  -10.25868 -10.25850 -10.25765 -10.25642 -10.25446
 Alpha  occ. eigenvalues --  -10.25419 -10.25390 -10.25380 -10.25240 -10.24686
 Alpha  occ. eigenvalues --  -10.24450 -10.24436 -10.24287 -10.24272 -10.24233
 Alpha  occ. eigenvalues --  -10.24106 -10.23847 -10.23745 -10.23674 -10.23574
 Alpha  occ. eigenvalues --  -10.23462 -10.23437 -10.23350 -10.23289 -10.23247
 Alpha  occ. eigenvalues --  -10.23106 -10.22997 -10.22776 -10.22772 -10.22574
 Alpha  occ. eigenvalues --  -10.22501 -10.22344 -10.22176 -10.22105 -10.22082
 Alpha  occ. eigenvalues --  -10.22068 -10.21941 -10.21885 -10.21875 -10.21674
 Alpha  occ. eigenvalues --  -10.21273  -3.13622  -1.86484  -1.86023  -1.85807
 Alpha  occ. eigenvalues --   -1.11567  -1.10536  -1.06751  -1.06211  -1.01602
 Alpha  occ. eigenvalues --   -1.00924  -0.98997  -0.98034  -0.98000  -0.96767
 Alpha  occ. eigenvalues --   -0.86557  -0.84682  -0.84246  -0.83843  -0.83491
 Alpha  occ. eigenvalues --   -0.82911  -0.82266  -0.81843  -0.81221  -0.81120
 Alpha  occ. eigenvalues --   -0.80042  -0.79490  -0.78412  -0.77695  -0.77130
 Alpha  occ. eigenvalues --   -0.76382  -0.75962  -0.75345  -0.75138  -0.74694
 Alpha  occ. eigenvalues --   -0.73778  -0.72871  -0.72343  -0.71356  -0.70186
 Alpha  occ. eigenvalues --   -0.69996  -0.69823  -0.69329  -0.69179  -0.68470
 Alpha  occ. eigenvalues --   -0.67557  -0.67082  -0.66060  -0.65265  -0.63268
 Alpha  occ. eigenvalues --   -0.62914  -0.62688  -0.61504  -0.61268  -0.60088
 Alpha  occ. eigenvalues --   -0.59574  -0.58928  -0.58597  -0.58392  -0.58057
 Alpha  occ. eigenvalues --   -0.57696  -0.57289  -0.56909  -0.56373  -0.54796
 Alpha  occ. eigenvalues --   -0.54166  -0.53772  -0.53289  -0.52933  -0.52119
 Alpha  occ. eigenvalues --   -0.51894  -0.51773  -0.50590  -0.50482  -0.50051
 Alpha  occ. eigenvalues --   -0.49779  -0.49680  -0.49620  -0.49367  -0.48986
 Alpha  occ. eigenvalues --   -0.48309  -0.47770  -0.47677  -0.47412  -0.47241
 Alpha  occ. eigenvalues --   -0.47092  -0.46997  -0.46883  -0.46738  -0.46519
 Alpha  occ. eigenvalues --   -0.46254  -0.45806  -0.45588  -0.45431  -0.45212
 Alpha  occ. eigenvalues --   -0.45135  -0.44883  -0.44636  -0.44076  -0.44033
 Alpha  occ. eigenvalues --   -0.43789  -0.43705  -0.43440  -0.43410  -0.43173
 Alpha  occ. eigenvalues --   -0.43115  -0.42648  -0.42514  -0.42411  -0.42393
 Alpha  occ. eigenvalues --   -0.42107  -0.41895  -0.41570  -0.41211  -0.41032
 Alpha  occ. eigenvalues --   -0.40811  -0.40776  -0.40618  -0.40453  -0.40240
 Alpha  occ. eigenvalues --   -0.39954  -0.39855  -0.39688  -0.39523  -0.39377
 Alpha  occ. eigenvalues --   -0.39195  -0.39141  -0.38907  -0.38758  -0.38707
 Alpha  occ. eigenvalues --   -0.38615  -0.38454  -0.38384  -0.38085  -0.37960
 Alpha  occ. eigenvalues --   -0.37861  -0.37596  -0.37317  -0.37178  -0.36956
 Alpha  occ. eigenvalues --   -0.36695  -0.36535  -0.36440  -0.36293  -0.36000
 Alpha  occ. eigenvalues --   -0.35883  -0.35173  -0.35167  -0.35040  -0.34761
 Alpha  occ. eigenvalues --   -0.34191  -0.34096  -0.33976  -0.33911  -0.33268
 Alpha  occ. eigenvalues --   -0.33084  -0.32880  -0.32811  -0.32154  -0.32051
 Alpha  occ. eigenvalues --   -0.31953  -0.31807  -0.31682  -0.31293  -0.30883
 Alpha  occ. eigenvalues --   -0.30535  -0.30479  -0.30142  -0.29828  -0.29363
 Alpha  occ. eigenvalues --   -0.28578  -0.28236  -0.28111  -0.26816  -0.26144
 Alpha  occ. eigenvalues --   -0.25902  -0.25505  -0.25147  -0.24606  -0.20961
 Alpha  occ. eigenvalues --   -0.18917
 Alpha virt. eigenvalues --   -0.10940  -0.05153  -0.03551  -0.01481  -0.01192
 Alpha virt. eigenvalues --   -0.00054   0.00788   0.00860   0.01586   0.03331
 Alpha virt. eigenvalues --    0.04186   0.04865   0.05166   0.05489   0.05703

 Mulliken charges:
               1
     1  Mg   0.945357
     2  C   -0.063045
     3  C   -0.071955
     4  C   -0.060696
     5  C   -0.080249
     6  N   -0.336077
     7  C    0.043683
     8  C   -0.163656
     9  C   -0.132607
    10  C    0.111648
    11  C    0.016034
    12  C    0.032820
    13  C    0.066534
    14  C    0.210998
    15  O   -0.290391
    16  O   -0.376177
    17  N   -0.515783
    18  C    0.151739
    19  C   -0.192529
    20  C   -0.075078
    21  C    0.172656
    22  C    0.038695
    23  C    0.076960
    24  O   -0.219974
    25  C   -0.066653
    26  N   -0.455979
    27  C    0.110329
    28  C   -0.160336
    29  C   -0.021309
    30  C    0.089708
    31  C   -0.013919
    32  C   -0.050349
    33  C   -0.058135
    34  N   -0.439646
    35  C    0.130917
    36  C   -0.197617
    37  C   -0.045851
    38  C    0.174983
    39  C    0.070302
    40  C    0.119401
    41  O   -0.162874
    42  C   -0.128608
    43  C    0.291910
    44  O   -0.288576
    45  O   -0.329843
    46  C    0.132480
    47  C    0.225349
    48  C   -0.099221
    49  C   -0.222684
    50  C    0.017249
    51  C    0.002498
    52  C   -0.029649
    53  C   -0.083728
    54  C   -0.214563
    55  C   -0.012143
    56  C    0.016823
    57  C   -0.084228
    58  C    0.018195
    59  C   -0.188615
    60  C   -0.016047
    61  C    0.000678
    62  C   -0.052640
    63  C    0.013140
    64  C   -0.259577
    65  C   -0.007066
    66  C   -0.028685
    67  H    0.002879
    68  H    0.027688
    69  H   -0.003686
    70  H    0.087829
    71  H    0.037674
    72  H    0.042211
    73  H    0.037908
    74  H    0.056892
    75  H    0.034891
    76  H    0.037330
    77  H    0.057422
    78  H    0.061746
    79  H    0.057676
    80  H    0.070336
    81  H    0.039183
    82  H    0.042606
    83  H    0.062948
    84  H    0.078512
    85  H    0.045336
    86  H    0.037923
    87  H    0.039710
    88  H    0.045451
    89  H    0.050186
    90  H    0.037505
    91  H    0.036249
    92  H    0.072412
    93  H    0.038017
    94  H    0.050981
    95  H    0.052719
    96  H    0.055940
    97  H    0.050994
    98  H    0.079694
    99  H    0.047601
   100  H    0.057786
   101  H    0.076249
   102  H    0.073981
   103  H    0.051317
   104  H    0.010681
   105  H    0.041210
   106  H    0.045044
   107  H    0.054925
   108  H    0.039508
   109  H    0.048426
   110  H    0.040881
   111  H    0.038884
   112  H    0.039646
   113  H    0.034896
   114  H    0.031027
   115  H    0.035321
   116  H    0.044424
   117  H    0.036585
   118  H    0.019013
   119  H    0.016098
   120  H    0.016270
   121  H    0.019314
   122  H    0.026321
   123  H    0.026589
   124  H    0.033221
   125  H    0.045419
   126  H    0.023058
   127  H    0.029605
   128  H    0.002129
   129  H    0.024901
   130  H    0.032907
   131  H    0.021082
   132  H    0.024305
   133  H    0.035225
   134  H    0.030041
   135  H    0.034590
   136  H    0.033670
   137  H    0.026224
   138  H    0.026433
   139  H    0.038925
   140  H    0.056770
 Sum of Mulliken charges =  -0.00000

 Dipole moment (field-independent basis, Debye):
    X=             -6.4708    Y=              2.5598    Z=              1.0841  Tot=              7.0426
 Quadrupole moment (field-independent basis, Debye-Ang):
   XX=           -378.0799   YY=           -425.7296   ZZ=           -401.3215
   XY=             26.7053   XZ=              3.8532   YZ=             -9.6073

 Normal termination of Gaussian 16 at Wed May  4 16:58:11 2022.
