 Gaussian 16, Revision A.03,
 Gaussian 16:  ES64L-G16RevA.03 25-Dec-2016

 --------------------------------
 #p wB97XD/Def2SVP td=(nstates=5)
 --------------------------------

 ----------------------------------------------------
 step_201_chromophore_24 TDDFT with wB97XD functional
 ----------------------------------------------------
 Symbolic Z-matrix:
 Charge =  0 Multiplicity = 1

                         Standard orientation:
 ---------------------------------------------------------------------
 Center     Atomic      Atomic             Coordinates (Angstroms)
 Number     Number       Type             X           Y           Z
 ---------------------------------------------------------------------
      1         12           0        5.341192    1.099233    0.184991
      2          6           0        4.451758   -2.280256    0.555361
      3          6           0        2.011228    1.816270   -0.503875
      4          6           0        6.205593    4.203915   -0.086405
      5          6           0        8.720833   -0.012812    0.255843
      6          7           0        3.401029   -0.124028    0.040825
      7          6           0        3.284880   -1.436967    0.357327
      8          6           0        1.828099   -1.941821    0.204053
      9          6           0        1.130143   -0.620997   -0.373524
     10          6           0        2.244738    0.483180   -0.207327
     11          6           0        0.527310   -0.731204   -1.781649
     12          6           0        1.209335   -2.386797    1.500835
     13          6           0       -0.118872   -3.200378    1.397681
     14          6           0       -0.648729   -3.573045    0.046391
     15          8           0       -0.311426   -4.527737   -0.675882
     16          8           0       -1.601246   -2.676685   -0.410792
     17          7           0        4.227406    2.841000   -0.119127
     18          6           0        2.904410    2.866669   -0.422287
     19          6           0        2.597709    4.281273   -0.525502
     20          6           0        3.799640    5.018027   -0.448897
     21          6           0        4.824039    4.072848   -0.159195
     22          6           0        1.263428    4.772435   -0.848106
     23          6           0        4.095881    6.519784   -0.617396
     24          8           0        5.140231    7.064674   -0.354981
     25          6           0        2.993984    7.418914   -1.197656
     26          7           0        7.205349    1.889163    0.069612
     27          6           0        7.245201    3.257322   -0.002206
     28          6           0        8.752051    3.666646   -0.323120
     29          6           0        9.462741    2.399500    0.058103
     30          6           0        8.468342    1.317780    0.168857
     31          6           0        8.901343    4.142677   -1.896131
     32          6           0       10.372667    2.571305    1.364529
     33          6           0        9.653259    2.275871    2.675671
     34          7           0        6.467235   -0.737831    0.249279
     35          6           0        7.780834   -1.055829    0.315491
     36          6           0        8.004642   -2.367209    0.539689
     37          6           0        6.720202   -2.960542    0.618966
     38          6           0        5.784025   -1.924400    0.430893
     39          6           0        9.375029   -3.071266    0.695876
     40          6           0        5.970200   -4.172371    0.867167
     41          8           0        6.385650   -5.250359    1.074775
     42          6           0        4.451258   -3.808734    0.830519
     43          6           0        3.789308   -4.649192   -0.286939
     44          8           0        4.142759   -4.682346   -1.481914
     45          8           0        2.983336   -5.550763    0.280883
     46          6           0        2.554690   -6.588925   -0.626507
     47          6           0       -2.323717   -3.141593   -1.651037
     48          6           0       -3.831982   -2.851931   -1.507611
     49          6           0       -4.778564   -3.712790   -1.102166
     50          6           0       -4.553816   -5.038509   -0.395239
     51          6           0       -6.256473   -3.345174   -1.220524
     52          6           0       -6.752829   -2.234706   -0.156705
     53          6           0       -7.554790   -1.092032   -0.975976
     54          6           0       -8.764738   -0.591543   -0.128518
     55          6           0       -8.346175    0.041797    1.266323
     56          6           0       -9.537354    0.349461   -1.108436
     57          6           0      -11.034510    0.288489   -1.028203
     58          6           0      -11.767920    1.547382   -1.446866
     59          6           0      -13.330827    1.378174   -1.184656
     60          6           0      -14.066184    0.981861   -2.511449
     61          6           0      -13.930778    2.708991   -0.595545
     62          6           0      -14.405871    2.606769    0.856805
     63          6           0      -13.221645    2.924588    1.823423
     64          6           0      -12.948421    1.789360    2.825460
     65          6           0      -12.924280    2.253075    4.285317
     66          6           0      -11.726428    0.931525    2.415971
     67          1           0        1.044651    2.215524   -0.818249
     68          1           0        6.572539    5.231241   -0.141315
     69          1           0        9.754122   -0.330037    0.408470
     70          1           0        1.822157   -2.696288   -0.582396
     71          1           0        0.292799   -0.290828    0.241421
     72          1           0        0.789160    0.151912   -2.363872
     73          1           0       -0.551845   -0.660801   -1.647360
     74          1           0        0.677956   -1.724612   -2.204706
     75          1           0        1.075831   -1.503172    2.123508
     76          1           0        2.005576   -2.921515    2.018630
     77          1           0       -0.789977   -2.687381    2.087047
     78          1           0        0.056706   -4.172234    1.859624
     79          1           0        0.441577    4.171872   -0.458791
     80          1           0        1.220880    4.951779   -1.921988
     81          1           0        1.203658    5.779613   -0.433765
     82          1           0        2.486816    6.845158   -1.973188
     83          1           0        3.580605    8.259319   -1.569762
     84          1           0        2.205113    7.746634   -0.521308
     85          1           0        9.019021    4.584413    0.201752
     86          1           0       10.029375    2.188377   -0.848882
     87          1           0        7.929482    4.215090   -2.384995
     88          1           0        9.383468    3.430345   -2.565154
     89          1           0        9.246890    5.174231   -1.954533
     90          1           0       10.725230    3.600406    1.296241
     91          1           0       11.258598    1.935820    1.362301
     92          1           0        8.630210    1.953335    2.482732
     93          1           0        9.566231    3.260184    3.134296
     94          1           0       10.323175    1.618166    3.229312
     95          1           0        9.913928   -2.900444   -0.236664
     96          1           0        9.267922   -4.147950    0.826662
     97          1           0        9.940836   -2.729190    1.562318
     98          1           0        3.970727   -3.970274    1.795198
     99          1           0        1.906455   -7.220474   -0.020733
    100          1           0        3.428611   -7.197681   -0.859020
    101          1           0        2.073742   -6.145285   -1.497834
    102          1           0       -2.244030   -4.210636   -1.845341
    103          1           0       -1.896493   -2.629833   -2.513790
    104          1           0       -4.315258   -1.994026   -1.974541
    105          1           0       -3.500902   -5.314272   -0.332732
    106          1           0       -4.994469   -5.889280   -0.914950
    107          1           0       -5.063675   -4.975706    0.566690
    108          1           0       -6.928028   -4.203585   -1.230710
    109          1           0       -6.245122   -2.880187   -2.206578
    110          1           0       -5.959984   -1.619133    0.269254
    111          1           0       -7.308835   -2.556759    0.723849
    112          1           0       -7.939465   -1.475643   -1.920827
    113          1           0       -6.951242   -0.221960   -1.236018
    114          1           0       -9.253812   -1.524241    0.149711
    115          1           0       -7.260077    0.095017    1.342351
    116          1           0       -8.732118   -0.505557    2.126240
    117          1           0       -8.788810    1.037414    1.276813
    118          1           0       -9.351993    0.086821   -2.150314
    119          1           0       -9.163727    1.367599   -0.999453
    120          1           0      -11.348451    0.030785   -0.016417
    121          1           0      -11.279973   -0.563236   -1.661615
    122          1           0      -11.595295    1.678760   -2.514844
    123          1           0      -11.302519    2.301470   -0.811566
    124          1           0      -13.497722    0.518894   -0.534592
    125          1           0      -13.643091    1.294524   -3.465181
    126          1           0      -15.067039    1.405658   -2.429012
    127          1           0      -14.273578   -0.088284   -2.474694
    128          1           0      -14.796444    2.941716   -1.216321
    129          1           0      -13.364184    3.626346   -0.759125
    130          1           0      -15.055533    1.751835    1.045472
    131          1           0      -15.079029    3.448750    1.024626
    132          1           0      -13.614631    3.718237    2.458757
    133          1           0      -12.256208    3.119550    1.355069
    134          1           0      -13.829828    1.163824    2.681087
    135          1           0      -13.871540    1.986113    4.754397
    136          1           0      -12.806486    3.325000    4.442450
    137          1           0      -12.111320    1.769002    4.827290
    138          1           0      -11.071376    0.673754    3.247299
    139          1           0      -11.086157    1.453589    1.705184
    140          1           0      -12.093030   -0.009981    2.005005
 ---------------------------------------------------------------------

 SCF Done:  E(RwB97XD) =  -3007.86010943     A.U. after   17 cycles

 Excitation energies and oscillator strengths:

 Excited State   1:      Singlet-A      1.7461 eV  710.05 nm  f=0.3885  <S**2>=0.000
     245 -> 248        0.19524
     246 -> 247        0.68067
     245 <- 248        0.11497
 This state for optimization and/or second-order correction.
 Total Energy, E(TD-HF/TD-DFT) =  -3007.79593980
 Copying the excited state density for this state as the 1-particle RhoCI density.

 Excited State   2:      Singlet-A      2.2318 eV  555.53 nm  f=0.1035  <S**2>=0.000
     245 -> 247        0.63715
     246 -> 248       -0.28893

 Excited State   3:      Singlet-A      3.3109 eV  374.48 nm  f=0.0009  <S**2>=0.000
     242 -> 247       -0.22799
     244 -> 247        0.65036

 Excited State   4:      Singlet-A      3.4755 eV  356.74 nm  f=0.1200  <S**2>=0.000
     242 -> 247        0.52249
     243 -> 247        0.11609
     244 -> 247        0.16761
     246 -> 248        0.38696

 Excited State   5:      Singlet-A      3.5908 eV  345.28 nm  f=0.0029  <S**2>=0.000
     236 -> 247       -0.11538
     242 -> 247       -0.10811
     243 -> 247        0.58542
     243 -> 248       -0.11938
     243 -> 249        0.22244
     243 -> 250       -0.14133
     243 -> 251        0.15634

 The electronic state is 1-A.
 Alpha  occ. eigenvalues --  -46.94489 -19.30511 -19.30042 -19.25479 -19.24739
 Alpha  occ. eigenvalues --  -19.23687 -19.23224 -14.47090 -14.45798 -14.43539
 Alpha  occ. eigenvalues --  -14.42377 -10.44232 -10.42629 -10.39691 -10.37767
 Alpha  occ. eigenvalues --  -10.36525 -10.35351 -10.35219 -10.34968 -10.34004
 Alpha  occ. eigenvalues --  -10.33955 -10.33686 -10.33633 -10.32751 -10.32548
 Alpha  occ. eigenvalues --  -10.32248 -10.32133 -10.32098 -10.31887 -10.31758
 Alpha  occ. eigenvalues --  -10.31719 -10.31551 -10.31525 -10.31470 -10.31312
 Alpha  occ. eigenvalues --  -10.31064 -10.31005 -10.30801 -10.30460 -10.30380
 Alpha  occ. eigenvalues --  -10.30379 -10.30135 -10.30021 -10.30020 -10.30009
 Alpha  occ. eigenvalues --  -10.29924 -10.29814 -10.29798 -10.29724 -10.29452
 Alpha  occ. eigenvalues --  -10.29377 -10.29345 -10.29228 -10.29066 -10.29023
 Alpha  occ. eigenvalues --  -10.28861 -10.28734 -10.28534 -10.28463 -10.28448
 Alpha  occ. eigenvalues --  -10.28430 -10.28338 -10.28315 -10.28111 -10.28063
 Alpha  occ. eigenvalues --  -10.27691  -3.20443  -1.94053  -1.93592  -1.93376
 Alpha  occ. eigenvalues --   -1.18912  -1.17916  -1.14068  -1.13843  -1.08946
 Alpha  occ. eigenvalues --   -1.08267  -1.06434  -1.05507  -1.05282  -1.04100
 Alpha  occ. eigenvalues --   -0.94111  -0.92349  -0.91893  -0.91523  -0.91235
 Alpha  occ. eigenvalues --   -0.90577  -0.89828  -0.89687  -0.88894  -0.88688
 Alpha  occ. eigenvalues --   -0.87534  -0.87070  -0.86087  -0.85305  -0.84737
 Alpha  occ. eigenvalues --   -0.84033  -0.83685  -0.83064  -0.82793  -0.82392
 Alpha  occ. eigenvalues --   -0.81463  -0.80649  -0.79959  -0.78926  -0.77881
 Alpha  occ. eigenvalues --   -0.77604  -0.77482  -0.76940  -0.76829  -0.76141
 Alpha  occ. eigenvalues --   -0.75152  -0.74614  -0.73586  -0.72880  -0.70924
 Alpha  occ. eigenvalues --   -0.70415  -0.70259  -0.69147  -0.68907  -0.67623
 Alpha  occ. eigenvalues --   -0.67074  -0.66323  -0.66071  -0.66021  -0.65730
 Alpha  occ. eigenvalues --   -0.65142  -0.64960  -0.64548  -0.63749  -0.62388
 Alpha  occ. eigenvalues --   -0.61616  -0.61213  -0.60759  -0.60315  -0.59575
 Alpha  occ. eigenvalues --   -0.59295  -0.59210  -0.58064  -0.57936  -0.57470
 Alpha  occ. eigenvalues --   -0.57291  -0.57112  -0.57016  -0.56753  -0.56348
 Alpha  occ. eigenvalues --   -0.55758  -0.55237  -0.55154  -0.54754  -0.54691
 Alpha  occ. eigenvalues --   -0.54543  -0.54319  -0.54258  -0.54052  -0.53918
 Alpha  occ. eigenvalues --   -0.53623  -0.53189  -0.52951  -0.52794  -0.52683
 Alpha  occ. eigenvalues --   -0.52551  -0.52104  -0.51978  -0.51504  -0.51388
 Alpha  occ. eigenvalues --   -0.51160  -0.51070  -0.50759  -0.50706  -0.50526
 Alpha  occ. eigenvalues --   -0.50355  -0.50038  -0.49819  -0.49709  -0.49669
 Alpha  occ. eigenvalues --   -0.49378  -0.49185  -0.48820  -0.48399  -0.48201
 Alpha  occ. eigenvalues --   -0.48109  -0.47997  -0.47827  -0.47681  -0.47455
 Alpha  occ. eigenvalues --   -0.47136  -0.47040  -0.46898  -0.46683  -0.46541
 Alpha  occ. eigenvalues --   -0.46383  -0.46286  -0.46019  -0.45942  -0.45881
 Alpha  occ. eigenvalues --   -0.45797  -0.45613  -0.45494  -0.45220  -0.45103
 Alpha  occ. eigenvalues --   -0.44965  -0.44660  -0.44570  -0.44402  -0.44103
 Alpha  occ. eigenvalues --   -0.43791  -0.43502  -0.43452  -0.43431  -0.43055
 Alpha  occ. eigenvalues --   -0.42978  -0.42162  -0.42122  -0.42091  -0.41836
 Alpha  occ. eigenvalues --   -0.41245  -0.41110  -0.41042  -0.40921  -0.40235
 Alpha  occ. eigenvalues --   -0.40129  -0.39927  -0.39762  -0.39189  -0.39067
 Alpha  occ. eigenvalues --   -0.38913  -0.38842  -0.38702  -0.38343  -0.37930
 Alpha  occ. eigenvalues --   -0.37450  -0.37443  -0.37071  -0.36957  -0.36081
 Alpha  occ. eigenvalues --   -0.35379  -0.35126  -0.35053  -0.33481  -0.33351
 Alpha  occ. eigenvalues --   -0.32614  -0.32243  -0.32090  -0.30970  -0.25966
 Alpha  occ. eigenvalues --   -0.23156
 Alpha virt. eigenvalues --   -0.06781   0.00230   0.02724   0.05243   0.05456
 Alpha virt. eigenvalues --    0.06552   0.06655   0.07672   0.08156   0.09855
 Alpha virt. eigenvalues --    0.10642   0.11681   0.11730   0.12245   0.12399

 Mulliken charges:
               1
     1  Mg   0.935235
     2  C   -0.065288
     3  C   -0.088492
     4  C   -0.079858
     5  C   -0.104860
     6  N   -0.296451
     7  C    0.004740
     8  C   -0.123667
     9  C   -0.112905
    10  C    0.094475
    11  C    0.029007
    12  C    0.043637
    13  C    0.077150
    14  C    0.198121
    15  O   -0.285716
    16  O   -0.374297
    17  N   -0.482625
    18  C    0.140903
    19  C   -0.175362
    20  C   -0.066761
    21  C    0.165003
    22  C    0.051967
    23  C    0.069606
    24  O   -0.213193
    25  C   -0.052788
    26  N   -0.426844
    27  C    0.103507
    28  C   -0.141941
    29  C    0.006355
    30  C    0.082484
    31  C   -0.002794
    32  C   -0.036631
    33  C   -0.038683
    34  N   -0.400770
    35  C    0.124773
    36  C   -0.199009
    37  C   -0.035695
    38  C    0.154876
    39  C    0.079539
    40  C    0.097298
    41  O   -0.154546
    42  C   -0.087510
    43  C    0.267019
    44  O   -0.282996
    45  O   -0.327567
    46  C    0.146329
    47  C    0.240480
    48  C   -0.107192
    49  C   -0.211035
    50  C    0.031888
    51  C    0.024712
    52  C   -0.016110
    53  C   -0.064749
    54  C   -0.186096
    55  C   -0.001401
    56  C    0.031803
    57  C   -0.051748
    58  C    0.035733
    59  C   -0.164260
    60  C   -0.003246
    61  C    0.018353
    62  C   -0.035540
    63  C    0.027043
    64  C   -0.228900
    65  C    0.006212
    66  C   -0.005131
    67  H   -0.002930
    68  H    0.022641
    69  H   -0.009112
    70  H    0.069710
    71  H    0.026551
    72  H    0.035682
    73  H    0.029703
    74  H    0.051601
    75  H    0.027620
    76  H    0.024877
    77  H    0.053983
    78  H    0.057294
    79  H    0.055480
    80  H    0.066512
    81  H    0.031062
    82  H    0.034779
    83  H    0.062044
    84  H    0.075589
    85  H    0.036632
    86  H    0.026489
    87  H    0.031680
    88  H    0.040799
    89  H    0.045520
    90  H    0.028434
    91  H    0.029372
    92  H    0.060179
    93  H    0.031824
    94  H    0.046685
    95  H    0.046460
    96  H    0.052374
    97  H    0.045244
    98  H    0.073432
    99  H    0.044630
   100  H    0.053721
   101  H    0.073127
   102  H    0.067506
   103  H    0.047439
   104  H    0.005929
   105  H    0.034407
   106  H    0.039628
   107  H    0.048570
   108  H    0.034488
   109  H    0.037276
   110  H    0.030248
   111  H    0.031612
   112  H    0.027774
   113  H    0.025230
   114  H    0.018024
   115  H    0.029312
   116  H    0.039369
   117  H    0.029091
   118  H    0.009663
   119  H    0.006679
   120  H   -0.009549
   121  H    0.010141
   122  H    0.017506
   123  H    0.012847
   124  H    0.019731
   125  H    0.040338
   126  H    0.015443
   127  H    0.024158
   128  H   -0.007086
   129  H    0.017321
   130  H    0.026032
   131  H    0.013541
   132  H    0.015136
   133  H    0.024262
   134  H    0.016157
   135  H    0.029178
   136  H    0.027554
   137  H    0.019843
   138  H    0.020171
   139  H    0.017887
   140  H    0.051864
 Sum of Mulliken charges =  -0.00000

 Dipole moment (field-independent basis, Debye):
    X=             -6.8240    Y=              3.0168    Z=              1.0346  Tot=              7.5325
 Quadrupole moment (field-independent basis, Debye-Ang):
   XX=           -382.5573   YY=           -423.2654   ZZ=           -400.7811
   XY=             28.1991   XZ=              3.7090   YZ=             -9.9809

 Normal termination of Gaussian 16 at Wed May  4 17:40:41 2022.
