 Gaussian 16, Revision A.03,
 Gaussian 16:  ES64L-G16RevA.03 25-Dec-2016

 --------------------
 #p ZINDO=(nstates=5)
 --------------------

 -----------------------------
 step_201_chromophore_24 ZINDO
 -----------------------------
 Symbolic Z-matrix:
 Charge =  0 Multiplicity = 1

                         Standard orientation:
 ---------------------------------------------------------------------
 Center     Atomic      Atomic             Coordinates (Angstroms)
 Number     Number       Type             X           Y           Z
 ---------------------------------------------------------------------
      1         12           0        5.341192    1.099233    0.184991
      2          6           0        4.451758   -2.280256    0.555361
      3          6           0        2.011228    1.816270   -0.503875
      4          6           0        6.205593    4.203915   -0.086405
      5          6           0        8.720833   -0.012812    0.255843
      6          7           0        3.401029   -0.124028    0.040825
      7          6           0        3.284880   -1.436967    0.357327
      8          6           0        1.828099   -1.941821    0.204053
      9          6           0        1.130143   -0.620997   -0.373524
     10          6           0        2.244738    0.483180   -0.207327
     11          6           0        0.527310   -0.731204   -1.781649
     12          6           0        1.209335   -2.386797    1.500835
     13          6           0       -0.118872   -3.200378    1.397681
     14          6           0       -0.648729   -3.573045    0.046391
     15          8           0       -0.311426   -4.527737   -0.675882
     16          8           0       -1.601246   -2.676685   -0.410792
     17          7           0        4.227406    2.841000   -0.119127
     18          6           0        2.904410    2.866669   -0.422287
     19          6           0        2.597709    4.281273   -0.525502
     20          6           0        3.799640    5.018027   -0.448897
     21          6           0        4.824039    4.072848   -0.159195
     22          6           0        1.263428    4.772435   -0.848106
     23          6           0        4.095881    6.519784   -0.617396
     24          8           0        5.140231    7.064674   -0.354981
     25          6           0        2.993984    7.418914   -1.197656
     26          7           0        7.205349    1.889163    0.069612
     27          6           0        7.245201    3.257322   -0.002206
     28          6           0        8.752051    3.666646   -0.323120
     29          6           0        9.462741    2.399500    0.058103
     30          6           0        8.468342    1.317780    0.168857
     31          6           0        8.901343    4.142677   -1.896131
     32          6           0       10.372667    2.571305    1.364529
     33          6           0        9.653259    2.275871    2.675671
     34          7           0        6.467235   -0.737831    0.249279
     35          6           0        7.780834   -1.055829    0.315491
     36          6           0        8.004642   -2.367209    0.539689
     37          6           0        6.720202   -2.960542    0.618966
     38          6           0        5.784025   -1.924400    0.430893
     39          6           0        9.375029   -3.071266    0.695876
     40          6           0        5.970200   -4.172371    0.867167
     41          8           0        6.385650   -5.250359    1.074775
     42          6           0        4.451258   -3.808734    0.830519
     43          6           0        3.789308   -4.649192   -0.286939
     44          8           0        4.142759   -4.682346   -1.481914
     45          8           0        2.983336   -5.550763    0.280883
     46          6           0        2.554690   -6.588925   -0.626507
     47          6           0       -2.323717   -3.141593   -1.651037
     48          6           0       -3.831982   -2.851931   -1.507611
     49          6           0       -4.778564   -3.712790   -1.102166
     50          6           0       -4.553816   -5.038509   -0.395239
     51          6           0       -6.256473   -3.345174   -1.220524
     52          6           0       -6.752829   -2.234706   -0.156705
     53          6           0       -7.554790   -1.092032   -0.975976
     54          6           0       -8.764738   -0.591543   -0.128518
     55          6           0       -8.346175    0.041797    1.266323
     56          6           0       -9.537354    0.349461   -1.108436
     57          6           0      -11.034510    0.288489   -1.028203
     58          6           0      -11.767920    1.547382   -1.446866
     59          6           0      -13.330827    1.378174   -1.184656
     60          6           0      -14.066184    0.981861   -2.511449
     61          6           0      -13.930778    2.708991   -0.595545
     62          6           0      -14.405871    2.606769    0.856805
     63          6           0      -13.221645    2.924588    1.823423
     64          6           0      -12.948421    1.789360    2.825460
     65          6           0      -12.924280    2.253075    4.285317
     66          6           0      -11.726428    0.931525    2.415971
     67          1           0        1.044651    2.215524   -0.818249
     68          1           0        6.572539    5.231241   -0.141315
     69          1           0        9.754122   -0.330037    0.408470
     70          1           0        1.822157   -2.696288   -0.582396
     71          1           0        0.292799   -0.290828    0.241421
     72          1           0        0.789160    0.151912   -2.363872
     73          1           0       -0.551845   -0.660801   -1.647360
     74          1           0        0.677956   -1.724612   -2.204706
     75          1           0        1.075831   -1.503172    2.123508
     76          1           0        2.005576   -2.921515    2.018630
     77          1           0       -0.789977   -2.687381    2.087047
     78          1           0        0.056706   -4.172234    1.859624
     79          1           0        0.441577    4.171872   -0.458791
     80          1           0        1.220880    4.951779   -1.921988
     81          1           0        1.203658    5.779613   -0.433765
     82          1           0        2.486816    6.845158   -1.973188
     83          1           0        3.580605    8.259319   -1.569762
     84          1           0        2.205113    7.746634   -0.521308
     85          1           0        9.019021    4.584413    0.201752
     86          1           0       10.029375    2.188377   -0.848882
     87          1           0        7.929482    4.215090   -2.384995
     88          1           0        9.383468    3.430345   -2.565154
     89          1           0        9.246890    5.174231   -1.954533
     90          1           0       10.725230    3.600406    1.296241
     91          1           0       11.258598    1.935820    1.362301
     92          1           0        8.630210    1.953335    2.482732
     93          1           0        9.566231    3.260184    3.134296
     94          1           0       10.323175    1.618166    3.229312
     95          1           0        9.913928   -2.900444   -0.236664
     96          1           0        9.267922   -4.147950    0.826662
     97          1           0        9.940836   -2.729190    1.562318
     98          1           0        3.970727   -3.970274    1.795198
     99          1           0        1.906455   -7.220474   -0.020733
    100          1           0        3.428611   -7.197681   -0.859020
    101          1           0        2.073742   -6.145285   -1.497834
    102          1           0       -2.244030   -4.210636   -1.845341
    103          1           0       -1.896493   -2.629833   -2.513790
    104          1           0       -4.315258   -1.994026   -1.974541
    105          1           0       -3.500902   -5.314272   -0.332732
    106          1           0       -4.994469   -5.889280   -0.914950
    107          1           0       -5.063675   -4.975706    0.566690
    108          1           0       -6.928028   -4.203585   -1.230710
    109          1           0       -6.245122   -2.880187   -2.206578
    110          1           0       -5.959984   -1.619133    0.269254
    111          1           0       -7.308835   -2.556759    0.723849
    112          1           0       -7.939465   -1.475643   -1.920827
    113          1           0       -6.951242   -0.221960   -1.236018
    114          1           0       -9.253812   -1.524241    0.149711
    115          1           0       -7.260077    0.095017    1.342351
    116          1           0       -8.732118   -0.505557    2.126240
    117          1           0       -8.788810    1.037414    1.276813
    118          1           0       -9.351993    0.086821   -2.150314
    119          1           0       -9.163727    1.367599   -0.999453
    120          1           0      -11.348451    0.030785   -0.016417
    121          1           0      -11.279973   -0.563236   -1.661615
    122          1           0      -11.595295    1.678760   -2.514844
    123          1           0      -11.302519    2.301470   -0.811566
    124          1           0      -13.497722    0.518894   -0.534592
    125          1           0      -13.643091    1.294524   -3.465181
    126          1           0      -15.067039    1.405658   -2.429012
    127          1           0      -14.273578   -0.088284   -2.474694
    128          1           0      -14.796444    2.941716   -1.216321
    129          1           0      -13.364184    3.626346   -0.759125
    130          1           0      -15.055533    1.751835    1.045472
    131          1           0      -15.079029    3.448750    1.024626
    132          1           0      -13.614631    3.718237    2.458757
    133          1           0      -12.256208    3.119550    1.355069
    134          1           0      -13.829828    1.163824    2.681087
    135          1           0      -13.871540    1.986113    4.754397
    136          1           0      -12.806486    3.325000    4.442450
    137          1           0      -12.111320    1.769002    4.827290
    138          1           0      -11.071376    0.673754    3.247299
    139          1           0      -11.086157    1.453589    1.705184
    140          1           0      -12.093030   -0.009981    2.005005
 ---------------------------------------------------------------------

 SCF Done:  E(RZINDO/S) =  -474.380248032     A.U. after   19 cycles

 Excitation energies and oscillator strengths:

 Excited State   1:      Singlet-A      1.3160 eV  942.12 nm  f=0.5927  <S**2>=0.000
     175 ->178        -0.19238
     176 ->177         0.66250
 This state for optimization and/or second-order correction.
 Total Energy, E(CIS/TDA) =  -474.331885542
 Copying the excited state density for this state as the 1-particle RhoCI density.

 Excited State   2:      Singlet-A      1.9674 eV  630.20 nm  f=0.0420  <S**2>=0.000
     175 ->177         0.54672
     176 ->178         0.42027

 Excited State   3:      Singlet-A      2.9899 eV  414.67 nm  f=0.3403  <S**2>=0.000
     170 ->177         0.29107
     170 ->178         0.18129
     170 ->179         0.19150
     170 ->181        -0.21206
     170 ->186         0.16904
     170 ->187        -0.10387
     175 ->177         0.20773
     176 ->178        -0.29685
     176 ->179        -0.14595

 Excited State   4:      Singlet-A      3.0256 eV  409.79 nm  f=0.6463  <S**2>=0.000
     170 ->177         0.21425
     170 ->178         0.12833
     170 ->179         0.14717
     170 ->181        -0.16628
     170 ->186         0.13510
     175 ->177        -0.28637
     176 ->178         0.40497
     176 ->179         0.17968

 Excited State   5:      Singlet-A      3.0505 eV  406.44 nm  f=0.0231  <S**2>=0.000
     167 ->177         0.18181
     167 ->179        -0.31581
     167 ->181        -0.17287
     167 ->182        -0.10081
     167 ->186        -0.16214
     168 ->177         0.20306
     168 ->179        -0.29827
     168 ->181        -0.16014
     168 ->186        -0.14842
     169 ->179        -0.12286

 The electronic state is 1-A.
 Alpha  occ. eigenvalues --   -1.84729  -1.82905  -1.80799  -1.73983  -1.73559
 Alpha  occ. eigenvalues --   -1.70503  -1.65564  -1.60982  -1.60293  -1.60173
 Alpha  occ. eigenvalues --   -1.54292  -1.51019  -1.48424  -1.47779  -1.45915
 Alpha  occ. eigenvalues --   -1.43293  -1.42277  -1.41334  -1.40384  -1.38428
 Alpha  occ. eigenvalues --   -1.35832  -1.33766  -1.32067  -1.31227  -1.28655
 Alpha  occ. eigenvalues --   -1.26489  -1.25415  -1.22179  -1.20672  -1.18630
 Alpha  occ. eigenvalues --   -1.18168  -1.16693  -1.15190  -1.14249  -1.12955
 Alpha  occ. eigenvalues --   -1.12077  -1.11046  -1.10883  -1.04608  -1.03262
 Alpha  occ. eigenvalues --   -1.02971  -1.00744  -1.00102  -0.97445  -0.96749
 Alpha  occ. eigenvalues --   -0.95747  -0.94760  -0.93743  -0.93271  -0.93019
 Alpha  occ. eigenvalues --   -0.90365  -0.90275  -0.87582  -0.87559  -0.85887
 Alpha  occ. eigenvalues --   -0.85056  -0.83608  -0.82886  -0.81105  -0.79752
 Alpha  occ. eigenvalues --   -0.79140  -0.78684  -0.78321  -0.76766  -0.76429
 Alpha  occ. eigenvalues --   -0.76181  -0.75740  -0.75370  -0.74996  -0.74125
 Alpha  occ. eigenvalues --   -0.73685  -0.73085  -0.72175  -0.72016  -0.71223
 Alpha  occ. eigenvalues --   -0.70396  -0.69444  -0.69282  -0.68892  -0.68431
 Alpha  occ. eigenvalues --   -0.66869  -0.66651  -0.66548  -0.66161  -0.65754
 Alpha  occ. eigenvalues --   -0.64853  -0.64593  -0.63760  -0.63144  -0.63097
 Alpha  occ. eigenvalues --   -0.62521  -0.62425  -0.62091  -0.61834  -0.61575
 Alpha  occ. eigenvalues --   -0.61358  -0.60891  -0.60678  -0.60336  -0.60105
 Alpha  occ. eigenvalues --   -0.59404  -0.59255  -0.58831  -0.58710  -0.58309
 Alpha  occ. eigenvalues --   -0.58234  -0.57753  -0.57004  -0.56408  -0.56183
 Alpha  occ. eigenvalues --   -0.55856  -0.55584  -0.55225  -0.55156  -0.54756
 Alpha  occ. eigenvalues --   -0.54296  -0.54084  -0.53774  -0.53016  -0.52667
 Alpha  occ. eigenvalues --   -0.52193  -0.52077  -0.51889  -0.51643  -0.51585
 Alpha  occ. eigenvalues --   -0.51115  -0.50965  -0.50698  -0.50504  -0.50355
 Alpha  occ. eigenvalues --   -0.49676  -0.49386  -0.49257  -0.49109  -0.48823
 Alpha  occ. eigenvalues --   -0.48579  -0.48554  -0.48248  -0.47659  -0.47475
 Alpha  occ. eigenvalues --   -0.47377  -0.47166  -0.47047  -0.46745  -0.46579
 Alpha  occ. eigenvalues --   -0.46459  -0.46070  -0.45943  -0.45357  -0.45080
 Alpha  occ. eigenvalues --   -0.44897  -0.44640  -0.44579  -0.44406  -0.43759
 Alpha  occ. eigenvalues --   -0.43121  -0.42959  -0.42748  -0.42418  -0.42266
 Alpha  occ. eigenvalues --   -0.40812  -0.40674  -0.40619  -0.39390  -0.39233
 Alpha  occ. eigenvalues --   -0.37804  -0.36088  -0.35361  -0.35154  -0.33804
 Alpha  occ. eigenvalues --   -0.33320  -0.32942  -0.32391  -0.31689  -0.26463
 Alpha  occ. eigenvalues --   -0.21920
 Alpha virt. eigenvalues --   -0.08213  -0.02120  -0.00083   0.00876   0.01704
 Alpha virt. eigenvalues --    0.02867   0.03060   0.03751   0.04409   0.05168
 Alpha virt. eigenvalues --    0.06555   0.06795   0.07281   0.07789   0.08483

 Mulliken charges:
               1
     1  Mg   0.421243
     2  C   -0.022845
     3  C   -0.064430
     4  C   -0.069952
     5  C   -0.073317
     6  N   -0.247965
     7  C    0.079881
     8  C    0.007080
     9  C   -0.009823
    10  C    0.133729
    11  C   -0.053354
    12  C   -0.010690
    13  C    0.008574
    14  C    0.479564
    15  O   -0.524170
    16  O   -0.274443
    17  N   -0.339820
    18  C    0.109832
    19  C    0.033865
    20  C   -0.049568
    21  C    0.154534
    22  C   -0.044073
    23  C    0.325073
    24  O   -0.504498
    25  C   -0.040174
    26  N   -0.287330
    27  C    0.152012
    28  C   -0.001536
    29  C    0.013225
    30  C    0.127517
    31  C   -0.065680
    32  C   -0.033500
    33  C   -0.059463
    34  N   -0.345301
    35  C    0.119730
    36  C    0.009348
    37  C   -0.052432
    38  C    0.089493
    39  C   -0.044810
    40  C    0.346306
    41  O   -0.501024
    42  C    0.049135
    43  C    0.481434
    44  O   -0.526805
    45  O   -0.253767
    46  C    0.078871
    47  C    0.106739
    48  C   -0.107635
    49  C    0.010578
    50  C   -0.045359
    51  C   -0.025192
    52  C   -0.047058
    53  C   -0.045930
    54  C   -0.023035
    55  C   -0.061018
    56  C   -0.031796
    57  C   -0.039334
    58  C   -0.038437
    59  C   -0.015564
    60  C   -0.064688
    61  C   -0.036232
    62  C   -0.036485
    63  C   -0.038321
    64  C   -0.017518
    65  C   -0.054610
    66  C   -0.060128
    67  H    0.031079
    68  H    0.039770
    69  H    0.018598
    70  H    0.050766
    71  H    0.019329
    72  H    0.028470
    73  H    0.011661
    74  H    0.038794
    75  H    0.022365
    76  H    0.022662
    77  H    0.038599
    78  H    0.035917
    79  H    0.032515
    80  H    0.038007
    81  H    0.019781
    82  H    0.026160
    83  H    0.041735
    84  H    0.044287
    85  H    0.031775
    86  H    0.025384
    87  H    0.016014
    88  H    0.030758
    89  H    0.028039
    90  H    0.016593
    91  H    0.017915
    92  H    0.037521
    93  H    0.014751
    94  H    0.030389
    95  H    0.027143
    96  H    0.028281
    97  H    0.027451
    98  H    0.051749
    99  H    0.025320
   100  H    0.045319
   101  H    0.059182
   102  H    0.059389
   103  H    0.042337
   104  H    0.028413
   105  H    0.025380
   106  H    0.024943
   107  H    0.029573
   108  H    0.029150
   109  H    0.024229
   110  H    0.019819
   111  H    0.032919
   112  H    0.017415
   113  H    0.021057
   114  H    0.021647
   115  H    0.022601
   116  H    0.021767
   117  H    0.019052
   118  H    0.014341
   119  H    0.016871
   120  H    0.017764
   121  H    0.011625
   122  H    0.025973
   123  H    0.024732
   124  H    0.029267
   125  H    0.030352
   126  H    0.011763
   127  H    0.014337
   128  H    0.003657
   129  H    0.023501
   130  H    0.034151
   131  H    0.003439
   132  H    0.018774
   133  H    0.033637
   134  H    0.015890
   135  H    0.015451
   136  H    0.019273
   137  H    0.015734
   138  H    0.014917
   139  H    0.022947
   140  H    0.019184
 Sum of Mulliken charges =  -0.00000

 Dipole moment (field-independent basis, Debye):
    X=             -8.9418    Y=              5.9039    Z=              1.6062  Tot=             10.8347
 N-N= 4.328879483743D+03 E-N= 0.000000000000D+00  KE=-9.332428962851D+03
 Leave Link  601 at Wed May  4 18:03:23 2022, MaxMem=  6710886400 cpu:               0.7 elap:               0.0
 (Enter /sw/apps/gaussian-16.0/g16/l9999.exe)
 1\1\GINC-BP1-COMPUTE192\SP\RZINDO CIS\STO-3G\C55H74Mg1N4O6\OF15641\04-
 May-2022\0\\#p ZINDO=(nstates=5)\\step_201_chromophore_24 ZINDO\\0,1\M
 g,0,-0.157,43.853,24.711\C,0,2.064,43.7,27.43\C,0,-2.696,42.783,26.829
 \C,0,-2.169,44.068,22.188\C,0,2.725,44.277,22.667\N,0,-0.304,43.293,26
 .935\C,0,0.695,43.436,27.84\C,0,0.249,43.019,29.264\C,0,-1.236,42.504,
 28.956\C,0,-1.476,42.954,27.463\C,0,-1.514,41.021,29.242\C,0,0.26,44.1
 54,30.251\C,0,0.14,43.769,31.759\C,0,0.118,42.322,32.148\O,0,1.082,41.

 Normal termination of Gaussian 16 at Wed May  4 18:03:23 2022.
