 Gaussian 16, Revision A.03,
 Gaussian 16:  ES64L-G16RevA.03 25-Dec-2016

 ------------------------------
 #p blyp/Def2SVP td=(nstates=5)
 ------------------------------

 ---------------------------------------------------
 step_1751_chromophore_11 TDDFT with blyp functional
 ---------------------------------------------------
 Symbolic Z-matrix:
 Charge =  0 Multiplicity = 1

                         Standard orientation:
 ---------------------------------------------------------------------
 Center     Atomic      Atomic             Coordinates (Angstroms)
 Number     Number       Type             X           Y           Z
 ---------------------------------------------------------------------
      1         12           0       -4.434683    1.551635    0.443865
      2          6           0       -5.624616   -1.745684   -0.069128
      3          6           0       -2.718320    0.583389    3.086009
      4          6           0       -3.177606    4.672672    0.525131
      5          6           0       -6.414046    2.453333   -2.437660
      6          7           0       -3.976232   -0.458139    1.200207
      7          6           0       -4.606040   -1.668801    0.944928
      8          6           0       -4.363641   -2.689417    2.069601
      9          6           0       -3.626604   -1.825283    3.223340
     10          6           0       -3.368526   -0.466567    2.445482
     11          6           0       -4.340179   -1.710977    4.675578
     12          6           0       -3.613907   -4.093923    1.743792
     13          6           0       -2.444392   -4.056152    0.727501
     14          6           0       -1.037772   -4.262141    1.198588
     15          8           0       -0.569685   -4.035640    2.304432
     16          8           0       -0.343683   -4.841961    0.183389
     17          7           0       -3.048071    2.470052    1.573722
     18          6           0       -2.452813    1.866038    2.658556
     19          6           0       -1.566948    2.899936    3.239212
     20          6           0       -1.741946    4.147995    2.603997
     21          6           0       -2.664940    3.836185    1.495161
     22          6           0       -0.695754    2.542283    4.374425
     23          6           0       -1.053171    5.412462    2.899263
     24          8           0       -0.392316    5.440334    3.943845
     25          6           0       -1.246994    6.709690    2.150075
     26          7           0       -4.568478    3.148086   -0.887567
     27          6           0       -4.001212    4.349849   -0.559396
     28          6           0       -4.291412    5.485384   -1.529908
     29          6           0       -5.250093    4.725099   -2.452072
     30          6           0       -5.495679    3.337044   -1.831265
     31          6           0       -4.818127    6.841591   -0.903101
     32          6           0       -4.834599    4.495312   -3.929585
     33          6           0       -3.686686    3.470587   -4.191231
     34          7           0       -5.815113    0.584373   -0.950439
     35          6           0       -6.599040    1.114423   -1.967530
     36          6           0       -7.467795    0.121114   -2.485061
     37          6           0       -7.126402   -1.126887   -1.792126
     38          6           0       -6.105105   -0.677219   -0.869799
     39          6           0       -8.463533    0.178938   -3.557626
     40          6           0       -7.394021   -2.500815   -1.677827
     41          8           0       -8.169483   -3.280064   -2.187322
     42          6           0       -6.464677   -3.001580   -0.493017
     43          6           0       -5.763363   -4.146225   -0.996124
     44          8           0       -4.965946   -4.077016   -1.912160
     45          8           0       -6.004229   -5.336563   -0.356622
     46          6           0       -5.260171   -6.525131   -0.858407
     47          6           0        1.059806   -5.188612    0.531560
     48          6           0        1.837739   -4.357343   -0.352632
     49          6           0        3.114358   -3.904988   -0.180698
     50          6           0        4.025065   -4.227962    1.064429
     51          6           0        3.835146   -3.099591   -1.324153
     52          6           0        4.259927   -1.673334   -0.961322
     53          6           0        5.814377   -1.418434   -1.181406
     54          6           0        6.095755    0.055905   -0.682906
     55          6           0        6.524504    0.899321   -1.940126
     56          6           0        7.247139    0.057874    0.359020
     57          6           0        8.576771   -0.605663   -0.116320
     58          6           0        9.702371    0.415360   -0.472378
     59          6           0       11.026590    0.074475    0.198346
     60          6           0       10.873631    0.256006    1.748299
     61          6           0       12.061045    1.149771   -0.200316
     62          6           0       12.850694    0.646497   -1.416940
     63          6           0       14.223959   -0.083671   -1.110026
     64          6           0       15.484510    0.661705   -1.484727
     65          6           0       16.678442   -0.271480   -1.605826
     66          6           0       15.722583    1.891685   -0.596047
     67          1           0       -2.286520    0.341290    4.059826
     68          1           0       -3.023790    5.750265    0.611420
     69          1           0       -6.932684    2.847499   -3.313932
     70          1           0       -5.334433   -2.806648    2.551779
     71          1           0       -2.675042   -2.302500    3.454918
     72          1           0       -4.364283   -0.645071    4.899886
     73          1           0       -3.778187   -2.307053    5.393981
     74          1           0       -5.372623   -2.059949    4.648973
     75          1           0       -4.311585   -4.878338    1.448599
     76          1           0       -3.255888   -4.466047    2.703621
     77          1           0       -2.591394   -3.135195    0.162555
     78          1           0       -2.663801   -4.775302   -0.061588
     79          1           0        0.324099    2.924476    4.335510
     80          1           0       -0.551525    1.463594    4.432990
     81          1           0       -1.054459    2.860387    5.353416
     82          1           0       -0.572472    7.466892    2.549993
     83          1           0       -2.287048    7.038097    2.125833
     84          1           0       -0.994048    6.408533    1.133883
     85          1           0       -3.343857    5.643674   -2.044845
     86          1           0       -6.214089    5.232718   -2.475796
     87          1           0       -5.470536    7.453893   -1.526686
     88          1           0       -3.936400    7.430804   -0.653897
     89          1           0       -5.397775    6.664699    0.001651
     90          1           0       -4.374362    5.428063   -4.254242
     91          1           0       -5.780964    4.266425   -4.419585
     92          1           0       -3.215566    2.962632   -3.348962
     93          1           0       -2.887893    3.943444   -4.761767
     94          1           0       -4.038466    2.621323   -4.777675
     95          1           0       -8.386792   -0.810182   -4.008964
     96          1           0       -8.206934    0.895840   -4.336612
     97          1           0       -9.431073    0.288021   -3.066758
     98          1           0       -7.119987   -3.378779    0.292097
     99          1           0       -4.229468   -6.509738   -0.503227
    100          1           0       -5.391615   -6.767904   -1.912013
    101          1           0       -5.688383   -7.391704   -0.355297
    102          1           0        1.159090   -6.242936    0.271157
    103          1           0        1.362282   -5.027192    1.566436
    104          1           0        1.260337   -4.122880   -1.247760
    105          1           0        4.448517   -3.323900    1.500735
    106          1           0        4.800438   -4.947040    0.802487
    107          1           0        3.496423   -4.622099    1.931875
    108          1           0        3.142177   -3.119246   -2.165631
    109          1           0        4.742753   -3.601573   -1.659049
    110          1           0        3.950719   -1.395536    0.046328
    111          1           0        3.780391   -1.004577   -1.676792
    112          1           0        6.021535   -1.597896   -2.235855
    113          1           0        6.341265   -2.014928   -0.436459
    114          1           0        5.308982    0.571058   -0.131189
    115          1           0        5.924359    1.802302   -2.049614
    116          1           0        6.572621    0.327306   -2.866252
    117          1           0        7.543895    1.274995   -1.854678
    118          1           0        6.827808   -0.363326    1.272614
    119          1           0        7.468375    1.118070    0.475653
    120          1           0        8.410739   -1.256720   -0.974686
    121          1           0        8.884214   -1.292518    0.671611
    122          1           0        9.466359    1.474989   -0.377455
    123          1           0        9.809405    0.126863   -1.518135
    124          1           0       11.374218   -0.919404   -0.081043
    125          1           0       11.092874    1.279970    2.052317
    126          1           0       11.590920   -0.451344    2.164671
    127          1           0        9.921897    0.013385    2.220518
    128          1           0       12.664586    1.502509    0.635581
    129          1           0       11.546228    2.057155   -0.514630
    130          1           0       12.842891    1.462613   -2.139040
    131          1           0       12.256613   -0.110407   -1.928152
    132          1           0       14.175595   -1.043339   -1.623350
    133          1           0       14.378655   -0.117173   -0.032089
    134          1           0       15.254433    0.870121   -2.530232
    135          1           0       16.962152   -0.574455   -0.598777
    136          1           0       17.476287    0.173358   -2.200734
    137          1           0       16.419042   -1.238336   -2.037778
    138          1           0       15.708640    2.794510   -1.206946
    139          1           0       16.695782    1.758247   -0.123089
    140          1           0       14.984811    2.154006    0.162367
 ---------------------------------------------------------------------

 SCF Done:  E(RB-LYP) =  -3007.37420294     A.U. after   22 cycles

 Excitation energies and oscillator strengths:

 Excited State   1:      Singlet-A      1.7577 eV  705.36 nm  f=0.2776  <S**2>=0.000
     244 -> 247        0.11151
     245 -> 248        0.18762
     246 -> 247        0.67753
     246 <- 247       -0.15291
 This state for optimization and/or second-order correction.
 Total Energy, E(TD-HF/TD-DFT) =  -3007.30960746
 Copying the excited state density for this state as the 1-particle RhoCI density.

 Excited State   2:      Singlet-A      1.7775 eV  697.52 nm  f=0.0077  <S**2>=0.000
     244 -> 247        0.68677
     245 -> 247       -0.10806

 Excited State   3:      Singlet-A      1.8276 eV  678.39 nm  f=0.0201  <S**2>=0.000
     243 -> 247        0.64054
     245 -> 247        0.25417
     246 -> 247       -0.10314

 Excited State   4:      Singlet-A      2.0033 eV  618.90 nm  f=0.0555  <S**2>=0.000
     243 -> 247       -0.26612
     245 -> 247        0.58163
     246 -> 248       -0.25277

 Excited State   5:      Singlet-A      2.2206 eV  558.33 nm  f=0.0000  <S**2>=0.000
     242 -> 247        0.70706

 The electronic state is 1-A.
 Alpha  occ. eigenvalues --  -46.27186 -18.81873 -18.81672 -18.76691 -18.75282
 Alpha  occ. eigenvalues --  -18.75162 -18.75150 -14.03956 -14.03770 -14.01434
 Alpha  occ. eigenvalues --  -14.00993 -10.03890 -10.02625  -9.99797  -9.99080
 Alpha  occ. eigenvalues --   -9.97715  -9.97412  -9.97233  -9.97127  -9.96922
 Alpha  occ. eigenvalues --   -9.96498  -9.96461  -9.95938  -9.95656  -9.94744
 Alpha  occ. eigenvalues --   -9.94602  -9.94412  -9.94372  -9.94214  -9.94086
 Alpha  occ. eigenvalues --   -9.93671  -9.93632  -9.93450  -9.93424  -9.93304
 Alpha  occ. eigenvalues --   -9.93252  -9.93240  -9.93063  -9.93000  -9.92988
 Alpha  occ. eigenvalues --   -9.92943  -9.92872  -9.92840  -9.92692  -9.92399
 Alpha  occ. eigenvalues --   -9.92118  -9.91762  -9.91750  -9.91617  -9.91597
 Alpha  occ. eigenvalues --   -9.91403  -9.91307  -9.91262  -9.91236  -9.91234
 Alpha  occ. eigenvalues --   -9.91109  -9.90862  -9.90779  -9.90768  -9.90722
 Alpha  occ. eigenvalues --   -9.90716  -9.90708  -9.90579  -9.90513  -9.90399
 Alpha  occ. eigenvalues --   -9.90294  -2.91901  -1.72309  -1.71780  -1.71629
 Alpha  occ. eigenvalues --   -0.97974  -0.96998  -0.91569  -0.91004  -0.89723
 Alpha  occ. eigenvalues --   -0.88563  -0.87444  -0.86584  -0.85036  -0.84156
 Alpha  occ. eigenvalues --   -0.74723  -0.73234  -0.72771  -0.72623  -0.72502
 Alpha  occ. eigenvalues --   -0.71996  -0.71329  -0.70971  -0.70829  -0.70704
 Alpha  occ. eigenvalues --   -0.69812  -0.68839  -0.68131  -0.67480  -0.67110
 Alpha  occ. eigenvalues --   -0.66167  -0.66009  -0.65450  -0.64902  -0.64258
 Alpha  occ. eigenvalues --   -0.63110  -0.62619  -0.62027  -0.61847  -0.61143
 Alpha  occ. eigenvalues --   -0.60392  -0.60300  -0.59893  -0.59500  -0.58902
 Alpha  occ. eigenvalues --   -0.58109  -0.57642  -0.57242  -0.55482  -0.55379
 Alpha  occ. eigenvalues --   -0.54324  -0.54175  -0.53306  -0.51770  -0.51627
 Alpha  occ. eigenvalues --   -0.51493  -0.50976  -0.50747  -0.50391  -0.49404
 Alpha  occ. eigenvalues --   -0.49347  -0.48164  -0.47974  -0.47404  -0.46487
 Alpha  occ. eigenvalues --   -0.46443  -0.45978  -0.45595  -0.44804  -0.44377
 Alpha  occ. eigenvalues --   -0.43954  -0.43668  -0.43293  -0.42708  -0.42354
 Alpha  occ. eigenvalues --   -0.41866  -0.41624  -0.41593  -0.41382  -0.41238
 Alpha  occ. eigenvalues --   -0.41063  -0.40800  -0.40509  -0.40252  -0.39992
 Alpha  occ. eigenvalues --   -0.39943  -0.39514  -0.39278  -0.39168  -0.39011
 Alpha  occ. eigenvalues --   -0.38945  -0.38926  -0.38698  -0.38315  -0.38186
 Alpha  occ. eigenvalues --   -0.37732  -0.37668  -0.37358  -0.37268  -0.37077
 Alpha  occ. eigenvalues --   -0.36986  -0.36800  -0.36531  -0.36318  -0.36269
 Alpha  occ. eigenvalues --   -0.36231  -0.36159  -0.35827  -0.35775  -0.35532
 Alpha  occ. eigenvalues --   -0.35300  -0.35265  -0.34935  -0.34752  -0.34474
 Alpha  occ. eigenvalues --   -0.34420  -0.34278  -0.33908  -0.33768  -0.33681
 Alpha  occ. eigenvalues --   -0.33560  -0.33484  -0.33157  -0.33028  -0.32849
 Alpha  occ. eigenvalues --   -0.32780  -0.32540  -0.32366  -0.32202  -0.31933
 Alpha  occ. eigenvalues --   -0.31858  -0.31815  -0.31564  -0.31513  -0.31373
 Alpha  occ. eigenvalues --   -0.31275  -0.31192  -0.30991  -0.30792  -0.30702
 Alpha  occ. eigenvalues --   -0.30428  -0.30314  -0.30197  -0.30029  -0.29946
 Alpha  occ. eigenvalues --   -0.29886  -0.29762  -0.29369  -0.29307  -0.29028
 Alpha  occ. eigenvalues --   -0.28765  -0.28697  -0.28062  -0.27683  -0.27573
 Alpha  occ. eigenvalues --   -0.27287  -0.27221  -0.26769  -0.26690  -0.26623
 Alpha  occ. eigenvalues --   -0.26096  -0.25892  -0.25643  -0.25068  -0.24612
 Alpha  occ. eigenvalues --   -0.24569  -0.24503  -0.24301  -0.23971  -0.23489
 Alpha  occ. eigenvalues --   -0.23328  -0.22296  -0.21984  -0.20811  -0.20555
 Alpha  occ. eigenvalues --   -0.20380  -0.20142  -0.18646  -0.18444  -0.17706
 Alpha  occ. eigenvalues --   -0.16062
 Alpha virt. eigenvalues --   -0.11982  -0.07522  -0.06680  -0.04708  -0.02915
 Alpha virt. eigenvalues --   -0.02373  -0.02190  -0.01846  -0.01689  -0.00005
 Alpha virt. eigenvalues --    0.01010   0.01864   0.02189   0.02727   0.02977

 Mulliken charges:
               1
     1  Mg   0.686777
     2  C    0.018473
     3  C   -0.063992
     4  C   -0.077371
     5  C   -0.093958
     6  N   -0.235908
     7  C   -0.063725
     8  C    0.046714
     9  C   -0.054272
    10  C    0.044478
    11  C    0.104742
    12  C    0.122957
    13  C    0.089939
    14  C    0.092950
    15  O   -0.188998
    16  O   -0.272661
    17  N   -0.360939
    18  C    0.171669
    19  C   -0.108940
    20  C    0.088961
    21  C    0.165659
    22  C    0.169311
    23  C   -0.123225
    24  O   -0.185875
    25  C    0.157217
    26  N   -0.222310
    27  C    0.004955
    28  C    0.051591
    29  C    0.030148
    30  C    0.017993
    31  C    0.115284
    32  C    0.079436
    33  C    0.054565
    34  N   -0.179312
    35  C    0.142012
    36  C   -0.187080
    37  C    0.075147
    38  C    0.045668
    39  C    0.187139
    40  C   -0.081361
    41  O   -0.122232
    42  C    0.102721
    43  C    0.065825
    44  O   -0.196528
    45  O   -0.272278
    46  C    0.225764
    47  C    0.342554
    48  C   -0.139399
    49  C   -0.112826
    50  C    0.112761
    51  C    0.168321
    52  C    0.021735
    53  C    0.091595
    54  C   -0.071852
    55  C    0.097781
    56  C    0.076055
    57  C    0.066829
    58  C    0.096348
    59  C   -0.074876
    60  C    0.089826
    61  C    0.116034
    62  C    0.077755
    63  C    0.078942
    64  C   -0.066862
    65  C    0.109602
    66  C    0.117263
    67  H   -0.047765
    68  H   -0.098514
    69  H   -0.058632
    70  H   -0.025046
    71  H   -0.004222
    72  H   -0.001324
    73  H    0.008777
    74  H   -0.007325
    75  H   -0.016940
    76  H   -0.022441
    77  H    0.022946
    78  H   -0.003395
    79  H   -0.003184
    80  H   -0.024781
    81  H    0.001243
    82  H   -0.000250
    83  H    0.030649
    84  H   -0.002018
    85  H   -0.021647
    86  H   -0.047239
    87  H   -0.001204
    88  H    0.006600
    89  H   -0.005114
    90  H   -0.023186
    91  H   -0.008559
    92  H    0.006904
    93  H   -0.012115
    94  H   -0.009465
    95  H    0.012232
    96  H   -0.010566
    97  H    0.015311
    98  H   -0.023139
    99  H    0.013171
   100  H    0.031278
   101  H   -0.003131
   102  H   -0.000398
   103  H    0.013583
   104  H   -0.026397
   105  H   -0.003083
   106  H    0.008433
   107  H   -0.024286
   108  H   -0.039893
   109  H   -0.030241
   110  H   -0.011612
   111  H   -0.028432
   112  H   -0.008633
   113  H   -0.017576
   114  H   -0.031294
   115  H   -0.016638
   116  H   -0.024352
   117  H   -0.033039
   118  H   -0.031047
   119  H   -0.034016
   120  H   -0.032149
   121  H   -0.032048
   122  H   -0.012082
   123  H   -0.040249
   124  H   -0.032320
   125  H   -0.014410
   126  H   -0.016537
   127  H   -0.021622
   128  H   -0.027822
   129  H   -0.053407
   130  H   -0.043618
   131  H   -0.040485
   132  H   -0.036826
   133  H   -0.032580
   134  H   -0.044633
   135  H   -0.029109
   136  H   -0.005935
   137  H   -0.031564
   138  H   -0.016016
   139  H   -0.016274
   140  H   -0.014018
 Sum of Mulliken charges =  -0.00000

 Dipole moment (field-independent basis, Debye):
    X=              0.5487    Y=              2.6752    Z=             -0.3048  Tot=              2.7479
 Quadrupole moment (field-independent basis, Debye-Ang):
   XX=           -412.7528   YY=           -380.1910   ZZ=           -414.1129
   XY=            -39.6062   XZ=            -19.6187   YZ=            -29.8056

 Normal termination of Gaussian 16 at Thu Apr 28 21:35:27 2022.
