 Gaussian 16, Revision A.03,
 Gaussian 16:  ES64L-G16RevA.03 25-Dec-2016

 -----------------------------------
 #p cam-b3lyp/Def2SVP td=(nstates=5)
 -----------------------------------

 --------------------------------------------------------
 step_1751_chromophore_11 TDDFT with cam-b3lyp functional
 --------------------------------------------------------
 Symbolic Z-matrix:
 Charge =  0 Multiplicity = 1

                         Standard orientation:
 ---------------------------------------------------------------------
 Center     Atomic      Atomic             Coordinates (Angstroms)
 Number     Number       Type             X           Y           Z
 ---------------------------------------------------------------------
      1         12           0       -4.434683    1.551635    0.443865
      2          6           0       -5.624616   -1.745684   -0.069128
      3          6           0       -2.718320    0.583389    3.086009
      4          6           0       -3.177606    4.672672    0.525131
      5          6           0       -6.414046    2.453333   -2.437660
      6          7           0       -3.976232   -0.458139    1.200207
      7          6           0       -4.606040   -1.668801    0.944928
      8          6           0       -4.363641   -2.689417    2.069601
      9          6           0       -3.626604   -1.825283    3.223340
     10          6           0       -3.368526   -0.466567    2.445482
     11          6           0       -4.340179   -1.710977    4.675578
     12          6           0       -3.613907   -4.093923    1.743792
     13          6           0       -2.444392   -4.056152    0.727501
     14          6           0       -1.037772   -4.262141    1.198588
     15          8           0       -0.569685   -4.035640    2.304432
     16          8           0       -0.343683   -4.841961    0.183389
     17          7           0       -3.048071    2.470052    1.573722
     18          6           0       -2.452813    1.866038    2.658556
     19          6           0       -1.566948    2.899936    3.239212
     20          6           0       -1.741946    4.147995    2.603997
     21          6           0       -2.664940    3.836185    1.495161
     22          6           0       -0.695754    2.542283    4.374425
     23          6           0       -1.053171    5.412462    2.899263
     24          8           0       -0.392316    5.440334    3.943845
     25          6           0       -1.246994    6.709690    2.150075
     26          7           0       -4.568478    3.148086   -0.887567
     27          6           0       -4.001212    4.349849   -0.559396
     28          6           0       -4.291412    5.485384   -1.529908
     29          6           0       -5.250093    4.725099   -2.452072
     30          6           0       -5.495679    3.337044   -1.831265
     31          6           0       -4.818127    6.841591   -0.903101
     32          6           0       -4.834599    4.495312   -3.929585
     33          6           0       -3.686686    3.470587   -4.191231
     34          7           0       -5.815113    0.584373   -0.950439
     35          6           0       -6.599040    1.114423   -1.967530
     36          6           0       -7.467795    0.121114   -2.485061
     37          6           0       -7.126402   -1.126887   -1.792126
     38          6           0       -6.105105   -0.677219   -0.869799
     39          6           0       -8.463533    0.178938   -3.557626
     40          6           0       -7.394021   -2.500815   -1.677827
     41          8           0       -8.169483   -3.280064   -2.187322
     42          6           0       -6.464677   -3.001580   -0.493017
     43          6           0       -5.763363   -4.146225   -0.996124
     44          8           0       -4.965946   -4.077016   -1.912160
     45          8           0       -6.004229   -5.336563   -0.356622
     46          6           0       -5.260171   -6.525131   -0.858407
     47          6           0        1.059806   -5.188612    0.531560
     48          6           0        1.837739   -4.357343   -0.352632
     49          6           0        3.114358   -3.904988   -0.180698
     50          6           0        4.025065   -4.227962    1.064429
     51          6           0        3.835146   -3.099591   -1.324153
     52          6           0        4.259927   -1.673334   -0.961322
     53          6           0        5.814377   -1.418434   -1.181406
     54          6           0        6.095755    0.055905   -0.682906
     55          6           0        6.524504    0.899321   -1.940126
     56          6           0        7.247139    0.057874    0.359020
     57          6           0        8.576771   -0.605663   -0.116320
     58          6           0        9.702371    0.415360   -0.472378
     59          6           0       11.026590    0.074475    0.198346
     60          6           0       10.873631    0.256006    1.748299
     61          6           0       12.061045    1.149771   -0.200316
     62          6           0       12.850694    0.646497   -1.416940
     63          6           0       14.223959   -0.083671   -1.110026
     64          6           0       15.484510    0.661705   -1.484727
     65          6           0       16.678442   -0.271480   -1.605826
     66          6           0       15.722583    1.891685   -0.596047
     67          1           0       -2.286520    0.341290    4.059826
     68          1           0       -3.023790    5.750265    0.611420
     69          1           0       -6.932684    2.847499   -3.313932
     70          1           0       -5.334433   -2.806648    2.551779
     71          1           0       -2.675042   -2.302500    3.454918
     72          1           0       -4.364283   -0.645071    4.899886
     73          1           0       -3.778187   -2.307053    5.393981
     74          1           0       -5.372623   -2.059949    4.648973
     75          1           0       -4.311585   -4.878338    1.448599
     76          1           0       -3.255888   -4.466047    2.703621
     77          1           0       -2.591394   -3.135195    0.162555
     78          1           0       -2.663801   -4.775302   -0.061588
     79          1           0        0.324099    2.924476    4.335510
     80          1           0       -0.551525    1.463594    4.432990
     81          1           0       -1.054459    2.860387    5.353416
     82          1           0       -0.572472    7.466892    2.549993
     83          1           0       -2.287048    7.038097    2.125833
     84          1           0       -0.994048    6.408533    1.133883
     85          1           0       -3.343857    5.643674   -2.044845
     86          1           0       -6.214089    5.232718   -2.475796
     87          1           0       -5.470536    7.453893   -1.526686
     88          1           0       -3.936400    7.430804   -0.653897
     89          1           0       -5.397775    6.664699    0.001651
     90          1           0       -4.374362    5.428063   -4.254242
     91          1           0       -5.780964    4.266425   -4.419585
     92          1           0       -3.215566    2.962632   -3.348962
     93          1           0       -2.887893    3.943444   -4.761767
     94          1           0       -4.038466    2.621323   -4.777675
     95          1           0       -8.386792   -0.810182   -4.008964
     96          1           0       -8.206934    0.895840   -4.336612
     97          1           0       -9.431073    0.288021   -3.066758
     98          1           0       -7.119987   -3.378779    0.292097
     99          1           0       -4.229468   -6.509738   -0.503227
    100          1           0       -5.391615   -6.767904   -1.912013
    101          1           0       -5.688383   -7.391704   -0.355297
    102          1           0        1.159090   -6.242936    0.271157
    103          1           0        1.362282   -5.027192    1.566436
    104          1           0        1.260337   -4.122880   -1.247760
    105          1           0        4.448517   -3.323900    1.500735
    106          1           0        4.800438   -4.947040    0.802487
    107          1           0        3.496423   -4.622099    1.931875
    108          1           0        3.142177   -3.119246   -2.165631
    109          1           0        4.742753   -3.601573   -1.659049
    110          1           0        3.950719   -1.395536    0.046328
    111          1           0        3.780391   -1.004577   -1.676792
    112          1           0        6.021535   -1.597896   -2.235855
    113          1           0        6.341265   -2.014928   -0.436459
    114          1           0        5.308982    0.571058   -0.131189
    115          1           0        5.924359    1.802302   -2.049614
    116          1           0        6.572621    0.327306   -2.866252
    117          1           0        7.543895    1.274995   -1.854678
    118          1           0        6.827808   -0.363326    1.272614
    119          1           0        7.468375    1.118070    0.475653
    120          1           0        8.410739   -1.256720   -0.974686
    121          1           0        8.884214   -1.292518    0.671611
    122          1           0        9.466359    1.474989   -0.377455
    123          1           0        9.809405    0.126863   -1.518135
    124          1           0       11.374218   -0.919404   -0.081043
    125          1           0       11.092874    1.279970    2.052317
    126          1           0       11.590920   -0.451344    2.164671
    127          1           0        9.921897    0.013385    2.220518
    128          1           0       12.664586    1.502509    0.635581
    129          1           0       11.546228    2.057155   -0.514630
    130          1           0       12.842891    1.462613   -2.139040
    131          1           0       12.256613   -0.110407   -1.928152
    132          1           0       14.175595   -1.043339   -1.623350
    133          1           0       14.378655   -0.117173   -0.032089
    134          1           0       15.254433    0.870121   -2.530232
    135          1           0       16.962152   -0.574455   -0.598777
    136          1           0       17.476287    0.173358   -2.200734
    137          1           0       16.419042   -1.238336   -2.037778
    138          1           0       15.708640    2.794510   -1.206946
    139          1           0       16.695782    1.758247   -0.123089
    140          1           0       14.984811    2.154006    0.162367
 ---------------------------------------------------------------------

 SCF Done:  E(RCAM-B3LYP) =  -3007.16633620     A.U. after   18 cycles

 Excitation energies and oscillator strengths:

 Excited State   1:      Singlet-A      1.6675 eV  743.53 nm  f=0.3748  <S**2>=0.000
     245 -> 248       -0.17293
     246 -> 247        0.68760
     245 <- 248       -0.10702
 This state for optimization and/or second-order correction.
 Total Energy, E(TD-HF/TD-DFT) =  -3007.10505630
 Copying the excited state density for this state as the 1-particle RhoCI density.

 Excited State   2:      Singlet-A      2.2159 eV  559.51 nm  f=0.0808  <S**2>=0.000
     245 -> 247        0.62515
     246 -> 248        0.31586

 Excited State   3:      Singlet-A      3.3208 eV  373.36 nm  f=0.0034  <S**2>=0.000
     241 -> 247       -0.24582
     244 -> 247        0.63443
     246 -> 248        0.12064

 Excited State   4:      Singlet-A      3.3780 eV  367.03 nm  f=0.2863  <S**2>=0.000
     241 -> 247        0.42700
     245 -> 247       -0.20342
     246 -> 248        0.48876

 Excited State   5:      Singlet-A      3.4425 eV  360.16 nm  f=0.0713  <S**2>=0.000
     239 -> 247        0.16543
     239 -> 249        0.13611
     240 -> 247        0.35485
     240 -> 248        0.10605
     240 -> 249        0.25712
     240 -> 251        0.14122
     241 -> 247       -0.18198
     242 -> 247       -0.28875
     242 -> 249        0.11990
     244 -> 247       -0.13832
     245 -> 247       -0.10272
     246 -> 248        0.15880

 The electronic state is 1-A.
 Alpha  occ. eigenvalues --  -46.88762 -19.24724 -19.24581 -19.19630 -19.18674
 Alpha  occ. eigenvalues --  -19.18177 -19.18067 -14.42927 -14.42662 -14.40159
 Alpha  occ. eigenvalues --  -14.39213 -10.39141 -10.37910 -10.35212 -10.34100
 Alpha  occ. eigenvalues --  -10.32073 -10.31798 -10.31745 -10.31718 -10.31466
 Alpha  occ. eigenvalues --  -10.31123 -10.30741 -10.30588 -10.29436 -10.29188
 Alpha  occ. eigenvalues --  -10.28780 -10.28708 -10.28674 -10.28431 -10.28415
 Alpha  occ. eigenvalues --  -10.27749 -10.27656 -10.27620 -10.27511 -10.27407
 Alpha  occ. eigenvalues --  -10.27269 -10.27225 -10.27212 -10.27143 -10.27058
 Alpha  occ. eigenvalues --  -10.26991 -10.26890 -10.26861 -10.26713 -10.26092
 Alpha  occ. eigenvalues --  -10.25530 -10.25517 -10.25340 -10.25324 -10.25313
 Alpha  occ. eigenvalues --  -10.25258 -10.25156 -10.25135 -10.24898 -10.24873
 Alpha  occ. eigenvalues --  -10.24773 -10.24491 -10.24470 -10.24435 -10.24420
 Alpha  occ. eigenvalues --  -10.24411 -10.24386 -10.24186 -10.24168 -10.24029
 Alpha  occ. eigenvalues --  -10.23912  -3.17384  -1.92267  -1.91839  -1.91701
 Alpha  occ. eigenvalues --   -1.16416  -1.15489  -1.09676  -1.09656  -1.07559
 Alpha  occ. eigenvalues --   -1.06408  -1.05147  -1.03985  -1.02846  -1.01839
 Alpha  occ. eigenvalues --   -0.91671  -0.90101  -0.89676  -0.89399  -0.89134
 Alpha  occ. eigenvalues --   -0.88709  -0.88005  -0.87626  -0.87365  -0.87127
 Alpha  occ. eigenvalues --   -0.86756  -0.85210  -0.84472  -0.83569  -0.83382
 Alpha  occ. eigenvalues --   -0.82475  -0.82057  -0.81222  -0.80853  -0.80049
 Alpha  occ. eigenvalues --   -0.78840  -0.78341  -0.77537  -0.77453  -0.76507
 Alpha  occ. eigenvalues --   -0.75756  -0.75669  -0.75233  -0.74842  -0.74162
 Alpha  occ. eigenvalues --   -0.73122  -0.72627  -0.72236  -0.70233  -0.70086
 Alpha  occ. eigenvalues --   -0.68971  -0.68829  -0.67995  -0.66125  -0.65759
 Alpha  occ. eigenvalues --   -0.65589  -0.65083  -0.64809  -0.64358  -0.63388
 Alpha  occ. eigenvalues --   -0.63206  -0.62042  -0.61507  -0.61169  -0.60188
 Alpha  occ. eigenvalues --   -0.60032  -0.59451  -0.59073  -0.58268  -0.57906
 Alpha  occ. eigenvalues --   -0.57368  -0.57144  -0.56478  -0.56042  -0.55393
 Alpha  occ. eigenvalues --   -0.54958  -0.54687  -0.54410  -0.54136  -0.54080
 Alpha  occ. eigenvalues --   -0.53813  -0.53640  -0.53535  -0.53153  -0.52884
 Alpha  occ. eigenvalues --   -0.52622  -0.52362  -0.52173  -0.51963  -0.51520
 Alpha  occ. eigenvalues --   -0.51432  -0.51366  -0.51049  -0.50731  -0.50579
 Alpha  occ. eigenvalues --   -0.50259  -0.50036  -0.49815  -0.49654  -0.49452
 Alpha  occ. eigenvalues --   -0.49379  -0.49118  -0.48844  -0.48786  -0.48539
 Alpha  occ. eigenvalues --   -0.48441  -0.48342  -0.48307  -0.47743  -0.47511
 Alpha  occ. eigenvalues --   -0.47498  -0.47336  -0.47174  -0.47029  -0.46475
 Alpha  occ. eigenvalues --   -0.46248  -0.46241  -0.45748  -0.45595  -0.45424
 Alpha  occ. eigenvalues --   -0.45279  -0.45198  -0.44820  -0.44654  -0.44581
 Alpha  occ. eigenvalues --   -0.44445  -0.44338  -0.44079  -0.43742  -0.43489
 Alpha  occ. eigenvalues --   -0.43419  -0.43391  -0.43098  -0.42999  -0.42970
 Alpha  occ. eigenvalues --   -0.42883  -0.42764  -0.42503  -0.42250  -0.42182
 Alpha  occ. eigenvalues --   -0.42082  -0.41638  -0.41495  -0.41414  -0.41308
 Alpha  occ. eigenvalues --   -0.41077  -0.41066  -0.40937  -0.40414  -0.40286
 Alpha  occ. eigenvalues --   -0.40009  -0.39797  -0.39041  -0.38578  -0.38421
 Alpha  occ. eigenvalues --   -0.38228  -0.38115  -0.37595  -0.37551  -0.37424
 Alpha  occ. eigenvalues --   -0.37075  -0.36899  -0.36590  -0.36163  -0.36063
 Alpha  occ. eigenvalues --   -0.35160  -0.35115  -0.34477  -0.34340  -0.34174
 Alpha  occ. eigenvalues --   -0.33845  -0.33692  -0.32982  -0.31459  -0.31187
 Alpha  occ. eigenvalues --   -0.30373  -0.30308  -0.29656  -0.29292  -0.24607
 Alpha  occ. eigenvalues --   -0.21326
 Alpha virt. eigenvalues --   -0.09118  -0.02482  -0.00303   0.02037   0.02297
 Alpha virt. eigenvalues --    0.04788   0.05609   0.05685   0.05998   0.06700
 Alpha virt. eigenvalues --    0.07877   0.08122   0.08861   0.09148   0.09375

 Mulliken charges:
               1
     1  Mg   0.820414
     2  C   -0.000203
     3  C   -0.087564
     4  C   -0.099421
     5  C   -0.090731
     6  N   -0.304903
     7  C   -0.026432
     8  C   -0.001898
     9  C   -0.100443
    10  C    0.068524
    11  C    0.048753
    12  C    0.067797
    13  C    0.016726
    14  C    0.179259
    15  O   -0.233752
    16  O   -0.337896
    17  N   -0.451174
    18  C    0.182416
    19  C   -0.110960
    20  C    0.023037
    21  C    0.197417
    22  C    0.109342
    23  C   -0.047636
    24  O   -0.223533
    25  C    0.075711
    26  N   -0.292544
    27  C    0.032093
    28  C   -0.012882
    29  C   -0.022079
    30  C    0.028455
    31  C    0.055896
    32  C    0.026609
    33  C   -0.008645
    34  N   -0.268223
    35  C    0.134434
    36  C   -0.175173
    37  C   -0.010803
    38  C    0.080156
    39  C    0.131665
    40  C    0.016792
    41  O   -0.165633
    42  C    0.022095
    43  C    0.154806
    44  O   -0.231182
    45  O   -0.337398
    46  C    0.187965
    47  C    0.299177
    48  C   -0.154951
    49  C   -0.140876
    50  C    0.058065
    51  C    0.111329
    52  C   -0.029200
    53  C    0.034555
    54  C   -0.123811
    55  C    0.038819
    56  C    0.027414
    57  C    0.008587
    58  C    0.044200
    59  C   -0.130141
    60  C    0.032192
    61  C    0.058908
    62  C    0.021690
    63  C    0.029954
    64  C   -0.127591
    65  C    0.050707
    66  C    0.051296
    67  H   -0.011285
    68  H   -0.061431
    69  H   -0.022955
    70  H    0.009971
    71  H    0.030992
    72  H    0.022298
    73  H    0.032698
    74  H    0.017426
    75  H    0.012977
    76  H    0.010388
    77  H    0.055488
    78  H    0.030633
    79  H    0.028217
    80  H    0.003095
    81  H    0.031769
    82  H    0.037085
    83  H    0.056120
    84  H    0.025219
    85  H    0.014759
    86  H   -0.009824
    87  H    0.026255
    88  H    0.027016
    89  H    0.020651
    90  H    0.004376
    91  H    0.017378
    92  H    0.028774
    93  H    0.011630
    94  H    0.015836
    95  H    0.037990
    96  H    0.012851
    97  H    0.040744
    98  H    0.021852
    99  H    0.030526
   100  H    0.055745
   101  H    0.021899
   102  H    0.029178
   103  H    0.045528
   104  H    0.009820
   105  H    0.018661
   106  H    0.031686
   107  H    0.000549
   108  H   -0.007594
   109  H   -0.000523
   110  H    0.013903
   111  H    0.000494
   112  H    0.017861
   113  H    0.007593
   114  H    0.001555
   115  H    0.008638
   116  H    0.000122
   117  H   -0.009984
   118  H   -0.003008
   119  H   -0.005859
   120  H   -0.002249
   121  H   -0.002678
   122  H    0.012660
   123  H   -0.011222
   124  H   -0.001185
   125  H    0.009101
   126  H    0.008119
   127  H    0.001899
   128  H   -0.000717
   129  H   -0.021206
   130  H   -0.013269
   131  H   -0.011494
   132  H   -0.007462
   133  H   -0.006845
   134  H   -0.013667
   135  H   -0.005473
   136  H    0.019222
   137  H   -0.005791
   138  H    0.008995
   139  H    0.008934
   140  H    0.008972
 Sum of Mulliken charges =  -0.00000

 Dipole moment (field-independent basis, Debye):
    X=              1.0793    Y=              3.3086    Z=              0.3605  Tot=              3.4989
 Quadrupole moment (field-independent basis, Debye-Ang):
   XX=           -418.1056   YY=           -374.1620   ZZ=           -412.8823
   XY=            -41.5311   XZ=            -22.1392   YZ=            -29.9494

 Normal termination of Gaussian 16 at Thu Apr 28 20:35:36 2022.
