 Gaussian 16, Revision A.03,
 Gaussian 16:  ES64L-G16RevA.03 25-Dec-2016

 ---------------------------------
 #p PBE1PBE/Def2SVP td=(nstates=5)
 ---------------------------------

 ------------------------------------------------------
 step_1751_chromophore_11 TDDFT with PBE1PBE functional
 ------------------------------------------------------
 Symbolic Z-matrix:
 Charge =  0 Multiplicity = 1

                         Standard orientation:
 ---------------------------------------------------------------------
 Center     Atomic      Atomic             Coordinates (Angstroms)
 Number     Number       Type             X           Y           Z
 ---------------------------------------------------------------------
      1         12           0       -4.434683    1.551635    0.443865
      2          6           0       -5.624616   -1.745684   -0.069128
      3          6           0       -2.718320    0.583389    3.086009
      4          6           0       -3.177606    4.672672    0.525131
      5          6           0       -6.414046    2.453333   -2.437660
      6          7           0       -3.976232   -0.458139    1.200207
      7          6           0       -4.606040   -1.668801    0.944928
      8          6           0       -4.363641   -2.689417    2.069601
      9          6           0       -3.626604   -1.825283    3.223340
     10          6           0       -3.368526   -0.466567    2.445482
     11          6           0       -4.340179   -1.710977    4.675578
     12          6           0       -3.613907   -4.093923    1.743792
     13          6           0       -2.444392   -4.056152    0.727501
     14          6           0       -1.037772   -4.262141    1.198588
     15          8           0       -0.569685   -4.035640    2.304432
     16          8           0       -0.343683   -4.841961    0.183389
     17          7           0       -3.048071    2.470052    1.573722
     18          6           0       -2.452813    1.866038    2.658556
     19          6           0       -1.566948    2.899936    3.239212
     20          6           0       -1.741946    4.147995    2.603997
     21          6           0       -2.664940    3.836185    1.495161
     22          6           0       -0.695754    2.542283    4.374425
     23          6           0       -1.053171    5.412462    2.899263
     24          8           0       -0.392316    5.440334    3.943845
     25          6           0       -1.246994    6.709690    2.150075
     26          7           0       -4.568478    3.148086   -0.887567
     27          6           0       -4.001212    4.349849   -0.559396
     28          6           0       -4.291412    5.485384   -1.529908
     29          6           0       -5.250093    4.725099   -2.452072
     30          6           0       -5.495679    3.337044   -1.831265
     31          6           0       -4.818127    6.841591   -0.903101
     32          6           0       -4.834599    4.495312   -3.929585
     33          6           0       -3.686686    3.470587   -4.191231
     34          7           0       -5.815113    0.584373   -0.950439
     35          6           0       -6.599040    1.114423   -1.967530
     36          6           0       -7.467795    0.121114   -2.485061
     37          6           0       -7.126402   -1.126887   -1.792126
     38          6           0       -6.105105   -0.677219   -0.869799
     39          6           0       -8.463533    0.178938   -3.557626
     40          6           0       -7.394021   -2.500815   -1.677827
     41          8           0       -8.169483   -3.280064   -2.187322
     42          6           0       -6.464677   -3.001580   -0.493017
     43          6           0       -5.763363   -4.146225   -0.996124
     44          8           0       -4.965946   -4.077016   -1.912160
     45          8           0       -6.004229   -5.336563   -0.356622
     46          6           0       -5.260171   -6.525131   -0.858407
     47          6           0        1.059806   -5.188612    0.531560
     48          6           0        1.837739   -4.357343   -0.352632
     49          6           0        3.114358   -3.904988   -0.180698
     50          6           0        4.025065   -4.227962    1.064429
     51          6           0        3.835146   -3.099591   -1.324153
     52          6           0        4.259927   -1.673334   -0.961322
     53          6           0        5.814377   -1.418434   -1.181406
     54          6           0        6.095755    0.055905   -0.682906
     55          6           0        6.524504    0.899321   -1.940126
     56          6           0        7.247139    0.057874    0.359020
     57          6           0        8.576771   -0.605663   -0.116320
     58          6           0        9.702371    0.415360   -0.472378
     59          6           0       11.026590    0.074475    0.198346
     60          6           0       10.873631    0.256006    1.748299
     61          6           0       12.061045    1.149771   -0.200316
     62          6           0       12.850694    0.646497   -1.416940
     63          6           0       14.223959   -0.083671   -1.110026
     64          6           0       15.484510    0.661705   -1.484727
     65          6           0       16.678442   -0.271480   -1.605826
     66          6           0       15.722583    1.891685   -0.596047
     67          1           0       -2.286520    0.341290    4.059826
     68          1           0       -3.023790    5.750265    0.611420
     69          1           0       -6.932684    2.847499   -3.313932
     70          1           0       -5.334433   -2.806648    2.551779
     71          1           0       -2.675042   -2.302500    3.454918
     72          1           0       -4.364283   -0.645071    4.899886
     73          1           0       -3.778187   -2.307053    5.393981
     74          1           0       -5.372623   -2.059949    4.648973
     75          1           0       -4.311585   -4.878338    1.448599
     76          1           0       -3.255888   -4.466047    2.703621
     77          1           0       -2.591394   -3.135195    0.162555
     78          1           0       -2.663801   -4.775302   -0.061588
     79          1           0        0.324099    2.924476    4.335510
     80          1           0       -0.551525    1.463594    4.432990
     81          1           0       -1.054459    2.860387    5.353416
     82          1           0       -0.572472    7.466892    2.549993
     83          1           0       -2.287048    7.038097    2.125833
     84          1           0       -0.994048    6.408533    1.133883
     85          1           0       -3.343857    5.643674   -2.044845
     86          1           0       -6.214089    5.232718   -2.475796
     87          1           0       -5.470536    7.453893   -1.526686
     88          1           0       -3.936400    7.430804   -0.653897
     89          1           0       -5.397775    6.664699    0.001651
     90          1           0       -4.374362    5.428063   -4.254242
     91          1           0       -5.780964    4.266425   -4.419585
     92          1           0       -3.215566    2.962632   -3.348962
     93          1           0       -2.887893    3.943444   -4.761767
     94          1           0       -4.038466    2.621323   -4.777675
     95          1           0       -8.386792   -0.810182   -4.008964
     96          1           0       -8.206934    0.895840   -4.336612
     97          1           0       -9.431073    0.288021   -3.066758
     98          1           0       -7.119987   -3.378779    0.292097
     99          1           0       -4.229468   -6.509738   -0.503227
    100          1           0       -5.391615   -6.767904   -1.912013
    101          1           0       -5.688383   -7.391704   -0.355297
    102          1           0        1.159090   -6.242936    0.271157
    103          1           0        1.362282   -5.027192    1.566436
    104          1           0        1.260337   -4.122880   -1.247760
    105          1           0        4.448517   -3.323900    1.500735
    106          1           0        4.800438   -4.947040    0.802487
    107          1           0        3.496423   -4.622099    1.931875
    108          1           0        3.142177   -3.119246   -2.165631
    109          1           0        4.742753   -3.601573   -1.659049
    110          1           0        3.950719   -1.395536    0.046328
    111          1           0        3.780391   -1.004577   -1.676792
    112          1           0        6.021535   -1.597896   -2.235855
    113          1           0        6.341265   -2.014928   -0.436459
    114          1           0        5.308982    0.571058   -0.131189
    115          1           0        5.924359    1.802302   -2.049614
    116          1           0        6.572621    0.327306   -2.866252
    117          1           0        7.543895    1.274995   -1.854678
    118          1           0        6.827808   -0.363326    1.272614
    119          1           0        7.468375    1.118070    0.475653
    120          1           0        8.410739   -1.256720   -0.974686
    121          1           0        8.884214   -1.292518    0.671611
    122          1           0        9.466359    1.474989   -0.377455
    123          1           0        9.809405    0.126863   -1.518135
    124          1           0       11.374218   -0.919404   -0.081043
    125          1           0       11.092874    1.279970    2.052317
    126          1           0       11.590920   -0.451344    2.164671
    127          1           0        9.921897    0.013385    2.220518
    128          1           0       12.664586    1.502509    0.635581
    129          1           0       11.546228    2.057155   -0.514630
    130          1           0       12.842891    1.462613   -2.139040
    131          1           0       12.256613   -0.110407   -1.928152
    132          1           0       14.175595   -1.043339   -1.623350
    133          1           0       14.378655   -0.117173   -0.032089
    134          1           0       15.254433    0.870121   -2.530232
    135          1           0       16.962152   -0.574455   -0.598777
    136          1           0       17.476287    0.173358   -2.200734
    137          1           0       16.419042   -1.238336   -2.037778
    138          1           0       15.708640    2.794510   -1.206946
    139          1           0       16.695782    1.758247   -0.123089
    140          1           0       14.984811    2.154006    0.162367
 ---------------------------------------------------------------------

 SCF Done:  E(RPBE1PBE) =  -3005.35475227     A.U. after   16 cycles

 Excitation energies and oscillator strengths:

 Excited State   1:      Singlet-A      1.8070 eV  686.14 nm  f=0.3598  <S**2>=0.000
     245 -> 248        0.17025
     246 -> 247        0.69467
     246 <- 247       -0.11326
 This state for optimization and/or second-order correction.
 Total Energy, E(TD-HF/TD-DFT) =  -3005.28834700
 Copying the excited state density for this state as the 1-particle RhoCI density.

 Excited State   2:      Singlet-A      2.2159 eV  559.53 nm  f=0.0820  <S**2>=0.000
     245 -> 247        0.64052
     246 -> 248       -0.28561

 Excited State   3:      Singlet-A      2.8791 eV  430.63 nm  f=0.0021  <S**2>=0.000
     242 -> 247        0.62193
     242 -> 249       -0.13350
     243 -> 247        0.27770

 Excited State   4:      Singlet-A      2.9467 eV  420.75 nm  f=0.0001  <S**2>=0.000
     240 -> 247        0.17304
     241 -> 247        0.58030
     241 -> 249        0.14698
     242 -> 247       -0.13159
     243 -> 247        0.25369

 Excited State   5:      Singlet-A      2.9850 eV  415.35 nm  f=0.0007  <S**2>=0.000
     240 -> 247       -0.24223
     241 -> 247       -0.19919
     242 -> 247       -0.23827
     243 -> 247        0.56673

 The electronic state is 1-A.
 Alpha  occ. eigenvalues --  -46.92132 -19.25420 -19.25266 -19.19878 -19.18703
 Alpha  occ. eigenvalues --  -19.18550 -19.18442 -14.42433 -14.42155 -14.39708
 Alpha  occ. eigenvalues --  -14.38975 -10.36113 -10.34951 -10.32170 -10.31425
 Alpha  occ. eigenvalues --  -10.29709 -10.29618 -10.29266 -10.28999 -10.28847
 Alpha  occ. eigenvalues --  -10.28530 -10.28496 -10.28118 -10.27473 -10.26643
 Alpha  occ. eigenvalues --  -10.26581 -10.26574 -10.26519 -10.26228 -10.26166
 Alpha  occ. eigenvalues --  -10.25706 -10.25318 -10.25164 -10.25087 -10.24962
 Alpha  occ. eigenvalues --  -10.24960 -10.24942 -10.24934 -10.24749 -10.24674
 Alpha  occ. eigenvalues --  -10.24608 -10.24312 -10.24217 -10.24153 -10.23463
 Alpha  occ. eigenvalues --  -10.23236 -10.23116 -10.23002 -10.22854 -10.22850
 Alpha  occ. eigenvalues --  -10.22726 -10.22723 -10.22656 -10.22581 -10.22497
 Alpha  occ. eigenvalues --  -10.22431 -10.22042 -10.22019 -10.21982 -10.21976
 Alpha  occ. eigenvalues --  -10.21920 -10.21797 -10.21756 -10.21537 -10.21413
 Alpha  occ. eigenvalues --  -10.21308  -3.14333  -1.87158  -1.86708  -1.86574
 Alpha  occ. eigenvalues --   -1.11204  -1.10291  -1.04630  -1.04212  -1.02392
 Alpha  occ. eigenvalues --   -1.01276  -0.99794  -0.98831  -0.97320  -0.96359
 Alpha  occ. eigenvalues --   -0.86119  -0.84160  -0.83926  -0.83515  -0.83434
 Alpha  occ. eigenvalues --   -0.82808  -0.82175  -0.81852  -0.81663  -0.81493
 Alpha  occ. eigenvalues --   -0.80860  -0.79400  -0.78671  -0.77908  -0.77526
 Alpha  occ. eigenvalues --   -0.76564  -0.76210  -0.75592  -0.75145  -0.74254
 Alpha  occ. eigenvalues --   -0.72978  -0.72638  -0.71799  -0.71709  -0.70841
 Alpha  occ. eigenvalues --   -0.69995  -0.69823  -0.69351  -0.68915  -0.68300
 Alpha  occ. eigenvalues --   -0.67534  -0.66996  -0.66666  -0.64509  -0.64455
 Alpha  occ. eigenvalues --   -0.63462  -0.63021  -0.62412  -0.60317  -0.60182
 Alpha  occ. eigenvalues --   -0.59987  -0.59573  -0.59225  -0.58887  -0.57658
 Alpha  occ. eigenvalues --   -0.57507  -0.56185  -0.56167  -0.55392  -0.54677
 Alpha  occ. eigenvalues --   -0.54415  -0.54084  -0.53699  -0.52711  -0.52460
 Alpha  occ. eigenvalues --   -0.51850  -0.51673  -0.51002  -0.50410  -0.49918
 Alpha  occ. eigenvalues --   -0.49502  -0.49212  -0.48976  -0.48646  -0.48471
 Alpha  occ. eigenvalues --   -0.48195  -0.48146  -0.48076  -0.47692  -0.47411
 Alpha  occ. eigenvalues --   -0.47239  -0.46683  -0.46625  -0.46513  -0.46054
 Alpha  occ. eigenvalues --   -0.45940  -0.45889  -0.45740  -0.45213  -0.45108
 Alpha  occ. eigenvalues --   -0.44771  -0.44553  -0.44395  -0.44205  -0.44103
 Alpha  occ. eigenvalues --   -0.43910  -0.43703  -0.43521  -0.43381  -0.43130
 Alpha  occ. eigenvalues --   -0.43038  -0.42986  -0.42838  -0.42341  -0.42155
 Alpha  occ. eigenvalues --   -0.42071  -0.42023  -0.41845  -0.41742  -0.41086
 Alpha  occ. eigenvalues --   -0.40939  -0.40795  -0.40562  -0.40280  -0.40092
 Alpha  occ. eigenvalues --   -0.40026  -0.39785  -0.39568  -0.39439  -0.39282
 Alpha  occ. eigenvalues --   -0.39194  -0.38993  -0.38819  -0.38649  -0.38300
 Alpha  occ. eigenvalues --   -0.38120  -0.38001  -0.37856  -0.37800  -0.37755
 Alpha  occ. eigenvalues --   -0.37663  -0.37477  -0.37174  -0.37130  -0.36865
 Alpha  occ. eigenvalues --   -0.36739  -0.36503  -0.36345  -0.36238  -0.36140
 Alpha  occ. eigenvalues --   -0.36001  -0.35895  -0.35768  -0.35206  -0.35131
 Alpha  occ. eigenvalues --   -0.34858  -0.34536  -0.33792  -0.33551  -0.33298
 Alpha  occ. eigenvalues --   -0.33200  -0.32899  -0.32590  -0.32391  -0.32211
 Alpha  occ. eigenvalues --   -0.32132  -0.31964  -0.31506  -0.31041  -0.31018
 Alpha  occ. eigenvalues --   -0.30052  -0.29928  -0.29586  -0.29458  -0.29341
 Alpha  occ. eigenvalues --   -0.28973  -0.28646  -0.27804  -0.26998  -0.25924
 Alpha  occ. eigenvalues --   -0.25623  -0.25409  -0.25196  -0.24946  -0.21479
 Alpha  occ. eigenvalues --   -0.18976
 Alpha virt. eigenvalues --   -0.11595  -0.05935  -0.04471  -0.02173  -0.00629
 Alpha virt. eigenvalues --    0.00443   0.00865   0.01259   0.01535   0.02883
 Alpha virt. eigenvalues --    0.03944   0.04767   0.04986   0.05691   0.05907

 Mulliken charges:
               1
     1  Mg   0.969596
     2  C    0.000863
     3  C   -0.087533
     4  C   -0.093762
     5  C   -0.072381
     6  N   -0.405845
     7  C    0.053698
     8  C   -0.072365
     9  C   -0.158735
    10  C    0.097473
    11  C   -0.012913
    12  C    0.007351
    13  C   -0.058868
    14  C    0.249820
    15  O   -0.269387
    16  O   -0.369065
    17  N   -0.564531
    18  C    0.208662
    19  C   -0.146934
    20  C   -0.023880
    21  C    0.222442
    22  C    0.058486
    23  C    0.002538
    24  O   -0.257153
    25  C   -0.001232
    26  N   -0.399363
    27  C    0.064183
    28  C   -0.089671
    29  C   -0.091443
    30  C    0.063655
    31  C   -0.006186
    32  C   -0.042380
    33  C   -0.078029
    34  N   -0.398556
    35  C    0.150157
    36  C   -0.185829
    37  C   -0.045958
    38  C    0.123133
    39  C    0.075647
    40  C    0.099298
    41  O   -0.211250
    42  C   -0.089663
    43  C    0.255195
    44  O   -0.265975
    45  O   -0.373231
    46  C    0.127946
    47  C    0.250146
    48  C   -0.164359
    49  C   -0.184819
    50  C   -0.000413
    51  C    0.050596
    52  C   -0.089499
    53  C   -0.028803
    54  C   -0.204618
    55  C   -0.020129
    56  C   -0.034212
    57  C   -0.046744
    58  C   -0.009636
    59  C   -0.223754
    60  C   -0.025922
    61  C    0.005909
    62  C   -0.036676
    63  C   -0.025363
    64  C   -0.220948
    65  C   -0.011328
    66  C   -0.010544
    67  H    0.019033
    68  H   -0.025925
    69  H    0.008242
    70  H    0.049452
    71  H    0.068423
    72  H    0.050404
    73  H    0.058764
    74  H    0.043815
    75  H    0.049005
    76  H    0.043322
    77  H    0.089391
    78  H    0.065040
    79  H    0.054867
    80  H    0.028799
    81  H    0.058349
    82  H    0.063927
    83  H    0.080995
    84  H    0.052767
    85  H    0.053016
    86  H    0.029482
    87  H    0.053392
    88  H    0.053553
    89  H    0.048861
    90  H    0.039871
    91  H    0.049082
    92  H    0.058342
    93  H    0.039763
    94  H    0.043865
    95  H    0.066400
    96  H    0.040746
    97  H    0.070041
    98  H    0.059570
    99  H    0.053453
   100  H    0.077130
   101  H    0.044645
   102  H    0.057179
   103  H    0.071959
   104  H    0.039170
   105  H    0.045187
   106  H    0.058607
   107  H    0.027491
   108  H    0.024501
   109  H    0.032733
   110  H    0.046025
   111  H    0.035698
   112  H    0.048293
   113  H    0.043538
   114  H    0.037383
   115  H    0.036695
   116  H    0.026574
   117  H    0.021591
   118  H    0.029744
   119  H    0.029467
   120  H    0.030080
   121  H    0.029423
   122  H    0.039799
   123  H    0.023684
   124  H    0.035027
   125  H    0.036192
   126  H    0.037330
   127  H    0.029948
   128  H    0.030138
   129  H    0.012310
   130  H    0.017796
   131  H    0.021530
   132  H    0.023532
   133  H    0.027221
   134  H    0.025917
   135  H    0.022798
   136  H    0.047057
   137  H    0.022193
   138  H    0.036552
   139  H    0.036163
   140  H    0.036683
 Sum of Mulliken charges =  -0.00000

 Dipole moment (field-independent basis, Debye):
    X=              0.7259    Y=              3.0957    Z=             -0.0063  Tot=              3.1797
 Quadrupole moment (field-independent basis, Debye-Ang):
   XX=           -411.7784   YY=           -371.3394   ZZ=           -409.1827
   XY=            -41.2870   XZ=            -20.1609   YZ=            -31.5632

 Normal termination of Gaussian 16 at Thu Apr 28 20:53:06 2022.
