 Gaussian 16, Revision A.03,
 Gaussian 16:  ES64L-G16RevA.03 25-Dec-2016

 --------------------------------
 #p wB97XD/Def2SVP td=(nstates=5)
 --------------------------------

 -----------------------------------------------------
 step_1751_chromophore_11 TDDFT with wB97XD functional
 -----------------------------------------------------
 Symbolic Z-matrix:
 Charge =  0 Multiplicity = 1

                         Standard orientation:
 ---------------------------------------------------------------------
 Center     Atomic      Atomic             Coordinates (Angstroms)
 Number     Number       Type             X           Y           Z
 ---------------------------------------------------------------------
      1         12           0       -4.434683    1.551635    0.443865
      2          6           0       -5.624616   -1.745684   -0.069128
      3          6           0       -2.718320    0.583389    3.086009
      4          6           0       -3.177606    4.672672    0.525131
      5          6           0       -6.414046    2.453333   -2.437660
      6          7           0       -3.976232   -0.458139    1.200207
      7          6           0       -4.606040   -1.668801    0.944928
      8          6           0       -4.363641   -2.689417    2.069601
      9          6           0       -3.626604   -1.825283    3.223340
     10          6           0       -3.368526   -0.466567    2.445482
     11          6           0       -4.340179   -1.710977    4.675578
     12          6           0       -3.613907   -4.093923    1.743792
     13          6           0       -2.444392   -4.056152    0.727501
     14          6           0       -1.037772   -4.262141    1.198588
     15          8           0       -0.569685   -4.035640    2.304432
     16          8           0       -0.343683   -4.841961    0.183389
     17          7           0       -3.048071    2.470052    1.573722
     18          6           0       -2.452813    1.866038    2.658556
     19          6           0       -1.566948    2.899936    3.239212
     20          6           0       -1.741946    4.147995    2.603997
     21          6           0       -2.664940    3.836185    1.495161
     22          6           0       -0.695754    2.542283    4.374425
     23          6           0       -1.053171    5.412462    2.899263
     24          8           0       -0.392316    5.440334    3.943845
     25          6           0       -1.246994    6.709690    2.150075
     26          7           0       -4.568478    3.148086   -0.887567
     27          6           0       -4.001212    4.349849   -0.559396
     28          6           0       -4.291412    5.485384   -1.529908
     29          6           0       -5.250093    4.725099   -2.452072
     30          6           0       -5.495679    3.337044   -1.831265
     31          6           0       -4.818127    6.841591   -0.903101
     32          6           0       -4.834599    4.495312   -3.929585
     33          6           0       -3.686686    3.470587   -4.191231
     34          7           0       -5.815113    0.584373   -0.950439
     35          6           0       -6.599040    1.114423   -1.967530
     36          6           0       -7.467795    0.121114   -2.485061
     37          6           0       -7.126402   -1.126887   -1.792126
     38          6           0       -6.105105   -0.677219   -0.869799
     39          6           0       -8.463533    0.178938   -3.557626
     40          6           0       -7.394021   -2.500815   -1.677827
     41          8           0       -8.169483   -3.280064   -2.187322
     42          6           0       -6.464677   -3.001580   -0.493017
     43          6           0       -5.763363   -4.146225   -0.996124
     44          8           0       -4.965946   -4.077016   -1.912160
     45          8           0       -6.004229   -5.336563   -0.356622
     46          6           0       -5.260171   -6.525131   -0.858407
     47          6           0        1.059806   -5.188612    0.531560
     48          6           0        1.837739   -4.357343   -0.352632
     49          6           0        3.114358   -3.904988   -0.180698
     50          6           0        4.025065   -4.227962    1.064429
     51          6           0        3.835146   -3.099591   -1.324153
     52          6           0        4.259927   -1.673334   -0.961322
     53          6           0        5.814377   -1.418434   -1.181406
     54          6           0        6.095755    0.055905   -0.682906
     55          6           0        6.524504    0.899321   -1.940126
     56          6           0        7.247139    0.057874    0.359020
     57          6           0        8.576771   -0.605663   -0.116320
     58          6           0        9.702371    0.415360   -0.472378
     59          6           0       11.026590    0.074475    0.198346
     60          6           0       10.873631    0.256006    1.748299
     61          6           0       12.061045    1.149771   -0.200316
     62          6           0       12.850694    0.646497   -1.416940
     63          6           0       14.223959   -0.083671   -1.110026
     64          6           0       15.484510    0.661705   -1.484727
     65          6           0       16.678442   -0.271480   -1.605826
     66          6           0       15.722583    1.891685   -0.596047
     67          1           0       -2.286520    0.341290    4.059826
     68          1           0       -3.023790    5.750265    0.611420
     69          1           0       -6.932684    2.847499   -3.313932
     70          1           0       -5.334433   -2.806648    2.551779
     71          1           0       -2.675042   -2.302500    3.454918
     72          1           0       -4.364283   -0.645071    4.899886
     73          1           0       -3.778187   -2.307053    5.393981
     74          1           0       -5.372623   -2.059949    4.648973
     75          1           0       -4.311585   -4.878338    1.448599
     76          1           0       -3.255888   -4.466047    2.703621
     77          1           0       -2.591394   -3.135195    0.162555
     78          1           0       -2.663801   -4.775302   -0.061588
     79          1           0        0.324099    2.924476    4.335510
     80          1           0       -0.551525    1.463594    4.432990
     81          1           0       -1.054459    2.860387    5.353416
     82          1           0       -0.572472    7.466892    2.549993
     83          1           0       -2.287048    7.038097    2.125833
     84          1           0       -0.994048    6.408533    1.133883
     85          1           0       -3.343857    5.643674   -2.044845
     86          1           0       -6.214089    5.232718   -2.475796
     87          1           0       -5.470536    7.453893   -1.526686
     88          1           0       -3.936400    7.430804   -0.653897
     89          1           0       -5.397775    6.664699    0.001651
     90          1           0       -4.374362    5.428063   -4.254242
     91          1           0       -5.780964    4.266425   -4.419585
     92          1           0       -3.215566    2.962632   -3.348962
     93          1           0       -2.887893    3.943444   -4.761767
     94          1           0       -4.038466    2.621323   -4.777675
     95          1           0       -8.386792   -0.810182   -4.008964
     96          1           0       -8.206934    0.895840   -4.336612
     97          1           0       -9.431073    0.288021   -3.066758
     98          1           0       -7.119987   -3.378779    0.292097
     99          1           0       -4.229468   -6.509738   -0.503227
    100          1           0       -5.391615   -6.767904   -1.912013
    101          1           0       -5.688383   -7.391704   -0.355297
    102          1           0        1.159090   -6.242936    0.271157
    103          1           0        1.362282   -5.027192    1.566436
    104          1           0        1.260337   -4.122880   -1.247760
    105          1           0        4.448517   -3.323900    1.500735
    106          1           0        4.800438   -4.947040    0.802487
    107          1           0        3.496423   -4.622099    1.931875
    108          1           0        3.142177   -3.119246   -2.165631
    109          1           0        4.742753   -3.601573   -1.659049
    110          1           0        3.950719   -1.395536    0.046328
    111          1           0        3.780391   -1.004577   -1.676792
    112          1           0        6.021535   -1.597896   -2.235855
    113          1           0        6.341265   -2.014928   -0.436459
    114          1           0        5.308982    0.571058   -0.131189
    115          1           0        5.924359    1.802302   -2.049614
    116          1           0        6.572621    0.327306   -2.866252
    117          1           0        7.543895    1.274995   -1.854678
    118          1           0        6.827808   -0.363326    1.272614
    119          1           0        7.468375    1.118070    0.475653
    120          1           0        8.410739   -1.256720   -0.974686
    121          1           0        8.884214   -1.292518    0.671611
    122          1           0        9.466359    1.474989   -0.377455
    123          1           0        9.809405    0.126863   -1.518135
    124          1           0       11.374218   -0.919404   -0.081043
    125          1           0       11.092874    1.279970    2.052317
    126          1           0       11.590920   -0.451344    2.164671
    127          1           0        9.921897    0.013385    2.220518
    128          1           0       12.664586    1.502509    0.635581
    129          1           0       11.546228    2.057155   -0.514630
    130          1           0       12.842891    1.462613   -2.139040
    131          1           0       12.256613   -0.110407   -1.928152
    132          1           0       14.175595   -1.043339   -1.623350
    133          1           0       14.378655   -0.117173   -0.032089
    134          1           0       15.254433    0.870121   -2.530232
    135          1           0       16.962152   -0.574455   -0.598777
    136          1           0       17.476287    0.173358   -2.200734
    137          1           0       16.419042   -1.238336   -2.037778
    138          1           0       15.708640    2.794510   -1.206946
    139          1           0       16.695782    1.758247   -0.123089
    140          1           0       14.984811    2.154006    0.162367
 ---------------------------------------------------------------------

 SCF Done:  E(RwB97XD) =  -3007.86595769     A.U. after   19 cycles

 Excitation energies and oscillator strengths:

 Excited State   1:      Singlet-A      1.6181 eV  766.22 nm  f=0.3747  <S**2>=0.000
     245 -> 248       -0.17691
     246 -> 247        0.68546
     245 <- 248       -0.11554
 This state for optimization and/or second-order correction.
 Total Energy, E(TD-HF/TD-DFT) =  -3007.80649248
 Copying the excited state density for this state as the 1-particle RhoCI density.

 Excited State   2:      Singlet-A      2.1624 eV  573.37 nm  f=0.0777  <S**2>=0.000
     245 -> 247        0.62261
     246 -> 248        0.31807

 Excited State   3:      Singlet-A      3.3631 eV  368.66 nm  f=0.0059  <S**2>=0.000
     241 -> 247       -0.32783
     244 -> 247        0.58458
     246 -> 248        0.11953

 Excited State   4:      Singlet-A      3.3901 eV  365.73 nm  f=0.3023  <S**2>=0.000
     241 -> 247        0.40577
     244 -> 247        0.11704
     245 -> 247       -0.20442
     246 -> 248        0.49961

 Excited State   5:      Singlet-A      3.4467 eV  359.72 nm  f=0.0464  <S**2>=0.000
     240 -> 247        0.46775
     240 -> 248        0.13428
     240 -> 249        0.35497
     240 -> 250        0.18271
     244 -> 247       -0.13610
     246 -> 248        0.14316

 The electronic state is 1-A.
 Alpha  occ. eigenvalues --  -46.95113 -19.29958 -19.29782 -19.24542 -19.23738
 Alpha  occ. eigenvalues --  -19.23085 -19.23072 -14.47542 -14.47249 -14.44826
 Alpha  occ. eigenvalues --  -14.43776 -10.42907 -10.41713 -10.39207 -10.38065
 Alpha  occ. eigenvalues --  -10.36164 -10.35814 -10.35809 -10.35591 -10.35479
 Alpha  occ. eigenvalues --  -10.34983 -10.34850 -10.34543 -10.33408 -10.33385
 Alpha  occ. eigenvalues --  -10.32824 -10.32787 -10.32706 -10.32522 -10.32465
 Alpha  occ. eigenvalues --  -10.31801 -10.31799 -10.31657 -10.31426 -10.31419
 Alpha  occ. eigenvalues --  -10.31300 -10.31275 -10.31221 -10.31210 -10.31069
 Alpha  occ. eigenvalues --  -10.30890 -10.30823 -10.30757 -10.30605 -10.29927
 Alpha  occ. eigenvalues --  -10.29522 -10.29332 -10.29308 -10.29302 -10.29249
 Alpha  occ. eigenvalues --  -10.29097 -10.29069 -10.29058 -10.28826 -10.28795
 Alpha  occ. eigenvalues --  -10.28784 -10.28437 -10.28396 -10.28378 -10.28347
 Alpha  occ. eigenvalues --  -10.28302 -10.28244 -10.28126 -10.27985 -10.27865
 Alpha  occ. eigenvalues --  -10.27757  -3.21161  -1.94738  -1.94289  -1.94147
 Alpha  occ. eigenvalues --   -1.18573  -1.17624  -1.11923  -1.11851  -1.09729
 Alpha  occ. eigenvalues --   -1.08577  -1.07135  -1.05981  -1.04897  -1.03891
 Alpha  occ. eigenvalues --   -0.93613  -0.91850  -0.91645  -0.91201  -0.90987
 Alpha  occ. eigenvalues --   -0.90486  -0.89841  -0.89532  -0.89194  -0.89025
 Alpha  occ. eigenvalues --   -0.88777  -0.87078  -0.86371  -0.85459  -0.85248
 Alpha  occ. eigenvalues --   -0.84395  -0.83891  -0.83135  -0.82800  -0.81912
 Alpha  occ. eigenvalues --   -0.80660  -0.80316  -0.79429  -0.79345  -0.78417
 Alpha  occ. eigenvalues --   -0.77622  -0.77534  -0.77061  -0.76643  -0.75987
 Alpha  occ. eigenvalues --   -0.75061  -0.74579  -0.74224  -0.72154  -0.72003
 Alpha  occ. eigenvalues --   -0.70967  -0.70689  -0.70029  -0.67973  -0.67663
 Alpha  occ. eigenvalues --   -0.67565  -0.67066  -0.66753  -0.66322  -0.65216
 Alpha  occ. eigenvalues --   -0.65128  -0.63853  -0.63492  -0.63029  -0.62213
 Alpha  occ. eigenvalues --   -0.61936  -0.61449  -0.61059  -0.60190  -0.59889
 Alpha  occ. eigenvalues --   -0.59302  -0.59097  -0.58451  -0.57922  -0.57332
 Alpha  occ. eigenvalues --   -0.56882  -0.56623  -0.56309  -0.56042  -0.55936
 Alpha  occ. eigenvalues --   -0.55654  -0.55596  -0.55466  -0.55048  -0.54818
 Alpha  occ. eigenvalues --   -0.54567  -0.54346  -0.54045  -0.53911  -0.53388
 Alpha  occ. eigenvalues --   -0.53300  -0.53253  -0.52954  -0.52591  -0.52480
 Alpha  occ. eigenvalues --   -0.52242  -0.51930  -0.51779  -0.51543  -0.51395
 Alpha  occ. eigenvalues --   -0.51302  -0.51038  -0.50756  -0.50686  -0.50442
 Alpha  occ. eigenvalues --   -0.50358  -0.50229  -0.50168  -0.49621  -0.49472
 Alpha  occ. eigenvalues --   -0.49397  -0.49244  -0.49118  -0.48940  -0.48454
 Alpha  occ. eigenvalues --   -0.48173  -0.48090  -0.47667  -0.47546  -0.47295
 Alpha  occ. eigenvalues --   -0.47162  -0.47035  -0.46721  -0.46587  -0.46463
 Alpha  occ. eigenvalues --   -0.46343  -0.46254  -0.45978  -0.45705  -0.45436
 Alpha  occ. eigenvalues --   -0.45297  -0.45235  -0.45022  -0.44908  -0.44874
 Alpha  occ. eigenvalues --   -0.44770  -0.44629  -0.44374  -0.44189  -0.44157
 Alpha  occ. eigenvalues --   -0.43947  -0.43602  -0.43368  -0.43312  -0.43234
 Alpha  occ. eigenvalues --   -0.43004  -0.42908  -0.42848  -0.42246  -0.42219
 Alpha  occ. eigenvalues --   -0.41893  -0.41644  -0.40886  -0.40469  -0.40288
 Alpha  occ. eigenvalues --   -0.40142  -0.39950  -0.39581  -0.39414  -0.39267
 Alpha  occ. eigenvalues --   -0.39182  -0.38809  -0.38546  -0.38058  -0.38034
 Alpha  occ. eigenvalues --   -0.36997  -0.36960  -0.36322  -0.36303  -0.36093
 Alpha  occ. eigenvalues --   -0.36054  -0.35525  -0.34891  -0.33647  -0.33181
 Alpha  occ. eigenvalues --   -0.32601  -0.32260  -0.31672  -0.31435  -0.26541
 Alpha  occ. eigenvalues --   -0.23125
 Alpha virt. eigenvalues --   -0.07459  -0.00571   0.01752   0.04352   0.05190
 Alpha virt. eigenvalues --    0.07135   0.07738   0.07941   0.08380   0.09372
 Alpha virt. eigenvalues --    0.10573   0.11270   0.11910   0.12404   0.12641

 Mulliken charges:
               1
     1  Mg   0.960006
     2  C   -0.006149
     3  C   -0.104026
     4  C   -0.102634
     5  C   -0.091881
     6  N   -0.374135
     7  C    0.013268
     8  C   -0.045054
     9  C   -0.142625
    10  C    0.090350
    11  C    0.001842
    12  C    0.025859
    13  C   -0.040297
    14  C    0.239129
    15  O   -0.266057
    16  O   -0.368051
    17  N   -0.536184
    18  C    0.202917
    19  C   -0.131814
    20  C   -0.017600
    21  C    0.223077
    22  C    0.064132
    23  C   -0.003224
    24  O   -0.251785
    25  C    0.015005
    26  N   -0.365728
    27  C    0.053347
    28  C   -0.066632
    29  C   -0.070340
    30  C    0.051297
    31  C    0.005746
    32  C   -0.020840
    33  C   -0.063650
    34  N   -0.356882
    35  C    0.140861
    36  C   -0.183539
    37  C   -0.051910
    38  C    0.110049
    39  C    0.085664
    40  C    0.087701
    41  O   -0.204016
    42  C   -0.048255
    43  C    0.223949
    44  O   -0.258936
    45  O   -0.369138
    46  C    0.144951
    47  C    0.266751
    48  C   -0.171765
    49  C   -0.174041
    50  C    0.012745
    51  C    0.067891
    52  C   -0.073668
    53  C   -0.010246
    54  C   -0.180701
    55  C   -0.006633
    56  C   -0.009916
    57  C   -0.035360
    58  C    0.004912
    59  C   -0.188180
    60  C   -0.014021
    61  C    0.020437
    62  C   -0.021823
    63  C   -0.007564
    64  C   -0.190575
    65  C    0.000977
    66  C   -0.000205
    67  H    0.013356
    68  H   -0.045286
    69  H    0.002031
    70  H    0.036246
    71  H    0.057571
    72  H    0.042036
    73  H    0.054684
    74  H    0.038895
    75  H    0.036378
    76  H    0.035397
    77  H    0.081045
    78  H    0.055576
    79  H    0.052739
    80  H    0.024409
    81  H    0.056713
    82  H    0.064196
    83  H    0.076850
    84  H    0.045414
    85  H    0.042619
    86  H    0.019009
    87  H    0.049792
    88  H    0.047318
    89  H    0.042594
    90  H    0.030081
    91  H    0.040677
    92  H    0.048138
    93  H    0.034550
    94  H    0.038445
    95  H    0.060972
    96  H    0.034907
    97  H    0.064474
    98  H    0.053385
    99  H    0.046761
   100  H    0.074173
   101  H    0.041139
   102  H    0.053628
   103  H    0.064620
   104  H    0.036117
   105  H    0.038772
   106  H    0.053507
   107  H    0.022128
   108  H    0.018552
   109  H    0.024037
   110  H    0.035794
   111  H    0.026647
   112  H    0.040112
   113  H    0.029046
   114  H    0.027982
   115  H    0.032050
   116  H    0.020632
   117  H    0.010056
   118  H    0.021722
   119  H    0.016871
   120  H    0.020920
   121  H    0.020420
   122  H    0.030200
   123  H    0.012553
   124  H    0.023820
   125  H    0.029678
   126  H    0.030911
   127  H    0.022567
   128  H    0.018259
   129  H    0.003603
   130  H    0.011293
   131  H    0.011006
   132  H    0.016519
   133  H    0.013546
   134  H    0.013147
   135  H    0.015138
   136  H    0.042494
   137  H    0.016073
   138  H    0.031356
   139  H    0.030688
   140  H    0.029470
 Sum of Mulliken charges =  -0.00000

 Dipole moment (field-independent basis, Debye):
    X=              1.1737    Y=              3.4361    Z=              0.4677  Tot=              3.6610
 Quadrupole moment (field-independent basis, Debye-Ang):
   XX=           -415.0741   YY=           -369.5204   ZZ=           -408.7706
   XY=            -41.8273   XZ=            -22.1130   YZ=            -30.2824

 Normal termination of Gaussian 16 at Thu Apr 28 21:22:06 2022.
