 Gaussian 16, Revision A.03,
 Gaussian 16:  ES64L-G16RevA.03 25-Dec-2016

 --------------------
 #p ZINDO=(nstates=5)
 --------------------

 ------------------------------
 step_1751_chromophore_11 ZINDO
 ------------------------------
 Symbolic Z-matrix:
 Charge =  0 Multiplicity = 1

                         Standard orientation:
 ---------------------------------------------------------------------
 Center     Atomic      Atomic             Coordinates (Angstroms)
 Number     Number       Type             X           Y           Z
 ---------------------------------------------------------------------
      1         12           0       -4.434683    1.551635    0.443865
      2          6           0       -5.624616   -1.745684   -0.069128
      3          6           0       -2.718320    0.583389    3.086009
      4          6           0       -3.177606    4.672672    0.525131
      5          6           0       -6.414046    2.453333   -2.437660
      6          7           0       -3.976232   -0.458139    1.200207
      7          6           0       -4.606040   -1.668801    0.944928
      8          6           0       -4.363641   -2.689417    2.069601
      9          6           0       -3.626604   -1.825283    3.223340
     10          6           0       -3.368526   -0.466567    2.445482
     11          6           0       -4.340179   -1.710977    4.675578
     12          6           0       -3.613907   -4.093923    1.743792
     13          6           0       -2.444392   -4.056152    0.727501
     14          6           0       -1.037772   -4.262141    1.198588
     15          8           0       -0.569685   -4.035640    2.304432
     16          8           0       -0.343683   -4.841961    0.183389
     17          7           0       -3.048071    2.470052    1.573722
     18          6           0       -2.452813    1.866038    2.658556
     19          6           0       -1.566948    2.899936    3.239212
     20          6           0       -1.741946    4.147995    2.603997
     21          6           0       -2.664940    3.836185    1.495161
     22          6           0       -0.695754    2.542283    4.374425
     23          6           0       -1.053171    5.412462    2.899263
     24          8           0       -0.392316    5.440334    3.943845
     25          6           0       -1.246994    6.709690    2.150075
     26          7           0       -4.568478    3.148086   -0.887567
     27          6           0       -4.001212    4.349849   -0.559396
     28          6           0       -4.291412    5.485384   -1.529908
     29          6           0       -5.250093    4.725099   -2.452072
     30          6           0       -5.495679    3.337044   -1.831265
     31          6           0       -4.818127    6.841591   -0.903101
     32          6           0       -4.834599    4.495312   -3.929585
     33          6           0       -3.686686    3.470587   -4.191231
     34          7           0       -5.815113    0.584373   -0.950439
     35          6           0       -6.599040    1.114423   -1.967530
     36          6           0       -7.467795    0.121114   -2.485061
     37          6           0       -7.126402   -1.126887   -1.792126
     38          6           0       -6.105105   -0.677219   -0.869799
     39          6           0       -8.463533    0.178938   -3.557626
     40          6           0       -7.394021   -2.500815   -1.677827
     41          8           0       -8.169483   -3.280064   -2.187322
     42          6           0       -6.464677   -3.001580   -0.493017
     43          6           0       -5.763363   -4.146225   -0.996124
     44          8           0       -4.965946   -4.077016   -1.912160
     45          8           0       -6.004229   -5.336563   -0.356622
     46          6           0       -5.260171   -6.525131   -0.858407
     47          6           0        1.059806   -5.188612    0.531560
     48          6           0        1.837739   -4.357343   -0.352632
     49          6           0        3.114358   -3.904988   -0.180698
     50          6           0        4.025065   -4.227962    1.064429
     51          6           0        3.835146   -3.099591   -1.324153
     52          6           0        4.259927   -1.673334   -0.961322
     53          6           0        5.814377   -1.418434   -1.181406
     54          6           0        6.095755    0.055905   -0.682906
     55          6           0        6.524504    0.899321   -1.940126
     56          6           0        7.247139    0.057874    0.359020
     57          6           0        8.576771   -0.605663   -0.116320
     58          6           0        9.702371    0.415360   -0.472378
     59          6           0       11.026590    0.074475    0.198346
     60          6           0       10.873631    0.256006    1.748299
     61          6           0       12.061045    1.149771   -0.200316
     62          6           0       12.850694    0.646497   -1.416940
     63          6           0       14.223959   -0.083671   -1.110026
     64          6           0       15.484510    0.661705   -1.484727
     65          6           0       16.678442   -0.271480   -1.605826
     66          6           0       15.722583    1.891685   -0.596047
     67          1           0       -2.286520    0.341290    4.059826
     68          1           0       -3.023790    5.750265    0.611420
     69          1           0       -6.932684    2.847499   -3.313932
     70          1           0       -5.334433   -2.806648    2.551779
     71          1           0       -2.675042   -2.302500    3.454918
     72          1           0       -4.364283   -0.645071    4.899886
     73          1           0       -3.778187   -2.307053    5.393981
     74          1           0       -5.372623   -2.059949    4.648973
     75          1           0       -4.311585   -4.878338    1.448599
     76          1           0       -3.255888   -4.466047    2.703621
     77          1           0       -2.591394   -3.135195    0.162555
     78          1           0       -2.663801   -4.775302   -0.061588
     79          1           0        0.324099    2.924476    4.335510
     80          1           0       -0.551525    1.463594    4.432990
     81          1           0       -1.054459    2.860387    5.353416
     82          1           0       -0.572472    7.466892    2.549993
     83          1           0       -2.287048    7.038097    2.125833
     84          1           0       -0.994048    6.408533    1.133883
     85          1           0       -3.343857    5.643674   -2.044845
     86          1           0       -6.214089    5.232718   -2.475796
     87          1           0       -5.470536    7.453893   -1.526686
     88          1           0       -3.936400    7.430804   -0.653897
     89          1           0       -5.397775    6.664699    0.001651
     90          1           0       -4.374362    5.428063   -4.254242
     91          1           0       -5.780964    4.266425   -4.419585
     92          1           0       -3.215566    2.962632   -3.348962
     93          1           0       -2.887893    3.943444   -4.761767
     94          1           0       -4.038466    2.621323   -4.777675
     95          1           0       -8.386792   -0.810182   -4.008964
     96          1           0       -8.206934    0.895840   -4.336612
     97          1           0       -9.431073    0.288021   -3.066758
     98          1           0       -7.119987   -3.378779    0.292097
     99          1           0       -4.229468   -6.509738   -0.503227
    100          1           0       -5.391615   -6.767904   -1.912013
    101          1           0       -5.688383   -7.391704   -0.355297
    102          1           0        1.159090   -6.242936    0.271157
    103          1           0        1.362282   -5.027192    1.566436
    104          1           0        1.260337   -4.122880   -1.247760
    105          1           0        4.448517   -3.323900    1.500735
    106          1           0        4.800438   -4.947040    0.802487
    107          1           0        3.496423   -4.622099    1.931875
    108          1           0        3.142177   -3.119246   -2.165631
    109          1           0        4.742753   -3.601573   -1.659049
    110          1           0        3.950719   -1.395536    0.046328
    111          1           0        3.780391   -1.004577   -1.676792
    112          1           0        6.021535   -1.597896   -2.235855
    113          1           0        6.341265   -2.014928   -0.436459
    114          1           0        5.308982    0.571058   -0.131189
    115          1           0        5.924359    1.802302   -2.049614
    116          1           0        6.572621    0.327306   -2.866252
    117          1           0        7.543895    1.274995   -1.854678
    118          1           0        6.827808   -0.363326    1.272614
    119          1           0        7.468375    1.118070    0.475653
    120          1           0        8.410739   -1.256720   -0.974686
    121          1           0        8.884214   -1.292518    0.671611
    122          1           0        9.466359    1.474989   -0.377455
    123          1           0        9.809405    0.126863   -1.518135
    124          1           0       11.374218   -0.919404   -0.081043
    125          1           0       11.092874    1.279970    2.052317
    126          1           0       11.590920   -0.451344    2.164671
    127          1           0        9.921897    0.013385    2.220518
    128          1           0       12.664586    1.502509    0.635581
    129          1           0       11.546228    2.057155   -0.514630
    130          1           0       12.842891    1.462613   -2.139040
    131          1           0       12.256613   -0.110407   -1.928152
    132          1           0       14.175595   -1.043339   -1.623350
    133          1           0       14.378655   -0.117173   -0.032089
    134          1           0       15.254433    0.870121   -2.530232
    135          1           0       16.962152   -0.574455   -0.598777
    136          1           0       17.476287    0.173358   -2.200734
    137          1           0       16.419042   -1.238336   -2.037778
    138          1           0       15.708640    2.794510   -1.206946
    139          1           0       16.695782    1.758247   -0.123089
    140          1           0       14.984811    2.154006    0.162367
 ---------------------------------------------------------------------

 SCF Done:  E(RZINDO/S) =  -474.204428325     A.U. after   19 cycles

 Excitation energies and oscillator strengths:

 Excited State   1:      Singlet-A      1.2554 eV  987.60 nm  f=0.5705  <S**2>=0.000
     175 ->178        -0.16811
     176 ->177         0.66750
 This state for optimization and/or second-order correction.
 Total Energy, E(CIS/TDA) =  -474.158292783
 Copying the excited state density for this state as the 1-particle RhoCI density.

 Excited State   2:      Singlet-A      1.8785 eV  660.02 nm  f=0.0190  <S**2>=0.000
     175 ->177         0.51781
     176 ->178         0.44855

 Excited State   3:      Singlet-A      2.8234 eV  439.13 nm  f=0.0061  <S**2>=0.000
     167 ->179        -0.14214
     168 ->177         0.29733
     168 ->178        -0.18853
     168 ->179        -0.41504
     168 ->180        -0.24967
     168 ->185         0.20500
     168 ->193         0.10986

 Excited State   4:      Singlet-A      2.9047 eV  426.84 nm  f=0.9908  <S**2>=0.000
     175 ->177        -0.41165
     176 ->178         0.51569
     176 ->179         0.12840

 Excited State   5:      Singlet-A      2.9558 eV  419.46 nm  f=0.1383  <S**2>=0.000
     174 ->177         0.10456
     175 ->177         0.10751
     176 ->179         0.58896
     176 ->180        -0.25809

 The electronic state is 1-A.
 Alpha  occ. eigenvalues --   -1.84181  -1.81527  -1.78917  -1.74437  -1.72284
 Alpha  occ. eigenvalues --   -1.69186  -1.66640  -1.61152  -1.60292  -1.58367
 Alpha  occ. eigenvalues --   -1.55431  -1.50710  -1.47187  -1.46736  -1.45960
 Alpha  occ. eigenvalues --   -1.42982  -1.41622  -1.40713  -1.38581  -1.37042
 Alpha  occ. eigenvalues --   -1.35482  -1.33990  -1.32676  -1.30936  -1.27963
 Alpha  occ. eigenvalues --   -1.27200  -1.24516  -1.23594  -1.20431  -1.17799
 Alpha  occ. eigenvalues --   -1.16932  -1.16510  -1.15858  -1.14619  -1.14052
 Alpha  occ. eigenvalues --   -1.13383  -1.11249  -1.10174  -1.06178  -1.04201
 Alpha  occ. eigenvalues --   -1.02928  -1.00828  -0.99485  -0.98482  -0.97729
 Alpha  occ. eigenvalues --   -0.96041  -0.94295  -0.94073  -0.93632  -0.91414
 Alpha  occ. eigenvalues --   -0.90117  -0.89480  -0.87718  -0.86894  -0.85956
 Alpha  occ. eigenvalues --   -0.85245  -0.83578  -0.82509  -0.81207  -0.79929
 Alpha  occ. eigenvalues --   -0.79315  -0.78249  -0.77585  -0.76994  -0.76879
 Alpha  occ. eigenvalues --   -0.75989  -0.75637  -0.74841  -0.74076  -0.73908
 Alpha  occ. eigenvalues --   -0.73630  -0.72444  -0.72056  -0.71530  -0.70828
 Alpha  occ. eigenvalues --   -0.69973  -0.69754  -0.69703  -0.69170  -0.67667
 Alpha  occ. eigenvalues --   -0.66749  -0.66604  -0.66078  -0.65666  -0.65393
 Alpha  occ. eigenvalues --   -0.64876  -0.64834  -0.64303  -0.63739  -0.63646
 Alpha  occ. eigenvalues --   -0.63389  -0.62958  -0.62631  -0.62333  -0.62059
 Alpha  occ. eigenvalues --   -0.61812  -0.61169  -0.60948  -0.60347  -0.59500
 Alpha  occ. eigenvalues --   -0.59382  -0.58318  -0.58163  -0.57973  -0.57913
 Alpha  occ. eigenvalues --   -0.57222  -0.57064  -0.56572  -0.56016  -0.55881
 Alpha  occ. eigenvalues --   -0.55773  -0.55327  -0.55058  -0.54876  -0.54603
 Alpha  occ. eigenvalues --   -0.54344  -0.53607  -0.53140  -0.53065  -0.52883
 Alpha  occ. eigenvalues --   -0.52311  -0.52228  -0.51959  -0.51836  -0.51540
 Alpha  occ. eigenvalues --   -0.51078  -0.51018  -0.50788  -0.50326  -0.50253
 Alpha  occ. eigenvalues --   -0.50075  -0.49628  -0.49482  -0.49349  -0.49153
 Alpha  occ. eigenvalues --   -0.48869  -0.48570  -0.48340  -0.48063  -0.47892
 Alpha  occ. eigenvalues --   -0.47699  -0.47453  -0.47101  -0.46842  -0.46654
 Alpha  occ. eigenvalues --   -0.46491  -0.46195  -0.45810  -0.45721  -0.45507
 Alpha  occ. eigenvalues --   -0.44935  -0.44766  -0.44465  -0.44189  -0.43451
 Alpha  occ. eigenvalues --   -0.43095  -0.42801  -0.42459  -0.42142  -0.41662
 Alpha  occ. eigenvalues --   -0.41445  -0.41074  -0.40820  -0.39420  -0.38707
 Alpha  occ. eigenvalues --   -0.37281  -0.37043  -0.36043  -0.35201  -0.33989
 Alpha  occ. eigenvalues --   -0.33727  -0.32837  -0.31873  -0.31185  -0.26985
 Alpha  occ. eigenvalues --   -0.21904
 Alpha virt. eigenvalues --   -0.08654  -0.02800  -0.01075   0.01200   0.02089
 Alpha virt. eigenvalues --    0.02155   0.02632   0.03485   0.04549   0.04998
 Alpha virt. eigenvalues --    0.06150   0.06661   0.07203   0.07301   0.08025

 Mulliken charges:
               1
     1  Mg   0.428050
     2  C   -0.042848
     3  C   -0.065656
     4  C   -0.089095
     5  C   -0.071908
     6  N   -0.282151
     7  C    0.101334
     8  C   -0.002200
     9  C   -0.018455
    10  C    0.162653
    11  C   -0.051912
    12  C   -0.021896
    13  C    0.003966
    14  C    0.479734
    15  O   -0.529417
    16  O   -0.265744
    17  N   -0.346733
    18  C    0.139179
    19  C    0.075279
    20  C   -0.034600
    21  C    0.128864
    22  C   -0.036316
    23  C    0.328162
    24  O   -0.529431
    25  C   -0.025387
    26  N   -0.253795
    27  C    0.160545
    28  C    0.000667
    29  C   -0.002452
    30  C    0.097728
    31  C   -0.048896
    32  C   -0.024969
    33  C   -0.057427
    34  N   -0.312470
    35  C    0.063415
    36  C    0.024110
    37  C   -0.096624
    38  C    0.132883
    39  C   -0.040179
    40  C    0.344255
    41  O   -0.537358
    42  C    0.049991
    43  C    0.499944
    44  O   -0.540070
    45  O   -0.276218
    46  C    0.076046
    47  C    0.108679
    48  C   -0.065385
    49  C   -0.033101
    50  C   -0.047852
    51  C   -0.025832
    52  C   -0.038387
    53  C   -0.041325
    54  C   -0.021609
    55  C   -0.065966
    56  C   -0.039371
    57  C   -0.039702
    58  C   -0.034057
    59  C   -0.008159
    60  C   -0.064189
    61  C   -0.036223
    62  C   -0.046147
    63  C   -0.035579
    64  C   -0.006738
    65  C   -0.055653
    66  C   -0.053143
    67  H    0.029098
    68  H    0.029552
    69  H    0.038168
    70  H    0.029891
    71  H    0.037734
    72  H    0.025636
    73  H    0.031420
    74  H    0.024219
    75  H    0.029650
    76  H    0.023881
    77  H    0.054988
    78  H    0.041279
    79  H    0.037670
    80  H    0.015374
    81  H    0.041969
    82  H    0.045987
    83  H    0.043341
    84  H    0.031539
    85  H    0.035631
    86  H    0.014381
    87  H    0.025951
    88  H    0.018058
    89  H    0.023303
    90  H    0.011019
    91  H    0.032717
    92  H    0.028804
    93  H    0.014002
    94  H    0.017789
    95  H    0.033865
    96  H    0.025559
    97  H    0.041542
    98  H    0.044877
    99  H    0.041534
   100  H    0.058908
   101  H    0.019400
   102  H    0.041785
   103  H    0.064084
   104  H    0.035056
   105  H    0.025481
   106  H    0.030123
   107  H    0.018672
   108  H    0.017922
   109  H    0.022869
   110  H    0.027942
   111  H    0.014432
   112  H    0.039721
   113  H    0.026191
   114  H    0.028523
   115  H    0.015733
   116  H    0.020337
   117  H    0.013720
   118  H    0.018000
   119  H    0.012635
   120  H    0.018264
   121  H    0.014246
   122  H    0.037138
   123  H    0.008658
   124  H    0.033559
   125  H    0.021446
   126  H    0.010707
   127  H    0.016098
   128  H    0.022322
   129  H    0.011110
   130  H    0.017951
   131  H    0.010051
   132  H    0.021568
   133  H    0.021872
   134  H    0.011629
   135  H    0.015357
   136  H    0.022440
   137  H    0.012182
   138  H    0.013997
   139  H    0.020439
   140  H    0.024144
 Sum of Mulliken charges =  -0.00000

 Dipole moment (field-independent basis, Debye):
    X=              1.5682    Y=              5.2277    Z=              2.4276  Tot=              5.9734
 N-N= 4.376584806029D+03 E-N= 0.000000000000D+00  KE=-9.427750377336D+03
 Leave Link  601 at Thu Apr 28 21:35:34 2022, MaxMem=  6710886400 cpu:               0.9 elap:               0.1
 (Enter /sw/apps/gaussian-16.0/g16/l9999.exe)
 1\1\GINC-BP1-COMPUTE161\SP\RZINDO CIS\STO-3G\C55H74Mg1N4O6\OF15641\28-
 Apr-2022\0\\#p ZINDO=(nstates=5)\\step_1751_chromophore_11 ZINDO\\0,1\
 Mg,0,53.616,23.52,44.498\C,0,50.885,25.763,44.249\C,0,51.59,20.933,44.
 239\C,0,56.386,21.61,44.416\C,0,55.686,26.46,44.823\N,0,51.49,23.41,43
 .96\C,0,50.514,24.397,43.988\C,0,49.1,23.802,44.097\C,0,49.363,22.226,
 44.358\C,0,50.931,22.153,44.126\C,0,48.796,21.566,45.727\C,0,48.008,24
 .084,42.927\C,0,48.522,24.104,41.465\C,0,48.151,22.997,40.527\O,0,47.8

 Normal termination of Gaussian 16 at Thu Apr 28 21:35:34 2022.
