 Gaussian 16, Revision A.03,
 Gaussian 16:  ES64L-G16RevA.03 25-Dec-2016

 ------------------------------
 #p blyp/Def2SVP td=(nstates=5)
 ------------------------------

 --------------------------------------------------
 step_1201_chromophore_7 TDDFT with blyp functional
 --------------------------------------------------
 Symbolic Z-matrix:
 Charge =  0 Multiplicity = 1

                         Standard orientation:
 ---------------------------------------------------------------------
 Center     Atomic      Atomic             Coordinates (Angstroms)
 Number     Number       Type             X           Y           Z
 ---------------------------------------------------------------------
      1         12           0        6.111836    0.592652    0.465896
      2          6           0        3.609593   -1.977902    0.328507
      3          6           0        3.654679    2.594902   -1.208061
      4          6           0        8.494175    2.794604   -0.202900
      5          6           0        8.425614   -1.836699    1.177987
      6          7           0        3.871108    0.323603   -0.358508
      7          6           0        3.069754   -0.792709   -0.128562
      8          6           0        1.647571   -0.512181   -0.451361
      9          6           0        1.771308    0.794544   -1.318794
     10          6           0        3.181243    1.286881   -0.913734
     11          6           0        1.831246    0.609630   -2.859070
     12          6           0        0.788929   -0.399234    0.873879
     13          6           0       -0.554615   -1.148055    0.895842
     14          6           0       -1.442545   -1.184989   -0.316730
     15          8           0       -1.346851   -0.433453   -1.272410
     16          8           0       -2.377452   -2.222259   -0.177673
     17          7           0        6.061410    2.488758   -0.379767
     18          6           0        4.919431    3.111063   -0.956896
     19          6           0        5.303470    4.504447   -1.279031
     20          6           0        6.667616    4.640390   -0.936171
     21          6           0        7.139563    3.215966   -0.541976
     22          6           0        4.294794    5.547654   -1.755723
     23          6           0        7.530284    5.885079   -1.048044
     24          8           0        8.693438    5.854277   -0.888727
     25          6           0        6.909283    7.179933   -1.697550
     26          7           0        8.227168    0.453636    0.249800
     27          6           0        8.980042    1.544487    0.121064
     28          6           0       10.431571    1.280059    0.701313
     29          6           0       10.207682   -0.124103    1.360732
     30          6           0        8.863728   -0.530857    0.965639
     31          6           0       11.596034    1.277972   -0.366950
     32          6           0       10.389089   -0.159971    2.889781
     33          6           0       11.403424   -1.260068    3.380561
     34          7           0        6.077227   -1.404766    0.777591
     35          6           0        7.077315   -2.277873    1.110726
     36          6           0        6.571556   -3.548525    1.465309
     37          6           0        5.220987   -3.483601    1.128235
     38          6           0        4.974536   -2.175834    0.645685
     39          6           0        7.264663   -4.738019    2.071225
     40          6           0        3.979610   -4.289521    1.096993
     41          8           0        3.772449   -5.429719    1.449860
     42          6           0        2.876518   -3.320637    0.512056
     43          6           0        2.379307   -3.948132   -0.687405
     44          8           0        2.675454   -3.602423   -1.815007
     45          8           0        1.448669   -4.908097   -0.363383
     46          6           0        0.452105   -5.096202   -1.363531
     47          6           0       -3.281727   -2.429387   -1.294126
     48          6           0       -4.711397   -2.289969   -0.922665
     49          6           0       -5.546725   -1.262023   -1.042819
     50          6           0       -5.240532    0.147295   -1.531837
     51          6           0       -7.061428   -1.493097   -0.849755
     52          6           0       -7.851617   -1.833950   -2.092225
     53          6           0       -8.656530   -0.718950   -2.737840
     54          6           0      -10.213347   -0.899917   -2.545634
     55          6           0      -10.988541   -1.134446   -3.874279
     56          6           0      -10.851281    0.234454   -1.669779
     57          6           0      -11.959815   -0.361469   -0.783058
     58          6           0      -13.117411    0.506707   -0.948190
     59          6           0      -14.307622    0.218153   -0.041625
     60          6           0      -15.613301   -0.111268   -0.806123
     61          6           0      -14.667868    1.316842    1.017834
     62          6           0      -13.677720    1.401962    2.237000
     63          6           0      -13.753443    2.719666    3.038629
     64          6           0      -12.866660    2.793416    4.258224
     65          6           0      -13.764419    2.749258    5.597844
     66          6           0      -11.845956    3.900798    4.324113
     67          1           0        2.870502    3.272561   -1.551840
     68          1           0        9.336673    3.476070   -0.336693
     69          1           0        9.139048   -2.596763    1.502196
     70          1           0        1.299485   -1.355657   -1.047539
     71          1           0        1.089964    1.563563   -0.952768
     72          1           0        2.805762    0.876866   -3.268477
     73          1           0        1.130003    1.283653   -3.349515
     74          1           0        1.668338   -0.428726   -3.149218
     75          1           0        0.625137    0.667818    1.025844
     76          1           0        1.445872   -0.704186    1.687814
     77          1           0       -1.225404   -0.708884    1.633474
     78          1           0       -0.325128   -2.165540    1.211172
     79          1           0        4.303576    6.424926   -1.110791
     80          1           0        3.293713    5.117915   -1.737616
     81          1           0        4.518224    5.865063   -2.774471
     82          1           0        6.513238    6.979859   -2.692887
     83          1           0        7.750595    7.793605   -2.018958
     84          1           0        6.285027    7.793989   -1.049358
     85          1           0       10.633777    2.038265    1.457097
     86          1           0       10.816984   -0.803649    0.765347
     87          1           0       11.552514    2.184462   -0.970537
     88          1           0       11.560765    0.340910   -0.922625
     89          1           0       12.570677    1.221148    0.117568
     90          1           0        9.390322   -0.369347    3.274126
     91          1           0       10.691270    0.817715    3.262293
     92          1           0       11.260786   -1.649771    4.387808
     93          1           0       12.380839   -0.782786    3.447398
     94          1           0       11.487379   -2.000878    2.585470
     95          1           0        8.348554   -4.645281    1.996563
     96          1           0        6.983250   -5.565107    1.419396
     97          1           0        6.881998   -5.162204    3.000009
     98          1           0        2.065819   -3.181278    1.228203
     99          1           0        0.025258   -6.071042   -1.124417
    100          1           0        0.845213   -5.270543   -2.365669
    101          1           0       -0.308949   -4.318044   -1.301809
    102          1           0       -2.906413   -3.377887   -1.678885
    103          1           0       -3.069651   -1.614727   -1.986845
    104          1           0       -5.081541   -3.315380   -0.932910
    105          1           0       -5.182551    0.331275   -2.604217
    106          1           0       -4.275752    0.486047   -1.152923
    107          1           0       -5.938493    0.882330   -1.130912
    108          1           0       -7.466213   -0.566926   -0.442462
    109          1           0       -7.188788   -2.279240   -0.105578
    110          1           0       -8.378341   -2.743300   -1.802221
    111          1           0       -7.167303   -2.220142   -2.847358
    112          1           0       -8.461643   -0.861183   -3.801000
    113          1           0       -8.269164    0.224192   -2.350585
    114          1           0      -10.274577   -1.783743   -1.911657
    115          1           0      -11.566508   -0.253486   -4.153399
    116          1           0      -11.634798   -1.994912   -3.698031
    117          1           0      -10.323238   -1.406878   -4.693765
    118          1           0      -11.174481    1.127723   -2.204758
    119          1           0      -10.180709    0.568123   -0.877688
    120          1           0      -11.648467   -0.493157    0.253537
    121          1           0      -12.257588   -1.316321   -1.217885
    122          1           0      -13.463988    0.543942   -1.981385
    123          1           0      -12.762252    1.481877   -0.616630
    124          1           0      -14.249450   -0.651065    0.613887
    125          1           0      -15.342730   -0.590625   -1.746366
    126          1           0      -16.280106    0.685140   -1.136952
    127          1           0      -16.347319   -0.790392   -0.371829
    128          1           0      -15.703267    1.046480    1.224917
    129          1           0      -14.871697    2.290429    0.571858
    130          1           0      -12.654473    1.412314    1.862657
    131          1           0      -13.856017    0.608311    2.963654
    132          1           0      -14.818763    2.830429    3.241073
    133          1           0      -13.412908    3.442063    2.297084
    134          1           0      -12.348630    1.835227    4.253596
    135          1           0      -14.819993    2.636258    5.349890
    136          1           0      -13.569947    3.667712    6.152346
    137          1           0      -13.567755    1.922774    6.279935
    138          1           0      -10.914244    3.420410    4.024915
    139          1           0      -11.850024    4.470718    5.253070
    140          1           0      -11.950696    4.700390    3.590976
 ---------------------------------------------------------------------

 SCF Done:  E(RB-LYP) =  -3007.35152391     A.U. after   22 cycles

 Excitation energies and oscillator strengths:

 Excited State   1:      Singlet-A      1.7833 eV  695.25 nm  f=0.2813  <S**2>=0.000
     245 -> 248        0.18971
     246 -> 247        0.69048
     246 <- 247       -0.14837
 This state for optimization and/or second-order correction.
 Total Energy, E(TD-HF/TD-DFT) =  -3007.28598886
 Copying the excited state density for this state as the 1-particle RhoCI density.

 Excited State   2:      Singlet-A      2.1081 eV  588.13 nm  f=0.0604  <S**2>=0.000
     244 -> 247       -0.14810
     245 -> 247        0.61262
     246 -> 248       -0.30080

 Excited State   3:      Singlet-A      2.1773 eV  569.43 nm  f=0.0045  <S**2>=0.000
     244 -> 247        0.68818
     245 -> 247        0.12574

 Excited State   4:      Singlet-A      2.2221 eV  557.96 nm  f=0.0022  <S**2>=0.000
     243 -> 247        0.70503

 Excited State   5:      Singlet-A      2.6432 eV  469.07 nm  f=0.0005  <S**2>=0.000
     242 -> 247        0.67167
     246 -> 248        0.12159
     246 -> 249        0.13482

 The electronic state is 1-A.
 Alpha  occ. eigenvalues --  -46.27575 -18.81802 -18.81157 -18.78120 -18.76500
 Alpha  occ. eigenvalues --  -18.75968 -18.75732 -14.02345 -14.01993 -14.01544
 Alpha  occ. eigenvalues --  -14.00552 -10.04909 -10.03303  -9.99842  -9.99685
 Alpha  occ. eigenvalues --   -9.97197  -9.97104  -9.96695  -9.95985  -9.95651
 Alpha  occ. eigenvalues --   -9.95595  -9.95360  -9.95248  -9.94610  -9.94315
 Alpha  occ. eigenvalues --   -9.94067  -9.94033  -9.93967  -9.93784  -9.93659
 Alpha  occ. eigenvalues --   -9.93594  -9.93370  -9.93312  -9.93100  -9.92987
 Alpha  occ. eigenvalues --   -9.92845  -9.92702  -9.92617  -9.92550  -9.92538
 Alpha  occ. eigenvalues --   -9.92481  -9.92322  -9.92236  -9.92009  -9.91999
 Alpha  occ. eigenvalues --   -9.91977  -9.91952  -9.91915  -9.91782  -9.91721
 Alpha  occ. eigenvalues --   -9.91710  -9.91536  -9.91517  -9.91453  -9.91450
 Alpha  occ. eigenvalues --   -9.91428  -9.91402  -9.91151  -9.91125  -9.90927
 Alpha  occ. eigenvalues --   -9.90904  -9.90746  -9.90664  -9.90611  -9.90602
 Alpha  occ. eigenvalues --   -9.90397  -2.92221  -1.72588  -1.72150  -1.71923
 Alpha  occ. eigenvalues --   -0.97926  -0.97662  -0.94094  -0.91921  -0.90841
 Alpha  occ. eigenvalues --   -0.90186  -0.86617  -0.85942  -0.85680  -0.84816
 Alpha  occ. eigenvalues --   -0.75185  -0.74239  -0.73629  -0.72591  -0.72570
 Alpha  occ. eigenvalues --   -0.72203  -0.71285  -0.71134  -0.70094  -0.70038
 Alpha  occ. eigenvalues --   -0.69411  -0.69206  -0.68538  -0.67435  -0.66890
 Alpha  occ. eigenvalues --   -0.66447  -0.65645  -0.65162  -0.64857  -0.64624
 Alpha  occ. eigenvalues --   -0.63532  -0.62337  -0.61932  -0.61737  -0.60977
 Alpha  occ. eigenvalues --   -0.60600  -0.60151  -0.59802  -0.59676  -0.59132
 Alpha  occ. eigenvalues --   -0.58649  -0.57608  -0.56182  -0.55870  -0.54583
 Alpha  occ. eigenvalues --   -0.53775  -0.53619  -0.52545  -0.52267  -0.51363
 Alpha  occ. eigenvalues --   -0.51291  -0.51038  -0.50518  -0.50385  -0.50023
 Alpha  occ. eigenvalues --   -0.49464  -0.48884  -0.48544  -0.48007  -0.46860
 Alpha  occ. eigenvalues --   -0.46091  -0.45724  -0.45508  -0.44891  -0.44867
 Alpha  occ. eigenvalues --   -0.44158  -0.43906  -0.43493  -0.43035  -0.42808
 Alpha  occ. eigenvalues --   -0.42349  -0.41937  -0.41821  -0.41224  -0.41192
 Alpha  occ. eigenvalues --   -0.40952  -0.40665  -0.40389  -0.40319  -0.40120
 Alpha  occ. eigenvalues --   -0.39832  -0.39788  -0.39573  -0.39437  -0.39202
 Alpha  occ. eigenvalues --   -0.39126  -0.39035  -0.38807  -0.38153  -0.38040
 Alpha  occ. eigenvalues --   -0.37748  -0.37699  -0.37464  -0.37336  -0.37041
 Alpha  occ. eigenvalues --   -0.36942  -0.36809  -0.36598  -0.36564  -0.36388
 Alpha  occ. eigenvalues --   -0.36145  -0.35943  -0.35688  -0.35447  -0.35261
 Alpha  occ. eigenvalues --   -0.35222  -0.34920  -0.34782  -0.34777  -0.34726
 Alpha  occ. eigenvalues --   -0.34678  -0.34568  -0.34207  -0.34135  -0.33860
 Alpha  occ. eigenvalues --   -0.33733  -0.33655  -0.33393  -0.33083  -0.32816
 Alpha  occ. eigenvalues --   -0.32742  -0.32590  -0.32365  -0.32336  -0.32200
 Alpha  occ. eigenvalues --   -0.32041  -0.31954  -0.31904  -0.31690  -0.31524
 Alpha  occ. eigenvalues --   -0.31358  -0.31196  -0.30869  -0.30553  -0.30519
 Alpha  occ. eigenvalues --   -0.30448  -0.30402  -0.30081  -0.30041  -0.29694
 Alpha  occ. eigenvalues --   -0.29523  -0.29309  -0.29222  -0.28856  -0.28740
 Alpha  occ. eigenvalues --   -0.28659  -0.28440  -0.28087  -0.27956  -0.27924
 Alpha  occ. eigenvalues --   -0.27441  -0.27323  -0.26994  -0.26738  -0.26677
 Alpha  occ. eigenvalues --   -0.26390  -0.26237  -0.25834  -0.25585  -0.25151
 Alpha  occ. eigenvalues --   -0.24755  -0.24578  -0.24442  -0.23639  -0.23509
 Alpha  occ. eigenvalues --   -0.23191  -0.22872  -0.21782  -0.21620  -0.21214
 Alpha  occ. eigenvalues --   -0.20535  -0.19989  -0.18818  -0.18631  -0.17058
 Alpha  occ. eigenvalues --   -0.14996
 Alpha virt. eigenvalues --   -0.10761  -0.06443  -0.05781  -0.04392  -0.04100
 Alpha virt. eigenvalues --   -0.03786  -0.03040  -0.02372  -0.00844   0.00483
 Alpha virt. eigenvalues --    0.01830   0.02105   0.02201   0.03004   0.03165

 Mulliken charges:
               1
     1  Mg   0.707110
     2  C   -0.018049
     3  C   -0.072887
     4  C   -0.037847
     5  C   -0.090054
     6  N   -0.138472
     7  C   -0.123863
     8  C    0.023304
     9  C    0.026313
    10  C   -0.075412
    11  C    0.151514
    12  C    0.161479
    13  C    0.117987
    14  C    0.084533
    15  O   -0.182386
    16  O   -0.297530
    17  N   -0.285750
    18  C    0.192688
    19  C   -0.156437
    20  C    0.010320
    21  C    0.111425
    22  C    0.194351
    23  C   -0.079868
    24  O   -0.107420
    25  C    0.091566
    26  N   -0.226296
    27  C    0.005554
    28  C   -0.015914
    29  C    0.055338
    30  C    0.010486
    31  C    0.118320
    32  C    0.125312
    33  C    0.059289
    34  N   -0.276256
    35  C    0.114031
    36  C   -0.182393
    37  C    0.069299
    38  C    0.105459
    39  C    0.186048
    40  C   -0.056578
    41  O   -0.106688
    42  C    0.062260
    43  C    0.117586
    44  O   -0.170917
    45  O   -0.261319
    46  C    0.213628
    47  C    0.291718
    48  C   -0.059634
    49  C   -0.122686
    50  C    0.125831
    51  C    0.120381
    52  C    0.056098
    53  C    0.149959
    54  C   -0.081929
    55  C    0.117066
    56  C    0.101180
    57  C    0.055528
    58  C    0.136066
    59  C   -0.030514
    60  C    0.069109
    61  C    0.085783
    62  C    0.047267
    63  C    0.090197
    64  C   -0.062880
    65  C    0.075807
    66  C    0.123146
    67  H   -0.060547
    68  H   -0.041301
    69  H   -0.069340
    70  H   -0.023497
    71  H   -0.035490
    72  H   -0.004344
    73  H   -0.005845
    74  H    0.006981
    75  H   -0.032466
    76  H   -0.018125
    77  H    0.009646
    78  H    0.008892
    79  H    0.003461
    80  H   -0.020521
    81  H    0.003341
    82  H    0.000097
    83  H   -0.024936
    84  H    0.012747
    85  H   -0.023592
    86  H   -0.030949
    87  H    0.007626
    88  H   -0.007922
    89  H   -0.012524
    90  H   -0.017037
    91  H   -0.022390
    92  H   -0.002598
    93  H   -0.016212
    94  H   -0.000805
    95  H   -0.019283
    96  H   -0.006969
    97  H    0.004836
    98  H   -0.001149
    99  H    0.002791
   100  H    0.013293
   101  H    0.009829
   102  H   -0.012863
   103  H   -0.015173
   104  H   -0.042854
   105  H    0.016914
   106  H   -0.006016
   107  H   -0.016288
   108  H   -0.034985
   109  H   -0.030391
   110  H   -0.030626
   111  H   -0.040965
   112  H   -0.046154
   113  H   -0.026657
   114  H   -0.031951
   115  H   -0.004425
   116  H   -0.009584
   117  H   -0.016880
   118  H   -0.022098
   119  H   -0.045550
   120  H   -0.021346
   121  H   -0.033738
   122  H   -0.030545
   123  H   -0.042077
   124  H   -0.041996
   125  H   -0.035269
   126  H   -0.026898
   127  H   -0.022600
   128  H   -0.049339
   129  H   -0.046692
   130  H   -0.026985
   131  H   -0.023106
   132  H   -0.027638
   133  H   -0.042132
   134  H   -0.036771
   135  H   -0.018354
   136  H   -0.016872
   137  H   -0.014505
   138  H   -0.012748
   139  H   -0.012544
   140  H   -0.027354
 Sum of Mulliken charges =  -0.00000

 Dipole moment (field-independent basis, Debye):
    X=             -3.8166    Y=              2.4698    Z=              1.3556  Tot=              4.7439
 Quadrupole moment (field-independent basis, Debye-Ang):
   XX=           -391.8425   YY=           -424.2969   ZZ=           -402.5996
   XY=              1.4542   XZ=             25.1806   YZ=              4.4433

 Normal termination of Gaussian 16 at Wed Apr 27 15:41:43 2022.
