 Gaussian 16, Revision A.03,
 Gaussian 16:  ES64L-G16RevA.03 25-Dec-2016

 -----------------------------------
 #p cam-b3lyp/Def2SVP td=(nstates=5)
 -----------------------------------

 -------------------------------------------------------
 step_1201_chromophore_7 TDDFT with cam-b3lyp functional
 -------------------------------------------------------
 Symbolic Z-matrix:
 Charge =  0 Multiplicity = 1

                         Standard orientation:
 ---------------------------------------------------------------------
 Center     Atomic      Atomic             Coordinates (Angstroms)
 Number     Number       Type             X           Y           Z
 ---------------------------------------------------------------------
      1         12           0        6.111836    0.592652    0.465896
      2          6           0        3.609593   -1.977902    0.328507
      3          6           0        3.654679    2.594902   -1.208061
      4          6           0        8.494175    2.794604   -0.202900
      5          6           0        8.425614   -1.836699    1.177987
      6          7           0        3.871108    0.323603   -0.358508
      7          6           0        3.069754   -0.792709   -0.128562
      8          6           0        1.647571   -0.512181   -0.451361
      9          6           0        1.771308    0.794544   -1.318794
     10          6           0        3.181243    1.286881   -0.913734
     11          6           0        1.831246    0.609630   -2.859070
     12          6           0        0.788929   -0.399234    0.873879
     13          6           0       -0.554615   -1.148055    0.895842
     14          6           0       -1.442545   -1.184989   -0.316730
     15          8           0       -1.346851   -0.433453   -1.272410
     16          8           0       -2.377452   -2.222259   -0.177673
     17          7           0        6.061410    2.488758   -0.379767
     18          6           0        4.919431    3.111063   -0.956896
     19          6           0        5.303470    4.504447   -1.279031
     20          6           0        6.667616    4.640390   -0.936171
     21          6           0        7.139563    3.215966   -0.541976
     22          6           0        4.294794    5.547654   -1.755723
     23          6           0        7.530284    5.885079   -1.048044
     24          8           0        8.693438    5.854277   -0.888727
     25          6           0        6.909283    7.179933   -1.697550
     26          7           0        8.227168    0.453636    0.249800
     27          6           0        8.980042    1.544487    0.121064
     28          6           0       10.431571    1.280059    0.701313
     29          6           0       10.207682   -0.124103    1.360732
     30          6           0        8.863728   -0.530857    0.965639
     31          6           0       11.596034    1.277972   -0.366950
     32          6           0       10.389089   -0.159971    2.889781
     33          6           0       11.403424   -1.260068    3.380561
     34          7           0        6.077227   -1.404766    0.777591
     35          6           0        7.077315   -2.277873    1.110726
     36          6           0        6.571556   -3.548525    1.465309
     37          6           0        5.220987   -3.483601    1.128235
     38          6           0        4.974536   -2.175834    0.645685
     39          6           0        7.264663   -4.738019    2.071225
     40          6           0        3.979610   -4.289521    1.096993
     41          8           0        3.772449   -5.429719    1.449860
     42          6           0        2.876518   -3.320637    0.512056
     43          6           0        2.379307   -3.948132   -0.687405
     44          8           0        2.675454   -3.602423   -1.815007
     45          8           0        1.448669   -4.908097   -0.363383
     46          6           0        0.452105   -5.096202   -1.363531
     47          6           0       -3.281727   -2.429387   -1.294126
     48          6           0       -4.711397   -2.289969   -0.922665
     49          6           0       -5.546725   -1.262023   -1.042819
     50          6           0       -5.240532    0.147295   -1.531837
     51          6           0       -7.061428   -1.493097   -0.849755
     52          6           0       -7.851617   -1.833950   -2.092225
     53          6           0       -8.656530   -0.718950   -2.737840
     54          6           0      -10.213347   -0.899917   -2.545634
     55          6           0      -10.988541   -1.134446   -3.874279
     56          6           0      -10.851281    0.234454   -1.669779
     57          6           0      -11.959815   -0.361469   -0.783058
     58          6           0      -13.117411    0.506707   -0.948190
     59          6           0      -14.307622    0.218153   -0.041625
     60          6           0      -15.613301   -0.111268   -0.806123
     61          6           0      -14.667868    1.316842    1.017834
     62          6           0      -13.677720    1.401962    2.237000
     63          6           0      -13.753443    2.719666    3.038629
     64          6           0      -12.866660    2.793416    4.258224
     65          6           0      -13.764419    2.749258    5.597844
     66          6           0      -11.845956    3.900798    4.324113
     67          1           0        2.870502    3.272561   -1.551840
     68          1           0        9.336673    3.476070   -0.336693
     69          1           0        9.139048   -2.596763    1.502196
     70          1           0        1.299485   -1.355657   -1.047539
     71          1           0        1.089964    1.563563   -0.952768
     72          1           0        2.805762    0.876866   -3.268477
     73          1           0        1.130003    1.283653   -3.349515
     74          1           0        1.668338   -0.428726   -3.149218
     75          1           0        0.625137    0.667818    1.025844
     76          1           0        1.445872   -0.704186    1.687814
     77          1           0       -1.225404   -0.708884    1.633474
     78          1           0       -0.325128   -2.165540    1.211172
     79          1           0        4.303576    6.424926   -1.110791
     80          1           0        3.293713    5.117915   -1.737616
     81          1           0        4.518224    5.865063   -2.774471
     82          1           0        6.513238    6.979859   -2.692887
     83          1           0        7.750595    7.793605   -2.018958
     84          1           0        6.285027    7.793989   -1.049358
     85          1           0       10.633777    2.038265    1.457097
     86          1           0       10.816984   -0.803649    0.765347
     87          1           0       11.552514    2.184462   -0.970537
     88          1           0       11.560765    0.340910   -0.922625
     89          1           0       12.570677    1.221148    0.117568
     90          1           0        9.390322   -0.369347    3.274126
     91          1           0       10.691270    0.817715    3.262293
     92          1           0       11.260786   -1.649771    4.387808
     93          1           0       12.380839   -0.782786    3.447398
     94          1           0       11.487379   -2.000878    2.585470
     95          1           0        8.348554   -4.645281    1.996563
     96          1           0        6.983250   -5.565107    1.419396
     97          1           0        6.881998   -5.162204    3.000009
     98          1           0        2.065819   -3.181278    1.228203
     99          1           0        0.025258   -6.071042   -1.124417
    100          1           0        0.845213   -5.270543   -2.365669
    101          1           0       -0.308949   -4.318044   -1.301809
    102          1           0       -2.906413   -3.377887   -1.678885
    103          1           0       -3.069651   -1.614727   -1.986845
    104          1           0       -5.081541   -3.315380   -0.932910
    105          1           0       -5.182551    0.331275   -2.604217
    106          1           0       -4.275752    0.486047   -1.152923
    107          1           0       -5.938493    0.882330   -1.130912
    108          1           0       -7.466213   -0.566926   -0.442462
    109          1           0       -7.188788   -2.279240   -0.105578
    110          1           0       -8.378341   -2.743300   -1.802221
    111          1           0       -7.167303   -2.220142   -2.847358
    112          1           0       -8.461643   -0.861183   -3.801000
    113          1           0       -8.269164    0.224192   -2.350585
    114          1           0      -10.274577   -1.783743   -1.911657
    115          1           0      -11.566508   -0.253486   -4.153399
    116          1           0      -11.634798   -1.994912   -3.698031
    117          1           0      -10.323238   -1.406878   -4.693765
    118          1           0      -11.174481    1.127723   -2.204758
    119          1           0      -10.180709    0.568123   -0.877688
    120          1           0      -11.648467   -0.493157    0.253537
    121          1           0      -12.257588   -1.316321   -1.217885
    122          1           0      -13.463988    0.543942   -1.981385
    123          1           0      -12.762252    1.481877   -0.616630
    124          1           0      -14.249450   -0.651065    0.613887
    125          1           0      -15.342730   -0.590625   -1.746366
    126          1           0      -16.280106    0.685140   -1.136952
    127          1           0      -16.347319   -0.790392   -0.371829
    128          1           0      -15.703267    1.046480    1.224917
    129          1           0      -14.871697    2.290429    0.571858
    130          1           0      -12.654473    1.412314    1.862657
    131          1           0      -13.856017    0.608311    2.963654
    132          1           0      -14.818763    2.830429    3.241073
    133          1           0      -13.412908    3.442063    2.297084
    134          1           0      -12.348630    1.835227    4.253596
    135          1           0      -14.819993    2.636258    5.349890
    136          1           0      -13.569947    3.667712    6.152346
    137          1           0      -13.567755    1.922774    6.279935
    138          1           0      -10.914244    3.420410    4.024915
    139          1           0      -11.850024    4.470718    5.253070
    140          1           0      -11.950696    4.700390    3.590976
 ---------------------------------------------------------------------

 SCF Done:  E(RCAM-B3LYP) =  -3007.15587963     A.U. after   16 cycles

 Excitation energies and oscillator strengths:

 Excited State   1:      Singlet-A      1.7489 eV  708.91 nm  f=0.3605  <S**2>=0.000
     245 -> 248       -0.16748
     246 -> 247        0.68761
     245 <- 248       -0.10181
 This state for optimization and/or second-order correction.
 Total Energy, E(TD-HF/TD-DFT) =  -3007.09160697
 Copying the excited state density for this state as the 1-particle RhoCI density.

 Excited State   2:      Singlet-A      2.3635 eV  524.58 nm  f=0.0632  <S**2>=0.000
     245 -> 247        0.60169
     246 -> 248        0.35660

 Excited State   3:      Singlet-A      3.3632 eV  368.65 nm  f=0.1686  <S**2>=0.000
     245 -> 247        0.17000
     246 -> 248       -0.30360
     246 -> 249        0.51470
     246 -> 250        0.31459

 Excited State   4:      Singlet-A      3.4685 eV  357.46 nm  f=0.4790  <S**2>=0.000
     242 -> 247        0.10567
     243 -> 247       -0.17497
     245 -> 247       -0.27377
     246 -> 248        0.49171
     246 -> 249        0.30560
     246 -> 250        0.16702

 Excited State   5:      Singlet-A      3.6467 eV  339.99 nm  f=0.0104  <S**2>=0.000
     242 -> 247        0.18056
     243 -> 247       -0.34291
     244 -> 247        0.55740

 The electronic state is 1-A.
 Alpha  occ. eigenvalues --  -46.89123 -19.24664 -19.24040 -19.21120 -19.19592
 Alpha  occ. eigenvalues --  -19.19470 -19.18736 -14.41438 -14.40370 -14.40293
 Alpha  occ. eigenvalues --  -14.38583 -10.40299 -10.38673 -10.35320 -10.34825
 Alpha  occ. eigenvalues --  -10.31871 -10.31283 -10.31097 -10.30985 -10.30488
 Alpha  occ. eigenvalues --  -10.30277 -10.29382 -10.29270 -10.29185 -10.28220
 Alpha  occ. eigenvalues --  -10.28216 -10.28033 -10.27750 -10.27735 -10.27681
 Alpha  occ. eigenvalues --  -10.27626 -10.27594 -10.27563 -10.27548 -10.27517
 Alpha  occ. eigenvalues --  -10.27277 -10.27226 -10.26233 -10.26154 -10.26098
 Alpha  occ. eigenvalues --  -10.26081 -10.26006 -10.25937 -10.25892 -10.25705
 Alpha  occ. eigenvalues --  -10.25651 -10.25642 -10.25536 -10.25465 -10.25446
 Alpha  occ. eigenvalues --  -10.25430 -10.25215 -10.25201 -10.25123 -10.25060
 Alpha  occ. eigenvalues --  -10.25054 -10.25034 -10.24858 -10.24808 -10.24544
 Alpha  occ. eigenvalues --  -10.24499 -10.24330 -10.24265 -10.24253 -10.24240
 Alpha  occ. eigenvalues --  -10.23862  -3.17670  -1.92512  -1.92143  -1.91968
 Alpha  occ. eigenvalues --   -1.16458  -1.16140  -1.13121  -1.09950  -1.08705
 Alpha  occ. eigenvalues --   -1.08129  -1.04268  -1.03558  -1.03180  -1.02423
 Alpha  occ. eigenvalues --   -0.92116  -0.91125  -0.90462  -0.89327  -0.89183
 Alpha  occ. eigenvalues --   -0.88913  -0.88208  -0.87730  -0.86681  -0.86412
 Alpha  occ. eigenvalues --   -0.85813  -0.85553  -0.84888  -0.83544  -0.82967
 Alpha  occ. eigenvalues --   -0.82464  -0.81585  -0.81149  -0.80598  -0.80410
 Alpha  occ. eigenvalues --   -0.79887  -0.78177  -0.77793  -0.77086  -0.76320
 Alpha  occ. eigenvalues --   -0.75829  -0.75509  -0.75058  -0.74909  -0.74404
 Alpha  occ. eigenvalues --   -0.73749  -0.72491  -0.71025  -0.70666  -0.68952
 Alpha  occ. eigenvalues --   -0.68360  -0.68148  -0.66995  -0.66866  -0.65520
 Alpha  occ. eigenvalues --   -0.65300  -0.65184  -0.64452  -0.64393  -0.64171
 Alpha  occ. eigenvalues --   -0.63457  -0.62587  -0.62394  -0.61586  -0.60508
 Alpha  occ. eigenvalues --   -0.59935  -0.59211  -0.59107  -0.58455  -0.58167
 Alpha  occ. eigenvalues --   -0.57400  -0.57211  -0.56857  -0.56000  -0.55923
 Alpha  occ. eigenvalues --   -0.55617  -0.54933  -0.54817  -0.54344  -0.54037
 Alpha  occ. eigenvalues --   -0.53826  -0.53711  -0.53345  -0.53058  -0.52986
 Alpha  occ. eigenvalues --   -0.52815  -0.52565  -0.52292  -0.52240  -0.51856
 Alpha  occ. eigenvalues --   -0.51555  -0.51402  -0.51290  -0.50622  -0.50513
 Alpha  occ. eigenvalues --   -0.50269  -0.49980  -0.49956  -0.49836  -0.49588
 Alpha  occ. eigenvalues --   -0.49435  -0.49130  -0.48917  -0.48769  -0.48572
 Alpha  occ. eigenvalues --   -0.48333  -0.48220  -0.47932  -0.47717  -0.47589
 Alpha  occ. eigenvalues --   -0.47473  -0.47103  -0.46859  -0.46620  -0.46530
 Alpha  occ. eigenvalues --   -0.46455  -0.46327  -0.45937  -0.45819  -0.45754
 Alpha  occ. eigenvalues --   -0.45595  -0.45411  -0.45044  -0.44914  -0.44619
 Alpha  occ. eigenvalues --   -0.44400  -0.44265  -0.44022  -0.43889  -0.43829
 Alpha  occ. eigenvalues --   -0.43686  -0.43553  -0.43388  -0.43171  -0.43067
 Alpha  occ. eigenvalues --   -0.42830  -0.42756  -0.42506  -0.42083  -0.41882
 Alpha  occ. eigenvalues --   -0.41645  -0.41533  -0.41395  -0.41258  -0.41131
 Alpha  occ. eigenvalues --   -0.40795  -0.40610  -0.40509  -0.40182  -0.39976
 Alpha  occ. eigenvalues --   -0.39780  -0.39432  -0.39088  -0.38965  -0.38863
 Alpha  occ. eigenvalues --   -0.38193  -0.38175  -0.37782  -0.37626  -0.37507
 Alpha  occ. eigenvalues --   -0.37414  -0.36914  -0.36433  -0.36364  -0.36248
 Alpha  occ. eigenvalues --   -0.36129  -0.35768  -0.35250  -0.35040  -0.34179
 Alpha  occ. eigenvalues --   -0.33888  -0.33834  -0.32772  -0.31538  -0.31014
 Alpha  occ. eigenvalues --   -0.30750  -0.30300  -0.30042  -0.28899  -0.23939
 Alpha  occ. eigenvalues --   -0.20195
 Alpha virt. eigenvalues --   -0.07605  -0.01177   0.00580   0.01176   0.02901
 Alpha virt. eigenvalues --    0.03225   0.04896   0.05504   0.06447   0.07214
 Alpha virt. eigenvalues --    0.08328   0.08365   0.08858   0.09326   0.09512

 Mulliken charges:
               1
     1  Mg   0.837726
     2  C   -0.034279
     3  C   -0.084182
     4  C   -0.069184
     5  C   -0.090063
     6  N   -0.198784
     7  C   -0.089798
     8  C   -0.028190
     9  C   -0.025364
    10  C   -0.055918
    11  C    0.091750
    12  C    0.114136
    13  C    0.045382
    14  C    0.165345
    15  O   -0.224879
    16  O   -0.360942
    17  N   -0.375750
    18  C    0.203931
    19  C   -0.160328
    20  C   -0.053907
    21  C    0.149404
    22  C    0.135911
    23  C   -0.002257
    24  O   -0.143363
    25  C    0.010924
    26  N   -0.302206
    27  C    0.037601
    28  C   -0.065584
    29  C   -0.015739
    30  C    0.028197
    31  C    0.065264
    32  C    0.068173
    33  C    0.001000
    34  N   -0.365485
    35  C    0.110264
    36  C   -0.186412
    37  C   -0.009673
    38  C    0.137550
    39  C    0.135472
    40  C    0.043376
    41  O   -0.147370
    42  C   -0.016756
    43  C    0.205115
    44  O   -0.206523
    45  O   -0.321603
    46  C    0.176542
    47  C    0.256254
    48  C   -0.083932
    49  C   -0.140116
    50  C    0.061679
    51  C    0.059576
    52  C    0.001470
    53  C    0.092354
    54  C   -0.138151
    55  C    0.060161
    56  C    0.047157
    57  C    0.006952
    58  C    0.076538
    59  C   -0.089738
    60  C    0.011684
    61  C    0.034493
    62  C   -0.001696
    63  C    0.040614
    64  C   -0.130088
    65  C    0.023084
    66  C    0.061183
    67  H   -0.023267
    68  H   -0.006311
    69  H   -0.036897
    70  H    0.008005
    71  H   -0.000113
    72  H    0.021872
    73  H    0.018735
    74  H    0.033718
    75  H   -0.003759
    76  H    0.014565
    77  H    0.042614
    78  H    0.038462
    79  H    0.031405
    80  H    0.009438
    81  H    0.032602
    82  H    0.028736
    83  H    0.012898
    84  H    0.041847
    85  H    0.010793
    86  H    0.005147
    87  H    0.029887
    88  H    0.015919
    89  H    0.012766
    90  H    0.013450
    91  H    0.003987
    92  H    0.021781
    93  H    0.005797
    94  H    0.018807
    95  H    0.002890
    96  H    0.017042
    97  H    0.029298
    98  H    0.039105
    99  H    0.027199
   100  H    0.039589
   101  H    0.023754
   102  H    0.015371
   103  H    0.019936
   104  H   -0.010014
   105  H    0.041062
   106  H    0.018886
   107  H    0.008822
   108  H   -0.007634
   109  H    0.002631
   110  H   -0.001346
   111  H   -0.010772
   112  H   -0.014800
   113  H   -0.000513
   114  H    0.000225
   115  H    0.017324
   116  H    0.013101
   117  H    0.007599
   118  H    0.006699
   119  H   -0.016429
   120  H    0.005985
   121  H   -0.007629
   122  H   -0.001946
   123  H   -0.013961
   124  H   -0.008572
   125  H   -0.009994
   126  H   -0.002250
   127  H    0.003348
   128  H   -0.018468
   129  H   -0.017742
   130  H   -0.004035
   131  H    0.002671
   132  H   -0.000254
   133  H   -0.014130
   134  H   -0.002698
   135  H    0.004723
   136  H    0.005151
   137  H    0.009075
   138  H    0.010916
   139  H    0.011815
   140  H   -0.001920
 Sum of Mulliken charges =  -0.00000

 Dipole moment (field-independent basis, Debye):
    X=             -4.2514    Y=              4.2811    Z=              0.7850  Tot=              6.0843
 Quadrupole moment (field-independent basis, Debye-Ang):
   XX=           -393.1721   YY=           -417.9501   ZZ=           -402.3153
   XY=             11.8873   XZ=             22.4451   YZ=              3.3179

 Normal termination of Gaussian 16 at Wed Apr 27 14:42:23 2022.
