 Gaussian 16, Revision A.03,
 Gaussian 16:  ES64L-G16RevA.03 25-Dec-2016

 ---------------------------------
 #p PBE1PBE/Def2SVP td=(nstates=5)
 ---------------------------------

 -----------------------------------------------------
 step_1201_chromophore_7 TDDFT with PBE1PBE functional
 -----------------------------------------------------
 Symbolic Z-matrix:
 Charge =  0 Multiplicity = 1

                         Standard orientation:
 ---------------------------------------------------------------------
 Center     Atomic      Atomic             Coordinates (Angstroms)
 Number     Number       Type             X           Y           Z
 ---------------------------------------------------------------------
      1         12           0        6.111836    0.592652    0.465896
      2          6           0        3.609593   -1.977902    0.328507
      3          6           0        3.654679    2.594902   -1.208061
      4          6           0        8.494175    2.794604   -0.202900
      5          6           0        8.425614   -1.836699    1.177987
      6          7           0        3.871108    0.323603   -0.358508
      7          6           0        3.069754   -0.792709   -0.128562
      8          6           0        1.647571   -0.512181   -0.451361
      9          6           0        1.771308    0.794544   -1.318794
     10          6           0        3.181243    1.286881   -0.913734
     11          6           0        1.831246    0.609630   -2.859070
     12          6           0        0.788929   -0.399234    0.873879
     13          6           0       -0.554615   -1.148055    0.895842
     14          6           0       -1.442545   -1.184989   -0.316730
     15          8           0       -1.346851   -0.433453   -1.272410
     16          8           0       -2.377452   -2.222259   -0.177673
     17          7           0        6.061410    2.488758   -0.379767
     18          6           0        4.919431    3.111063   -0.956896
     19          6           0        5.303470    4.504447   -1.279031
     20          6           0        6.667616    4.640390   -0.936171
     21          6           0        7.139563    3.215966   -0.541976
     22          6           0        4.294794    5.547654   -1.755723
     23          6           0        7.530284    5.885079   -1.048044
     24          8           0        8.693438    5.854277   -0.888727
     25          6           0        6.909283    7.179933   -1.697550
     26          7           0        8.227168    0.453636    0.249800
     27          6           0        8.980042    1.544487    0.121064
     28          6           0       10.431571    1.280059    0.701313
     29          6           0       10.207682   -0.124103    1.360732
     30          6           0        8.863728   -0.530857    0.965639
     31          6           0       11.596034    1.277972   -0.366950
     32          6           0       10.389089   -0.159971    2.889781
     33          6           0       11.403424   -1.260068    3.380561
     34          7           0        6.077227   -1.404766    0.777591
     35          6           0        7.077315   -2.277873    1.110726
     36          6           0        6.571556   -3.548525    1.465309
     37          6           0        5.220987   -3.483601    1.128235
     38          6           0        4.974536   -2.175834    0.645685
     39          6           0        7.264663   -4.738019    2.071225
     40          6           0        3.979610   -4.289521    1.096993
     41          8           0        3.772449   -5.429719    1.449860
     42          6           0        2.876518   -3.320637    0.512056
     43          6           0        2.379307   -3.948132   -0.687405
     44          8           0        2.675454   -3.602423   -1.815007
     45          8           0        1.448669   -4.908097   -0.363383
     46          6           0        0.452105   -5.096202   -1.363531
     47          6           0       -3.281727   -2.429387   -1.294126
     48          6           0       -4.711397   -2.289969   -0.922665
     49          6           0       -5.546725   -1.262023   -1.042819
     50          6           0       -5.240532    0.147295   -1.531837
     51          6           0       -7.061428   -1.493097   -0.849755
     52          6           0       -7.851617   -1.833950   -2.092225
     53          6           0       -8.656530   -0.718950   -2.737840
     54          6           0      -10.213347   -0.899917   -2.545634
     55          6           0      -10.988541   -1.134446   -3.874279
     56          6           0      -10.851281    0.234454   -1.669779
     57          6           0      -11.959815   -0.361469   -0.783058
     58          6           0      -13.117411    0.506707   -0.948190
     59          6           0      -14.307622    0.218153   -0.041625
     60          6           0      -15.613301   -0.111268   -0.806123
     61          6           0      -14.667868    1.316842    1.017834
     62          6           0      -13.677720    1.401962    2.237000
     63          6           0      -13.753443    2.719666    3.038629
     64          6           0      -12.866660    2.793416    4.258224
     65          6           0      -13.764419    2.749258    5.597844
     66          6           0      -11.845956    3.900798    4.324113
     67          1           0        2.870502    3.272561   -1.551840
     68          1           0        9.336673    3.476070   -0.336693
     69          1           0        9.139048   -2.596763    1.502196
     70          1           0        1.299485   -1.355657   -1.047539
     71          1           0        1.089964    1.563563   -0.952768
     72          1           0        2.805762    0.876866   -3.268477
     73          1           0        1.130003    1.283653   -3.349515
     74          1           0        1.668338   -0.428726   -3.149218
     75          1           0        0.625137    0.667818    1.025844
     76          1           0        1.445872   -0.704186    1.687814
     77          1           0       -1.225404   -0.708884    1.633474
     78          1           0       -0.325128   -2.165540    1.211172
     79          1           0        4.303576    6.424926   -1.110791
     80          1           0        3.293713    5.117915   -1.737616
     81          1           0        4.518224    5.865063   -2.774471
     82          1           0        6.513238    6.979859   -2.692887
     83          1           0        7.750595    7.793605   -2.018958
     84          1           0        6.285027    7.793989   -1.049358
     85          1           0       10.633777    2.038265    1.457097
     86          1           0       10.816984   -0.803649    0.765347
     87          1           0       11.552514    2.184462   -0.970537
     88          1           0       11.560765    0.340910   -0.922625
     89          1           0       12.570677    1.221148    0.117568
     90          1           0        9.390322   -0.369347    3.274126
     91          1           0       10.691270    0.817715    3.262293
     92          1           0       11.260786   -1.649771    4.387808
     93          1           0       12.380839   -0.782786    3.447398
     94          1           0       11.487379   -2.000878    2.585470
     95          1           0        8.348554   -4.645281    1.996563
     96          1           0        6.983250   -5.565107    1.419396
     97          1           0        6.881998   -5.162204    3.000009
     98          1           0        2.065819   -3.181278    1.228203
     99          1           0        0.025258   -6.071042   -1.124417
    100          1           0        0.845213   -5.270543   -2.365669
    101          1           0       -0.308949   -4.318044   -1.301809
    102          1           0       -2.906413   -3.377887   -1.678885
    103          1           0       -3.069651   -1.614727   -1.986845
    104          1           0       -5.081541   -3.315380   -0.932910
    105          1           0       -5.182551    0.331275   -2.604217
    106          1           0       -4.275752    0.486047   -1.152923
    107          1           0       -5.938493    0.882330   -1.130912
    108          1           0       -7.466213   -0.566926   -0.442462
    109          1           0       -7.188788   -2.279240   -0.105578
    110          1           0       -8.378341   -2.743300   -1.802221
    111          1           0       -7.167303   -2.220142   -2.847358
    112          1           0       -8.461643   -0.861183   -3.801000
    113          1           0       -8.269164    0.224192   -2.350585
    114          1           0      -10.274577   -1.783743   -1.911657
    115          1           0      -11.566508   -0.253486   -4.153399
    116          1           0      -11.634798   -1.994912   -3.698031
    117          1           0      -10.323238   -1.406878   -4.693765
    118          1           0      -11.174481    1.127723   -2.204758
    119          1           0      -10.180709    0.568123   -0.877688
    120          1           0      -11.648467   -0.493157    0.253537
    121          1           0      -12.257588   -1.316321   -1.217885
    122          1           0      -13.463988    0.543942   -1.981385
    123          1           0      -12.762252    1.481877   -0.616630
    124          1           0      -14.249450   -0.651065    0.613887
    125          1           0      -15.342730   -0.590625   -1.746366
    126          1           0      -16.280106    0.685140   -1.136952
    127          1           0      -16.347319   -0.790392   -0.371829
    128          1           0      -15.703267    1.046480    1.224917
    129          1           0      -14.871697    2.290429    0.571858
    130          1           0      -12.654473    1.412314    1.862657
    131          1           0      -13.856017    0.608311    2.963654
    132          1           0      -14.818763    2.830429    3.241073
    133          1           0      -13.412908    3.442063    2.297084
    134          1           0      -12.348630    1.835227    4.253596
    135          1           0      -14.819993    2.636258    5.349890
    136          1           0      -13.569947    3.667712    6.152346
    137          1           0      -13.567755    1.922774    6.279935
    138          1           0      -10.914244    3.420410    4.024915
    139          1           0      -11.850024    4.470718    5.253070
    140          1           0      -11.950696    4.700390    3.590976
 ---------------------------------------------------------------------

 SCF Done:  E(RPBE1PBE) =  -3005.34359060     A.U. after   16 cycles

 Excitation energies and oscillator strengths:

 Excited State   1:      Singlet-A      1.8482 eV  670.83 nm  f=0.3468  <S**2>=0.000
     245 -> 248       -0.16947
     246 -> 247        0.69384
     246 <- 247       -0.10561
 This state for optimization and/or second-order correction.
 Total Energy, E(TD-HF/TD-DFT) =  -3005.27566950
 Copying the excited state density for this state as the 1-particle RhoCI density.

 Excited State   2:      Singlet-A      2.3475 eV  528.15 nm  f=0.0725  <S**2>=0.000
     245 -> 247        0.62015
     246 -> 248        0.32844

 Excited State   3:      Singlet-A      3.2018 eV  387.24 nm  f=0.0741  <S**2>=0.000
     241 -> 247        0.12138
     242 -> 247        0.15781
     243 -> 247        0.40183
     244 -> 247       -0.38873
     245 -> 247       -0.12049
     246 -> 248        0.33330

 Excited State   4:      Singlet-A      3.2239 eV  384.58 nm  f=0.0014  <S**2>=0.000
     243 -> 247        0.46705
     244 -> 247        0.50431

 Excited State   5:      Singlet-A      3.2697 eV  379.19 nm  f=0.0161  <S**2>=0.000
     242 -> 247        0.60801
     242 -> 249       -0.15289
     243 -> 247       -0.19192
     244 -> 247        0.13085

 The electronic state is 1-A.
 Alpha  occ. eigenvalues --  -46.92545 -19.25364 -19.24733 -19.21374 -19.19859
 Alpha  occ. eigenvalues --  -19.19301 -19.19250 -14.40741 -14.40113 -14.39749
 Alpha  occ. eigenvalues --  -14.38475 -10.37296 -10.35701 -10.32251 -10.32122
 Alpha  occ. eigenvalues --  -10.29113 -10.28639 -10.28321 -10.28235 -10.27890
 Alpha  occ. eigenvalues --  -10.27777 -10.27272 -10.27241 -10.26544 -10.26239
 Alpha  occ. eigenvalues --  -10.25868 -10.25859 -10.25731 -10.25501 -10.25450
 Alpha  occ. eigenvalues --  -10.25305 -10.25202 -10.25120 -10.25047 -10.24993
 Alpha  occ. eigenvalues --  -10.24809 -10.24648 -10.24197 -10.24083 -10.23948
 Alpha  occ. eigenvalues --  -10.23817 -10.23604 -10.23475 -10.23382 -10.23365
 Alpha  occ. eigenvalues --  -10.23325 -10.23197 -10.23181 -10.23130 -10.23045
 Alpha  occ. eigenvalues --  -10.22996 -10.22847 -10.22733 -10.22636 -10.22595
 Alpha  occ. eigenvalues --  -10.22563 -10.22520 -10.22420 -10.22399 -10.22028
 Alpha  occ. eigenvalues --  -10.21964 -10.21872 -10.21827 -10.21775 -10.21761
 Alpha  occ. eigenvalues --  -10.21655  -3.14668  -1.87447  -1.87061  -1.86888
 Alpha  occ. eigenvalues --   -1.11274  -1.10911  -1.07572  -1.04980  -1.03560
 Alpha  occ. eigenvalues --   -1.02994  -0.98906  -0.98209  -0.97900  -0.97070
 Alpha  occ. eigenvalues --   -0.86605  -0.85240  -0.84575  -0.83558  -0.83517
 Alpha  occ. eigenvalues --   -0.83022  -0.82334  -0.81862  -0.80945  -0.80815
 Alpha  occ. eigenvalues --   -0.80035  -0.79986  -0.79055  -0.77923  -0.77188
 Alpha  occ. eigenvalues --   -0.76725  -0.75824  -0.75327  -0.74995  -0.74623
 Alpha  occ. eigenvalues --   -0.73856  -0.72157  -0.72074  -0.71504  -0.70547
 Alpha  occ. eigenvalues --   -0.70226  -0.69600  -0.69317  -0.69161  -0.68545
 Alpha  occ. eigenvalues --   -0.68054  -0.67044  -0.65450  -0.64986  -0.63394
 Alpha  occ. eigenvalues --   -0.62764  -0.62477  -0.61310  -0.61107  -0.59829
 Alpha  occ. eigenvalues --   -0.59738  -0.59610  -0.59043  -0.58705  -0.58567
 Alpha  occ. eigenvalues --   -0.57581  -0.57133  -0.56620  -0.56241  -0.54852
 Alpha  occ. eigenvalues --   -0.54325  -0.53839  -0.53616  -0.52941  -0.52817
 Alpha  occ. eigenvalues --   -0.51915  -0.51682  -0.51349  -0.50552  -0.50226
 Alpha  occ. eigenvalues --   -0.50111  -0.49525  -0.49296  -0.48794  -0.48603
 Alpha  occ. eigenvalues --   -0.48444  -0.48273  -0.47890  -0.47662  -0.47437
 Alpha  occ. eigenvalues --   -0.47205  -0.46837  -0.46795  -0.46728  -0.46398
 Alpha  occ. eigenvalues --   -0.46055  -0.45974  -0.45898  -0.45334  -0.45038
 Alpha  occ. eigenvalues --   -0.44775  -0.44640  -0.44472  -0.44297  -0.44210
 Alpha  occ. eigenvalues --   -0.44059  -0.43770  -0.43508  -0.43324  -0.43140
 Alpha  occ. eigenvalues --   -0.43025  -0.42910  -0.42547  -0.42306  -0.42117
 Alpha  occ. eigenvalues --   -0.41889  -0.41746  -0.41482  -0.41458  -0.41291
 Alpha  occ. eigenvalues --   -0.41092  -0.41015  -0.40562  -0.40501  -0.40422
 Alpha  occ. eigenvalues --   -0.40360  -0.40230  -0.39761  -0.39651  -0.39203
 Alpha  occ. eigenvalues --   -0.39092  -0.39043  -0.38818  -0.38721  -0.38645
 Alpha  occ. eigenvalues --   -0.38612  -0.38395  -0.38056  -0.38006  -0.37919
 Alpha  occ. eigenvalues --   -0.37730  -0.37536  -0.37166  -0.36860  -0.36585
 Alpha  occ. eigenvalues --   -0.36485  -0.36363  -0.36210  -0.36092  -0.35964
 Alpha  occ. eigenvalues --   -0.35581  -0.35516  -0.35448  -0.34985  -0.34783
 Alpha  occ. eigenvalues --   -0.34543  -0.34375  -0.33930  -0.33891  -0.33689
 Alpha  occ. eigenvalues --   -0.33280  -0.32984  -0.32622  -0.32574  -0.32431
 Alpha  occ. eigenvalues --   -0.32187  -0.31722  -0.31521  -0.31310  -0.31076
 Alpha  occ. eigenvalues --   -0.31029  -0.30712  -0.30174  -0.29959  -0.29092
 Alpha  occ. eigenvalues --   -0.28980  -0.28823  -0.28327  -0.26659  -0.26280
 Alpha  occ. eigenvalues --   -0.25925  -0.25434  -0.25267  -0.24848  -0.20777
 Alpha  occ. eigenvalues --   -0.17845
 Alpha virt. eigenvalues --   -0.10220  -0.04750  -0.03394  -0.01992  -0.01318
 Alpha virt. eigenvalues --   -0.01187   0.00256   0.00786   0.02049   0.03409
 Alpha virt. eigenvalues --    0.04897   0.05026   0.05110   0.05771   0.06071

 Mulliken charges:
               1
     1  Mg   0.977157
     2  C   -0.051604
     3  C   -0.074567
     4  C   -0.062150
     5  C   -0.068532
     6  N   -0.300865
     7  C   -0.015234
     8  C   -0.100966
     9  C   -0.105508
    10  C   -0.014052
    11  C    0.039530
    12  C    0.068811
    13  C   -0.034825
    14  C    0.228794
    15  O   -0.257249
    16  O   -0.390600
    17  N   -0.486203
    18  C    0.215166
    19  C   -0.187563
    20  C   -0.099763
    21  C    0.178353
    22  C    0.072659
    23  C    0.051031
    24  O   -0.183055
    25  C   -0.064479
    26  N   -0.399302
    27  C    0.073684
    28  C   -0.138339
    29  C   -0.096847
    30  C    0.056576
    31  C    0.006349
    32  C    0.009013
    33  C   -0.072628
    34  N   -0.493058
    35  C    0.122292
    36  C   -0.195372
    37  C   -0.061000
    38  C    0.196445
    39  C    0.083324
    40  C    0.138820
    41  O   -0.191715
    42  C   -0.124929
    43  C    0.294405
    44  O   -0.241141
    45  O   -0.354258
    46  C    0.116725
    47  C    0.213889
    48  C   -0.096770
    49  C   -0.182551
    50  C    0.001816
    51  C   -0.008225
    52  C   -0.054248
    53  C    0.032515
    54  C   -0.225420
    55  C    0.002514
    56  C   -0.006247
    57  C   -0.054853
    58  C    0.013410
    59  C   -0.173771
    60  C   -0.046936
    61  C   -0.016555
    62  C   -0.071844
    63  C   -0.010207
    64  C   -0.225791
    65  C   -0.035452
    66  C    0.002835
    67  H    0.006408
    68  H    0.027164
    69  H   -0.001715
    70  H    0.052357
    71  H    0.035027
    72  H    0.050601
    73  H    0.045714
    74  H    0.059068
    75  H    0.030072
    76  H    0.047605
    77  H    0.075502
    78  H    0.070467
    79  H    0.057928
    80  H    0.036413
    81  H    0.058647
    82  H    0.054901
    83  H    0.039915
    84  H    0.066668
    85  H    0.046837
    86  H    0.042469
    87  H    0.057715
    88  H    0.042665
    89  H    0.041106
    90  H    0.047631
    91  H    0.037354
    92  H    0.049437
    93  H    0.035468
    94  H    0.044984
    95  H    0.031816
    96  H    0.047383
    97  H    0.058438
    98  H    0.078360
    99  H    0.049294
   100  H    0.061257
   101  H    0.051295
   102  H    0.041770
   103  H    0.048037
   104  H    0.019653
   105  H    0.067214
   106  H    0.048126
   107  H    0.034418
   108  H    0.026707
   109  H    0.034796
   110  H    0.029182
   111  H    0.022746
   112  H    0.018860
   113  H    0.032033
   114  H    0.039664
   115  H    0.043689
   116  H    0.039905
   117  H    0.034614
   118  H    0.037258
   119  H    0.018404
   120  H    0.037109
   121  H    0.027286
   122  H    0.030390
   123  H    0.021652
   124  H    0.030229
   125  H    0.018682
   126  H    0.025439
   127  H    0.031006
   128  H    0.015098
   129  H    0.014114
   130  H    0.030900
   131  H    0.035710
   132  H    0.031880
   133  H    0.019527
   134  H    0.035900
   135  H    0.031351
   136  H    0.032062
   137  H    0.036197
   138  H    0.038037
   139  H    0.037647
   140  H    0.025024
 Sum of Mulliken charges =  -0.00000

 Dipole moment (field-independent basis, Debye):
    X=             -4.0501    Y=              3.3573    Z=              1.1299  Tot=              5.3807
 Quadrupole moment (field-independent basis, Debye-Ang):
   XX=           -384.7264   YY=           -416.4126   ZZ=           -399.5230
   XY=              6.2130   XZ=             25.7112   YZ=              3.1202

 Normal termination of Gaussian 16 at Wed Apr 27 15:03:48 2022.
