 Gaussian 16, Revision A.03,
 Gaussian 16:  ES64L-G16RevA.03 25-Dec-2016

 --------------------------------
 #p wB97XD/Def2SVP td=(nstates=5)
 --------------------------------

 ----------------------------------------------------
 step_1201_chromophore_7 TDDFT with wB97XD functional
 ----------------------------------------------------
 Symbolic Z-matrix:
 Charge =  0 Multiplicity = 1

                         Standard orientation:
 ---------------------------------------------------------------------
 Center     Atomic      Atomic             Coordinates (Angstroms)
 Number     Number       Type             X           Y           Z
 ---------------------------------------------------------------------
      1         12           0        6.111836    0.592652    0.465896
      2          6           0        3.609593   -1.977902    0.328507
      3          6           0        3.654679    2.594902   -1.208061
      4          6           0        8.494175    2.794604   -0.202900
      5          6           0        8.425614   -1.836699    1.177987
      6          7           0        3.871108    0.323603   -0.358508
      7          6           0        3.069754   -0.792709   -0.128562
      8          6           0        1.647571   -0.512181   -0.451361
      9          6           0        1.771308    0.794544   -1.318794
     10          6           0        3.181243    1.286881   -0.913734
     11          6           0        1.831246    0.609630   -2.859070
     12          6           0        0.788929   -0.399234    0.873879
     13          6           0       -0.554615   -1.148055    0.895842
     14          6           0       -1.442545   -1.184989   -0.316730
     15          8           0       -1.346851   -0.433453   -1.272410
     16          8           0       -2.377452   -2.222259   -0.177673
     17          7           0        6.061410    2.488758   -0.379767
     18          6           0        4.919431    3.111063   -0.956896
     19          6           0        5.303470    4.504447   -1.279031
     20          6           0        6.667616    4.640390   -0.936171
     21          6           0        7.139563    3.215966   -0.541976
     22          6           0        4.294794    5.547654   -1.755723
     23          6           0        7.530284    5.885079   -1.048044
     24          8           0        8.693438    5.854277   -0.888727
     25          6           0        6.909283    7.179933   -1.697550
     26          7           0        8.227168    0.453636    0.249800
     27          6           0        8.980042    1.544487    0.121064
     28          6           0       10.431571    1.280059    0.701313
     29          6           0       10.207682   -0.124103    1.360732
     30          6           0        8.863728   -0.530857    0.965639
     31          6           0       11.596034    1.277972   -0.366950
     32          6           0       10.389089   -0.159971    2.889781
     33          6           0       11.403424   -1.260068    3.380561
     34          7           0        6.077227   -1.404766    0.777591
     35          6           0        7.077315   -2.277873    1.110726
     36          6           0        6.571556   -3.548525    1.465309
     37          6           0        5.220987   -3.483601    1.128235
     38          6           0        4.974536   -2.175834    0.645685
     39          6           0        7.264663   -4.738019    2.071225
     40          6           0        3.979610   -4.289521    1.096993
     41          8           0        3.772449   -5.429719    1.449860
     42          6           0        2.876518   -3.320637    0.512056
     43          6           0        2.379307   -3.948132   -0.687405
     44          8           0        2.675454   -3.602423   -1.815007
     45          8           0        1.448669   -4.908097   -0.363383
     46          6           0        0.452105   -5.096202   -1.363531
     47          6           0       -3.281727   -2.429387   -1.294126
     48          6           0       -4.711397   -2.289969   -0.922665
     49          6           0       -5.546725   -1.262023   -1.042819
     50          6           0       -5.240532    0.147295   -1.531837
     51          6           0       -7.061428   -1.493097   -0.849755
     52          6           0       -7.851617   -1.833950   -2.092225
     53          6           0       -8.656530   -0.718950   -2.737840
     54          6           0      -10.213347   -0.899917   -2.545634
     55          6           0      -10.988541   -1.134446   -3.874279
     56          6           0      -10.851281    0.234454   -1.669779
     57          6           0      -11.959815   -0.361469   -0.783058
     58          6           0      -13.117411    0.506707   -0.948190
     59          6           0      -14.307622    0.218153   -0.041625
     60          6           0      -15.613301   -0.111268   -0.806123
     61          6           0      -14.667868    1.316842    1.017834
     62          6           0      -13.677720    1.401962    2.237000
     63          6           0      -13.753443    2.719666    3.038629
     64          6           0      -12.866660    2.793416    4.258224
     65          6           0      -13.764419    2.749258    5.597844
     66          6           0      -11.845956    3.900798    4.324113
     67          1           0        2.870502    3.272561   -1.551840
     68          1           0        9.336673    3.476070   -0.336693
     69          1           0        9.139048   -2.596763    1.502196
     70          1           0        1.299485   -1.355657   -1.047539
     71          1           0        1.089964    1.563563   -0.952768
     72          1           0        2.805762    0.876866   -3.268477
     73          1           0        1.130003    1.283653   -3.349515
     74          1           0        1.668338   -0.428726   -3.149218
     75          1           0        0.625137    0.667818    1.025844
     76          1           0        1.445872   -0.704186    1.687814
     77          1           0       -1.225404   -0.708884    1.633474
     78          1           0       -0.325128   -2.165540    1.211172
     79          1           0        4.303576    6.424926   -1.110791
     80          1           0        3.293713    5.117915   -1.737616
     81          1           0        4.518224    5.865063   -2.774471
     82          1           0        6.513238    6.979859   -2.692887
     83          1           0        7.750595    7.793605   -2.018958
     84          1           0        6.285027    7.793989   -1.049358
     85          1           0       10.633777    2.038265    1.457097
     86          1           0       10.816984   -0.803649    0.765347
     87          1           0       11.552514    2.184462   -0.970537
     88          1           0       11.560765    0.340910   -0.922625
     89          1           0       12.570677    1.221148    0.117568
     90          1           0        9.390322   -0.369347    3.274126
     91          1           0       10.691270    0.817715    3.262293
     92          1           0       11.260786   -1.649771    4.387808
     93          1           0       12.380839   -0.782786    3.447398
     94          1           0       11.487379   -2.000878    2.585470
     95          1           0        8.348554   -4.645281    1.996563
     96          1           0        6.983250   -5.565107    1.419396
     97          1           0        6.881998   -5.162204    3.000009
     98          1           0        2.065819   -3.181278    1.228203
     99          1           0        0.025258   -6.071042   -1.124417
    100          1           0        0.845213   -5.270543   -2.365669
    101          1           0       -0.308949   -4.318044   -1.301809
    102          1           0       -2.906413   -3.377887   -1.678885
    103          1           0       -3.069651   -1.614727   -1.986845
    104          1           0       -5.081541   -3.315380   -0.932910
    105          1           0       -5.182551    0.331275   -2.604217
    106          1           0       -4.275752    0.486047   -1.152923
    107          1           0       -5.938493    0.882330   -1.130912
    108          1           0       -7.466213   -0.566926   -0.442462
    109          1           0       -7.188788   -2.279240   -0.105578
    110          1           0       -8.378341   -2.743300   -1.802221
    111          1           0       -7.167303   -2.220142   -2.847358
    112          1           0       -8.461643   -0.861183   -3.801000
    113          1           0       -8.269164    0.224192   -2.350585
    114          1           0      -10.274577   -1.783743   -1.911657
    115          1           0      -11.566508   -0.253486   -4.153399
    116          1           0      -11.634798   -1.994912   -3.698031
    117          1           0      -10.323238   -1.406878   -4.693765
    118          1           0      -11.174481    1.127723   -2.204758
    119          1           0      -10.180709    0.568123   -0.877688
    120          1           0      -11.648467   -0.493157    0.253537
    121          1           0      -12.257588   -1.316321   -1.217885
    122          1           0      -13.463988    0.543942   -1.981385
    123          1           0      -12.762252    1.481877   -0.616630
    124          1           0      -14.249450   -0.651065    0.613887
    125          1           0      -15.342730   -0.590625   -1.746366
    126          1           0      -16.280106    0.685140   -1.136952
    127          1           0      -16.347319   -0.790392   -0.371829
    128          1           0      -15.703267    1.046480    1.224917
    129          1           0      -14.871697    2.290429    0.571858
    130          1           0      -12.654473    1.412314    1.862657
    131          1           0      -13.856017    0.608311    2.963654
    132          1           0      -14.818763    2.830429    3.241073
    133          1           0      -13.412908    3.442063    2.297084
    134          1           0      -12.348630    1.835227    4.253596
    135          1           0      -14.819993    2.636258    5.349890
    136          1           0      -13.569947    3.667712    6.152346
    137          1           0      -13.567755    1.922774    6.279935
    138          1           0      -10.914244    3.420410    4.024915
    139          1           0      -11.850024    4.470718    5.253070
    140          1           0      -11.950696    4.700390    3.590976
 ---------------------------------------------------------------------

 SCF Done:  E(RwB97XD) =  -3007.85353532     A.U. after   17 cycles

 Excitation energies and oscillator strengths:

 Excited State   1:      Singlet-A      1.7225 eV  719.77 nm  f=0.3604  <S**2>=0.000
     245 -> 248       -0.16983
     246 -> 247        0.68559
     245 <- 248       -0.10844
 This state for optimization and/or second-order correction.
 Total Energy, E(TD-HF/TD-DFT) =  -3007.79023292
 Copying the excited state density for this state as the 1-particle RhoCI density.

 Excited State   2:      Singlet-A      2.3175 eV  535.00 nm  f=0.0623  <S**2>=0.000
     245 -> 247        0.60078
     246 -> 248        0.35533

 Excited State   3:      Singlet-A      3.4531 eV  359.05 nm  f=0.6337  <S**2>=0.000
     242 -> 247       -0.19990
     245 -> 247       -0.31083
     246 -> 248        0.56572

 Excited State   4:      Singlet-A      3.6561 eV  339.12 nm  f=0.0554  <S**2>=0.000
     241 -> 247       -0.14002
     242 -> 247        0.41821
     243 -> 247        0.22195
     244 -> 247       -0.24873
     246 -> 249       -0.21323
     246 -> 250       -0.28881

 Excited State   5:      Singlet-A      3.7045 eV  334.69 nm  f=0.0049  <S**2>=0.000
     242 -> 247        0.13688
     244 -> 247       -0.41771
     246 -> 249        0.23908
     246 -> 250        0.44613
     246 -> 251        0.14307

 The electronic state is 1-A.
 Alpha  occ. eigenvalues --  -46.95469 -19.29900 -19.29229 -19.26023 -19.24526
 Alpha  occ. eigenvalues --  -19.24480 -19.23706 -14.46063 -14.44919 -14.44891
 Alpha  occ. eigenvalues --  -14.43123 -10.44085 -10.42460 -10.39338 -10.38780
 Alpha  occ. eigenvalues --  -10.36041 -10.35297 -10.35138 -10.34677 -10.34569
 Alpha  occ. eigenvalues --  -10.34352 -10.33653 -10.33237 -10.33105 -10.32218
 Alpha  occ. eigenvalues --  -10.32113 -10.31929 -10.31897 -10.31742 -10.31699
 Alpha  occ. eigenvalues --  -10.31648 -10.31641 -10.31601 -10.31596 -10.31589
 Alpha  occ. eigenvalues --  -10.31346 -10.31333 -10.30094 -10.30092 -10.30075
 Alpha  occ. eigenvalues --  -10.30060 -10.29946 -10.29914 -10.29753 -10.29652
 Alpha  occ. eigenvalues --  -10.29585 -10.29568 -10.29565 -10.29430 -10.29411
 Alpha  occ. eigenvalues --  -10.29230 -10.29131 -10.29073 -10.29001 -10.28954
 Alpha  occ. eigenvalues --  -10.28950 -10.28848 -10.28799 -10.28751 -10.28375
 Alpha  occ. eigenvalues --  -10.28304 -10.28218 -10.28167 -10.28157 -10.28084
 Alpha  occ. eigenvalues --  -10.27824  -3.21472  -1.94998  -1.94610  -1.94433
 Alpha  occ. eigenvalues --   -1.18588  -1.18284  -1.15399  -1.12122  -1.10892
 Alpha  occ. eigenvalues --   -1.10277  -1.06278  -1.05556  -1.05220  -1.04443
 Alpha  occ. eigenvalues --   -0.94037  -0.92910  -0.92242  -0.91204  -0.91065
 Alpha  occ. eigenvalues --   -0.90685  -0.90152  -0.89526  -0.88659  -0.88303
 Alpha  occ. eigenvalues --   -0.87676  -0.87438  -0.86731  -0.85470  -0.84821
 Alpha  occ. eigenvalues --   -0.84319  -0.83455  -0.83010  -0.82510  -0.82312
 Alpha  occ. eigenvalues --   -0.81832  -0.80199  -0.79671  -0.78974  -0.78165
 Alpha  occ. eigenvalues --   -0.77722  -0.77300  -0.76912  -0.76815  -0.76224
 Alpha  occ. eigenvalues --   -0.75681  -0.74450  -0.72991  -0.72593  -0.70820
 Alpha  occ. eigenvalues --   -0.70299  -0.70067  -0.69020  -0.68755  -0.67413
 Alpha  occ. eigenvalues --   -0.67231  -0.67090  -0.66382  -0.66254  -0.66192
 Alpha  occ. eigenvalues --   -0.65262  -0.64570  -0.64237  -0.63546  -0.62384
 Alpha  occ. eigenvalues --   -0.61995  -0.61160  -0.61055  -0.60344  -0.60124
 Alpha  occ. eigenvalues --   -0.59282  -0.59126  -0.58829  -0.57876  -0.57756
 Alpha  occ. eigenvalues --   -0.57621  -0.56902  -0.56721  -0.56269  -0.55939
 Alpha  occ. eigenvalues --   -0.55742  -0.55607  -0.55254  -0.54973  -0.54960
 Alpha  occ. eigenvalues --   -0.54748  -0.54468  -0.54226  -0.54108  -0.53769
 Alpha  occ. eigenvalues --   -0.53437  -0.53286  -0.53199  -0.52566  -0.52398
 Alpha  occ. eigenvalues --   -0.52237  -0.51923  -0.51838  -0.51763  -0.51451
 Alpha  occ. eigenvalues --   -0.51366  -0.51024  -0.50829  -0.50681  -0.50458
 Alpha  occ. eigenvalues --   -0.50202  -0.50146  -0.49887  -0.49625  -0.49556
 Alpha  occ. eigenvalues --   -0.49436  -0.48979  -0.48774  -0.48510  -0.48389
 Alpha  occ. eigenvalues --   -0.48321  -0.48203  -0.47794  -0.47695  -0.47644
 Alpha  occ. eigenvalues --   -0.47503  -0.47347  -0.46890  -0.46830  -0.46667
 Alpha  occ. eigenvalues --   -0.46275  -0.46183  -0.45922  -0.45859  -0.45752
 Alpha  occ. eigenvalues --   -0.45622  -0.45453  -0.45241  -0.45079  -0.44977
 Alpha  occ. eigenvalues --   -0.44738  -0.44677  -0.44382  -0.44005  -0.43750
 Alpha  occ. eigenvalues --   -0.43487  -0.43393  -0.43303  -0.43109  -0.43050
 Alpha  occ. eigenvalues --   -0.42677  -0.42578  -0.42367  -0.42078  -0.41868
 Alpha  occ. eigenvalues --   -0.41646  -0.41322  -0.40970  -0.40821  -0.40720
 Alpha  occ. eigenvalues --   -0.40080  -0.40042  -0.39658  -0.39492  -0.39436
 Alpha  occ. eigenvalues --   -0.39247  -0.38731  -0.38575  -0.38302  -0.38099
 Alpha  occ. eigenvalues --   -0.38078  -0.37671  -0.37095  -0.36933  -0.36055
 Alpha  occ. eigenvalues --   -0.35909  -0.35673  -0.34997  -0.33664  -0.33025
 Alpha  occ. eigenvalues --   -0.32888  -0.32388  -0.32097  -0.30970  -0.25889
 Alpha  occ. eigenvalues --   -0.22032
 Alpha virt. eigenvalues --   -0.05923   0.00759   0.02907   0.04096   0.05067
 Alpha virt. eigenvalues --    0.05480   0.07151   0.07711   0.08817   0.10169
 Alpha virt. eigenvalues --    0.11460   0.11675   0.11796   0.12326   0.12722

 Mulliken charges:
               1
     1  Mg   0.971197
     2  C   -0.044076
     3  C   -0.092556
     4  C   -0.085515
     5  C   -0.092173
     6  N   -0.261619
     7  C   -0.050223
     8  C   -0.069469
     9  C   -0.079927
    10  C   -0.027215
    11  C    0.046235
    12  C    0.076338
    13  C   -0.015521
    14  C    0.216934
    15  O   -0.254150
    16  O   -0.389830
    17  N   -0.458590
    18  C    0.216120
    19  C   -0.175824
    20  C   -0.094352
    21  C    0.177085
    22  C    0.086590
    23  C    0.047554
    24  O   -0.175619
    25  C   -0.052178
    26  N   -0.371483
    27  C    0.063841
    28  C   -0.115034
    29  C   -0.068607
    30  C    0.050999
    31  C    0.017875
    32  C    0.021763
    33  C   -0.053674
    34  N   -0.456320
    35  C    0.116738
    36  C   -0.199401
    37  C   -0.055229
    38  C    0.170144
    39  C    0.094103
    40  C    0.118974
    41  O   -0.184347
    42  C   -0.085498
    43  C    0.271152
    44  O   -0.235421
    45  O   -0.353224
    46  C    0.134067
    47  C    0.230347
    48  C   -0.108901
    49  C   -0.167091
    50  C    0.011726
    51  C    0.014552
    52  C   -0.041979
    53  C    0.049546
    54  C   -0.190290
    55  C    0.013250
    56  C    0.005311
    57  C   -0.037557
    58  C    0.034964
    59  C   -0.147633
    60  C   -0.034621
    61  C   -0.002722
    62  C   -0.048911
    63  C    0.004678
    64  C   -0.197628
    65  C   -0.020538
    66  C    0.013879
    67  H    0.001928
    68  H    0.020898
    69  H   -0.012232
    70  H    0.029994
    71  H    0.026345
    72  H    0.042800
    73  H    0.041228
    74  H    0.056931
    75  H    0.021186
    76  H    0.039586
    77  H    0.070288
    78  H    0.063478
    79  H    0.053777
    80  H    0.033681
    81  H    0.055558
    82  H    0.049383
    83  H    0.039281
    84  H    0.064341
    85  H    0.037409
    86  H    0.028568
    87  H    0.051951
    88  H    0.036877
    89  H    0.035576
    90  H    0.037566
    91  H    0.028523
    92  H    0.044662
    93  H    0.027688
    94  H    0.037514
    95  H    0.024784
    96  H    0.039320
    97  H    0.052245
    98  H    0.068500
    99  H    0.045541
   100  H    0.057122
   101  H    0.044664
   102  H    0.039191
   103  H    0.040075
   104  H    0.016544
   105  H    0.062890
   106  H    0.042024
   107  H    0.029543
   108  H    0.014240
   109  H    0.028756
   110  H    0.022327
   111  H    0.013593
   112  H    0.010202
   113  H    0.020549
   114  H    0.022496
   115  H    0.037692
   116  H    0.034270
   117  H    0.028809
   118  H    0.028735
   119  H    0.008857
   120  H    0.030308
   121  H    0.014529
   122  H    0.020719
   123  H    0.008233
   124  H    0.017891
   125  H    0.011337
   126  H    0.018901
   127  H    0.025790
   128  H    0.006101
   129  H    0.005053
   130  H    0.017601
   131  H    0.026501
   132  H    0.021979
   133  H    0.008701
   134  H    0.023768
   135  H    0.024572
   136  H    0.024777
   137  H    0.030857
   138  H    0.032601
   139  H    0.032071
   140  H    0.018936
 Sum of Mulliken charges =  -0.00000

 Dipole moment (field-independent basis, Debye):
    X=             -4.3364    Y=              4.5642    Z=              0.7306  Tot=              6.3380
 Quadrupole moment (field-independent basis, Debye-Ang):
   XX=           -388.4278   YY=           -413.4390   ZZ=           -399.0764
   XY=             13.5198   XZ=             23.0037   YZ=              2.8343

 Normal termination of Gaussian 16 at Wed Apr 27 15:28:55 2022.
