 Gaussian 16, Revision A.03,
 Gaussian 16:  ES64L-G16RevA.03 25-Dec-2016

 --------------------
 #p ZINDO=(nstates=5)
 --------------------

 -----------------------------
 step_1201_chromophore_7 ZINDO
 -----------------------------
 Symbolic Z-matrix:
 Charge =  0 Multiplicity = 1

                         Standard orientation:
 ---------------------------------------------------------------------
 Center     Atomic      Atomic             Coordinates (Angstroms)
 Number     Number       Type             X           Y           Z
 ---------------------------------------------------------------------
      1         12           0        6.111836    0.592652    0.465896
      2          6           0        3.609593   -1.977902    0.328507
      3          6           0        3.654679    2.594902   -1.208061
      4          6           0        8.494175    2.794604   -0.202900
      5          6           0        8.425614   -1.836699    1.177987
      6          7           0        3.871108    0.323603   -0.358508
      7          6           0        3.069754   -0.792709   -0.128562
      8          6           0        1.647571   -0.512181   -0.451361
      9          6           0        1.771308    0.794544   -1.318794
     10          6           0        3.181243    1.286881   -0.913734
     11          6           0        1.831246    0.609630   -2.859070
     12          6           0        0.788929   -0.399234    0.873879
     13          6           0       -0.554615   -1.148055    0.895842
     14          6           0       -1.442545   -1.184989   -0.316730
     15          8           0       -1.346851   -0.433453   -1.272410
     16          8           0       -2.377452   -2.222259   -0.177673
     17          7           0        6.061410    2.488758   -0.379767
     18          6           0        4.919431    3.111063   -0.956896
     19          6           0        5.303470    4.504447   -1.279031
     20          6           0        6.667616    4.640390   -0.936171
     21          6           0        7.139563    3.215966   -0.541976
     22          6           0        4.294794    5.547654   -1.755723
     23          6           0        7.530284    5.885079   -1.048044
     24          8           0        8.693438    5.854277   -0.888727
     25          6           0        6.909283    7.179933   -1.697550
     26          7           0        8.227168    0.453636    0.249800
     27          6           0        8.980042    1.544487    0.121064
     28          6           0       10.431571    1.280059    0.701313
     29          6           0       10.207682   -0.124103    1.360732
     30          6           0        8.863728   -0.530857    0.965639
     31          6           0       11.596034    1.277972   -0.366950
     32          6           0       10.389089   -0.159971    2.889781
     33          6           0       11.403424   -1.260068    3.380561
     34          7           0        6.077227   -1.404766    0.777591
     35          6           0        7.077315   -2.277873    1.110726
     36          6           0        6.571556   -3.548525    1.465309
     37          6           0        5.220987   -3.483601    1.128235
     38          6           0        4.974536   -2.175834    0.645685
     39          6           0        7.264663   -4.738019    2.071225
     40          6           0        3.979610   -4.289521    1.096993
     41          8           0        3.772449   -5.429719    1.449860
     42          6           0        2.876518   -3.320637    0.512056
     43          6           0        2.379307   -3.948132   -0.687405
     44          8           0        2.675454   -3.602423   -1.815007
     45          8           0        1.448669   -4.908097   -0.363383
     46          6           0        0.452105   -5.096202   -1.363531
     47          6           0       -3.281727   -2.429387   -1.294126
     48          6           0       -4.711397   -2.289969   -0.922665
     49          6           0       -5.546725   -1.262023   -1.042819
     50          6           0       -5.240532    0.147295   -1.531837
     51          6           0       -7.061428   -1.493097   -0.849755
     52          6           0       -7.851617   -1.833950   -2.092225
     53          6           0       -8.656530   -0.718950   -2.737840
     54          6           0      -10.213347   -0.899917   -2.545634
     55          6           0      -10.988541   -1.134446   -3.874279
     56          6           0      -10.851281    0.234454   -1.669779
     57          6           0      -11.959815   -0.361469   -0.783058
     58          6           0      -13.117411    0.506707   -0.948190
     59          6           0      -14.307622    0.218153   -0.041625
     60          6           0      -15.613301   -0.111268   -0.806123
     61          6           0      -14.667868    1.316842    1.017834
     62          6           0      -13.677720    1.401962    2.237000
     63          6           0      -13.753443    2.719666    3.038629
     64          6           0      -12.866660    2.793416    4.258224
     65          6           0      -13.764419    2.749258    5.597844
     66          6           0      -11.845956    3.900798    4.324113
     67          1           0        2.870502    3.272561   -1.551840
     68          1           0        9.336673    3.476070   -0.336693
     69          1           0        9.139048   -2.596763    1.502196
     70          1           0        1.299485   -1.355657   -1.047539
     71          1           0        1.089964    1.563563   -0.952768
     72          1           0        2.805762    0.876866   -3.268477
     73          1           0        1.130003    1.283653   -3.349515
     74          1           0        1.668338   -0.428726   -3.149218
     75          1           0        0.625137    0.667818    1.025844
     76          1           0        1.445872   -0.704186    1.687814
     77          1           0       -1.225404   -0.708884    1.633474
     78          1           0       -0.325128   -2.165540    1.211172
     79          1           0        4.303576    6.424926   -1.110791
     80          1           0        3.293713    5.117915   -1.737616
     81          1           0        4.518224    5.865063   -2.774471
     82          1           0        6.513238    6.979859   -2.692887
     83          1           0        7.750595    7.793605   -2.018958
     84          1           0        6.285027    7.793989   -1.049358
     85          1           0       10.633777    2.038265    1.457097
     86          1           0       10.816984   -0.803649    0.765347
     87          1           0       11.552514    2.184462   -0.970537
     88          1           0       11.560765    0.340910   -0.922625
     89          1           0       12.570677    1.221148    0.117568
     90          1           0        9.390322   -0.369347    3.274126
     91          1           0       10.691270    0.817715    3.262293
     92          1           0       11.260786   -1.649771    4.387808
     93          1           0       12.380839   -0.782786    3.447398
     94          1           0       11.487379   -2.000878    2.585470
     95          1           0        8.348554   -4.645281    1.996563
     96          1           0        6.983250   -5.565107    1.419396
     97          1           0        6.881998   -5.162204    3.000009
     98          1           0        2.065819   -3.181278    1.228203
     99          1           0        0.025258   -6.071042   -1.124417
    100          1           0        0.845213   -5.270543   -2.365669
    101          1           0       -0.308949   -4.318044   -1.301809
    102          1           0       -2.906413   -3.377887   -1.678885
    103          1           0       -3.069651   -1.614727   -1.986845
    104          1           0       -5.081541   -3.315380   -0.932910
    105          1           0       -5.182551    0.331275   -2.604217
    106          1           0       -4.275752    0.486047   -1.152923
    107          1           0       -5.938493    0.882330   -1.130912
    108          1           0       -7.466213   -0.566926   -0.442462
    109          1           0       -7.188788   -2.279240   -0.105578
    110          1           0       -8.378341   -2.743300   -1.802221
    111          1           0       -7.167303   -2.220142   -2.847358
    112          1           0       -8.461643   -0.861183   -3.801000
    113          1           0       -8.269164    0.224192   -2.350585
    114          1           0      -10.274577   -1.783743   -1.911657
    115          1           0      -11.566508   -0.253486   -4.153399
    116          1           0      -11.634798   -1.994912   -3.698031
    117          1           0      -10.323238   -1.406878   -4.693765
    118          1           0      -11.174481    1.127723   -2.204758
    119          1           0      -10.180709    0.568123   -0.877688
    120          1           0      -11.648467   -0.493157    0.253537
    121          1           0      -12.257588   -1.316321   -1.217885
    122          1           0      -13.463988    0.543942   -1.981385
    123          1           0      -12.762252    1.481877   -0.616630
    124          1           0      -14.249450   -0.651065    0.613887
    125          1           0      -15.342730   -0.590625   -1.746366
    126          1           0      -16.280106    0.685140   -1.136952
    127          1           0      -16.347319   -0.790392   -0.371829
    128          1           0      -15.703267    1.046480    1.224917
    129          1           0      -14.871697    2.290429    0.571858
    130          1           0      -12.654473    1.412314    1.862657
    131          1           0      -13.856017    0.608311    2.963654
    132          1           0      -14.818763    2.830429    3.241073
    133          1           0      -13.412908    3.442063    2.297084
    134          1           0      -12.348630    1.835227    4.253596
    135          1           0      -14.819993    2.636258    5.349890
    136          1           0      -13.569947    3.667712    6.152346
    137          1           0      -13.567755    1.922774    6.279935
    138          1           0      -10.914244    3.420410    4.024915
    139          1           0      -11.850024    4.470718    5.253070
    140          1           0      -11.950696    4.700390    3.590976
 ---------------------------------------------------------------------

 SCF Done:  E(RZINDO/S) =  -474.550885072     A.U. after   19 cycles

 Excitation energies and oscillator strengths:

 Excited State   1:      Singlet-A      1.3218 eV  937.97 nm  f=0.5111  <S**2>=0.000
     175 ->178         0.15064
     176 ->177         0.67406
 This state for optimization and/or second-order correction.
 Total Energy, E(CIS/TDA) =  -474.502308393
 Copying the excited state density for this state as the 1-particle RhoCI density.

 Excited State   2:      Singlet-A      1.9606 eV  632.38 nm  f=0.0049  <S**2>=0.000
     175 ->177        -0.48337
     176 ->178         0.48366

 Excited State   3:      Singlet-A      2.7278 eV  454.52 nm  f=0.0537  <S**2>=0.000
     175 ->177        -0.12423
     176 ->178        -0.14566
     176 ->179         0.30259
     176 ->180         0.57995
     176 ->181        -0.10402
     176 ->182         0.12656

 Excited State   4:      Singlet-A      2.9039 eV  426.95 nm  f=0.3924  <S**2>=0.000
     175 ->177         0.29281
     176 ->178         0.31499
     176 ->179        -0.27222
     176 ->180         0.36182
     176 ->181         0.11951
     176 ->182        -0.19609
     176 ->183        -0.10854

 Excited State   5:      Singlet-A      2.9452 eV  420.97 nm  f=0.3297  <S**2>=0.000
     168 ->177        -0.14787
     168 ->179         0.22282
     171 ->177         0.14822
     175 ->177         0.23686
     176 ->178         0.24379
     176 ->179         0.38784
     176 ->180        -0.12688

 The electronic state is 1-A.
 Alpha  occ. eigenvalues --   -1.84644  -1.81755  -1.80168  -1.74130  -1.73414
 Alpha  occ. eigenvalues --   -1.71248  -1.66716  -1.61809  -1.60999  -1.57735
 Alpha  occ. eigenvalues --   -1.56795  -1.52239  -1.50046  -1.49205  -1.46775
 Alpha  occ. eigenvalues --   -1.42957  -1.41847  -1.40053  -1.39913  -1.37597
 Alpha  occ. eigenvalues --   -1.35044  -1.33077  -1.32182  -1.32030  -1.29350
 Alpha  occ. eigenvalues --   -1.28541  -1.23993  -1.22677  -1.20871  -1.17725
 Alpha  occ. eigenvalues --   -1.17144  -1.15815  -1.15658  -1.14127  -1.13225
 Alpha  occ. eigenvalues --   -1.12194  -1.11845  -1.11083  -1.05660  -1.03240
 Alpha  occ. eigenvalues --   -1.02989  -1.01504  -0.98317  -0.97985  -0.96679
 Alpha  occ. eigenvalues --   -0.95788  -0.94732  -0.94033  -0.93185  -0.92786
 Alpha  occ. eigenvalues --   -0.90864  -0.90514  -0.90093  -0.87723  -0.85558
 Alpha  occ. eigenvalues --   -0.85249  -0.83030  -0.82199  -0.81446  -0.80276
 Alpha  occ. eigenvalues --   -0.80224  -0.79659  -0.78377  -0.76682  -0.76299
 Alpha  occ. eigenvalues --   -0.75908  -0.75175  -0.74480  -0.74144  -0.73106
 Alpha  occ. eigenvalues --   -0.72868  -0.72539  -0.71922  -0.71842  -0.70953
 Alpha  occ. eigenvalues --   -0.70187  -0.69965  -0.68990  -0.68604  -0.68077
 Alpha  occ. eigenvalues --   -0.67811  -0.67540  -0.66825  -0.66642  -0.65769
 Alpha  occ. eigenvalues --   -0.65199  -0.65038  -0.64611  -0.63979  -0.63649
 Alpha  occ. eigenvalues --   -0.63204  -0.63118  -0.62433  -0.61930  -0.60986
 Alpha  occ. eigenvalues --   -0.60887  -0.60518  -0.60455  -0.59715  -0.59213
 Alpha  occ. eigenvalues --   -0.59066  -0.58797  -0.58440  -0.58286  -0.58118
 Alpha  occ. eigenvalues --   -0.57717  -0.57628  -0.57117  -0.56813  -0.56225
 Alpha  occ. eigenvalues --   -0.56057  -0.55495  -0.55191  -0.54780  -0.54587
 Alpha  occ. eigenvalues --   -0.53731  -0.53711  -0.53287  -0.53214  -0.52475
 Alpha  occ. eigenvalues --   -0.52204  -0.52077  -0.51827  -0.51655  -0.51473
 Alpha  occ. eigenvalues --   -0.51344  -0.50655  -0.50394  -0.50014  -0.49888
 Alpha  occ. eigenvalues --   -0.49806  -0.49646  -0.49143  -0.49018  -0.48702
 Alpha  occ. eigenvalues --   -0.48555  -0.48514  -0.48175  -0.48087  -0.47532
 Alpha  occ. eigenvalues --   -0.47130  -0.46660  -0.46362  -0.46164  -0.46093
 Alpha  occ. eigenvalues --   -0.45877  -0.45538  -0.45495  -0.45302  -0.45041
 Alpha  occ. eigenvalues --   -0.44902  -0.44902  -0.44479  -0.44062  -0.43897
 Alpha  occ. eigenvalues --   -0.43864  -0.43238  -0.42828  -0.42071  -0.41389
 Alpha  occ. eigenvalues --   -0.41015  -0.40942  -0.40783  -0.39472  -0.38245
 Alpha  occ. eigenvalues --   -0.37750  -0.36913  -0.36371  -0.34504  -0.33856
 Alpha  occ. eigenvalues --   -0.33355  -0.33289  -0.31920  -0.30857  -0.26459
 Alpha  occ. eigenvalues --   -0.20865
 Alpha virt. eigenvalues --   -0.07328  -0.01474  -0.00245   0.00890   0.01483
 Alpha virt. eigenvalues --    0.01614   0.03584   0.03682   0.03821   0.05176
 Alpha virt. eigenvalues --    0.06485   0.07113   0.07978   0.08216   0.08351

 Mulliken charges:
               1
     1  Mg   0.438456
     2  C   -0.028350
     3  C   -0.074497
     4  C   -0.107795
     5  C   -0.089949
     6  N   -0.282578
     7  C    0.079979
     8  C    0.007859
     9  C    0.011444
    10  C    0.180927
    11  C   -0.039248
    12  C   -0.022642
    13  C    0.010614
    14  C    0.474430
    15  O   -0.518904
    16  O   -0.282557
    17  N   -0.315788
    18  C    0.118882
    19  C    0.027272
    20  C   -0.048091
    21  C    0.188232
    22  C   -0.039971
    23  C    0.329389
    24  O   -0.478022
    25  C   -0.044526
    26  N   -0.291247
    27  C    0.171656
    28  C   -0.005491
    29  C    0.002775
    30  C    0.108942
    31  C   -0.051760
    32  C   -0.026330
    33  C   -0.063244
    34  N   -0.313103
    35  C    0.077345
    36  C   -0.003545
    37  C   -0.070873
    38  C    0.081848
    39  C   -0.048708
    40  C    0.329858
    41  O   -0.519745
    42  C    0.055037
    43  C    0.500743
    44  O   -0.529232
    45  O   -0.266605
    46  C    0.077757
    47  C    0.097772
    48  C   -0.084826
    49  C    0.021186
    50  C   -0.041871
    51  C   -0.021982
    52  C   -0.027751
    53  C   -0.035977
    54  C   -0.017770
    55  C   -0.054080
    56  C   -0.042580
    57  C   -0.029966
    58  C   -0.017225
    59  C   -0.015968
    60  C   -0.065812
    61  C   -0.045351
    62  C   -0.038584
    63  C   -0.033801
    64  C   -0.005761
    65  C   -0.069353
    66  C   -0.053658
    67  H    0.033474
    68  H    0.035240
    69  H    0.024263
    70  H    0.039471
    71  H    0.033295
    72  H    0.022816
    73  H    0.021992
    74  H    0.036822
    75  H    0.019881
    76  H    0.026143
    77  H    0.043954
    78  H    0.040112
    79  H    0.032546
    80  H    0.026718
    81  H    0.036056
    82  H    0.036501
    83  H    0.026156
    84  H    0.043385
    85  H    0.031957
    86  H    0.034151
    87  H    0.029016
    88  H    0.026095
    89  H    0.016627
    90  H    0.024328
    91  H    0.020288
    92  H    0.028334
    93  H    0.009790
    94  H    0.026733
    95  H    0.021123
    96  H    0.023022
    97  H    0.041182
    98  H    0.052071
    99  H    0.022791
   100  H    0.050514
   101  H    0.039461
   102  H    0.043068
   103  H    0.045164
   104  H    0.021935
   105  H    0.038327
   106  H    0.021849
   107  H    0.016663
   108  H    0.017126
   109  H    0.017534
   110  H    0.019364
   111  H    0.010158
   112  H    0.017785
   113  H    0.028601
   114  H    0.021551
   115  H    0.024644
   116  H    0.018428
   117  H    0.020673
   118  H    0.029398
   119  H    0.010060
   120  H    0.027217
   121  H    0.013739
   122  H    0.026761
   123  H    0.012397
   124  H    0.020096
   125  H    0.001310
   126  H    0.015489
   127  H    0.016237
   128  H    0.015175
   129  H    0.017287
   130  H    0.020082
   131  H    0.023161
   132  H    0.021712
   133  H    0.012649
   134  H    0.016556
   135  H    0.019092
   136  H    0.019628
   137  H    0.017864
   138  H    0.018462
   139  H    0.026797
   140  H    0.012368
 Sum of Mulliken charges =   0.00000

 Dipole moment (field-independent basis, Debye):
    X=             -6.0299    Y=              9.0629    Z=              0.5155  Tot=             10.8978
 N-N= 4.232426064381D+03 E-N= 0.000000000000D+00  KE=-9.139927139136D+03
 Leave Link  601 at Wed Apr 27 15:41:49 2022, MaxMem=  6710886400 cpu:               0.8 elap:               0.1
 (Enter /sw/apps/gaussian-16.0/g16/l9999.exe)
 1\1\GINC-BP1-COMPUTE070\SP\RZINDO CIS\STO-3G\C55H74Mg1N4O6\OF15641\27-
 Apr-2022\0\\#p ZINDO=(nstates=5)\\step_1201_chromophore_7 ZINDO\\0,1\M
 g,0,25.944,0.123,29.595\C,0,27.705,-0.518,32.657\C,0,23.019,0.059,31.6
 66\C,0,24.111,-0.072,26.843\C,0,28.772,-0.805,27.891\N,0,25.426,-0.206
 ,31.918\C,0,26.372,-0.295,32.937\C,0,25.743,-0.137,34.273\C,0,24.224,-
 0.373,33.938\C,0,24.216,-0.129,32.41\C,0,23.682,-1.816,34.123\C,0,26.1
 16,1.268,34.9\C,0,26.556,1.275,36.374\C,0,25.88,0.397,37.39\O,0,24.799

 Normal termination of Gaussian 16 at Wed Apr 27 15:41:50 2022.
