 Gaussian 16, Revision A.03,
 Gaussian 16:  ES64L-G16RevA.03 25-Dec-2016

 ------------------------------
 #p blyp/Def2SVP td=(nstates=5)
 ------------------------------

 --------------------------------------------------
 step_651_chromophore_14 TDDFT with blyp functional
 --------------------------------------------------
 Symbolic Z-matrix:
 Charge =  0 Multiplicity = 1

                         Standard orientation:
 ---------------------------------------------------------------------
 Center     Atomic      Atomic             Coordinates (Angstroms)
 Number     Number       Type             X           Y           Z
 ---------------------------------------------------------------------
      1         12           0        5.337684    0.860325   -0.112152
      2          6           0        4.807383   -2.569359    0.262084
      3          6           0        4.665248    0.653105   -3.459142
      4          6           0        5.004065    4.251003   -0.176004
      5          6           0        5.350163    1.220106    3.506030
      6          7           0        4.864651   -0.772364   -1.474493
      7          6           0        4.690292   -2.118997   -1.041147
      8          6           0        4.308970   -2.986829   -2.219092
      9          6           0        4.495799   -2.016592   -3.442621
     10          6           0        4.653776   -0.626789   -2.777968
     11          6           0        5.779972   -2.213809   -4.306580
     12          6           0        2.908031   -3.660384   -2.209159
     13          6           0        1.718560   -3.018369   -1.352937
     14          6           0        0.284466   -3.304573   -1.909913
     15          8           0        0.067234   -4.010030   -2.885980
     16          8           0       -0.619404   -2.447345   -1.321230
     17          7           0        4.868693    2.254392   -1.663820
     18          6           0        4.536821    1.972220   -2.942127
     19          6           0        4.287777    3.129211   -3.622938
     20          6           0        4.391518    4.258489   -2.783435
     21          6           0        4.796410    3.611085   -1.444620
     22          6           0        3.814250    3.060867   -5.092886
     23          6           0        4.087284    5.710282   -3.065418
     24          8           0        3.888895    6.003391   -4.242355
     25          6           0        3.951499    6.786378   -2.046271
     26          7           0        4.998770    2.523970    1.533421
     27          6           0        5.185771    3.780598    1.110577
     28          6           0        5.412503    4.696891    2.365097
     29          6           0        5.365928    3.788328    3.575853
     30          6           0        5.194235    2.405974    2.817768
     31          6           0        6.640044    5.652458    2.247149
     32          6           0        4.220421    4.081332    4.599516
     33          6           0        4.582828    3.886620    6.061799
     34          7           0        5.156826   -0.380678    1.608666
     35          6           0        5.248707   -0.148426    2.959925
     36          6           0        5.288988   -1.451465    3.698090
     37          6           0        5.115900   -2.396682    2.642730
     38          6           0        5.017508   -1.712405    1.430731
     39          6           0        5.496803   -1.626789    5.050430
     40          6           0        4.965798   -3.820903    2.356748
     41          8           0        4.979470   -4.818285    3.100347
     42          6           0        4.910766   -3.955804    0.828114
     43          6           0        6.080476   -4.663407    0.357893
     44          8           0        6.062427   -5.754338   -0.181161
     45          8           0        7.232959   -4.022289    0.623889
     46          6           0        8.515677   -4.705069    0.451297
     47          6           0       -1.947296   -2.426051   -1.986310
     48          6           0       -2.672010   -1.555026   -0.927244
     49          6           0       -3.763282   -0.840196   -1.065719
     50          6           0       -4.568377   -0.663227   -2.394041
     51          6           0       -4.348314   -0.072929    0.054613
     52          6           0       -5.662105   -0.682368    0.658076
     53          6           0       -6.876635    0.297801    0.830516
     54          6           0       -8.247645   -0.488122    0.977091
     55          6           0       -8.187755   -1.691425    1.983677
     56          6           0       -8.645163   -1.169177   -0.357437
     57          6           0      -10.092039   -0.816278   -0.771004
     58          6           0      -11.198348   -1.698782   -0.040729
     59          6           0      -11.919173   -0.726205    0.991301
     60          6           0      -11.472139   -1.153210    2.388411
     61          6           0      -13.500659   -0.847342    0.849821
     62          6           0      -14.249839    0.428733    1.278108
     63          6           0      -15.421435    0.712588    0.258102
     64          6           0      -15.948902    2.206334    0.078221
     65          6           0      -17.487378    2.226013    0.122375
     66          6           0      -15.499819    2.920820   -1.210385
     67          1           0        4.712505    0.540300   -4.545027
     68          1           0        4.799472    5.317650   -0.285032
     69          1           0        5.677978    1.379076    4.534794
     70          1           0        4.976813   -3.848121   -2.193555
     71          1           0        3.566567   -1.998786   -4.012008
     72          1           0        6.267032   -3.092821   -3.883983
     73          1           0        6.428685   -1.339691   -4.260826
     74          1           0        5.435538   -2.388644   -5.325906
     75          1           0        3.123126   -4.664383   -1.843133
     76          1           0        2.589433   -3.806737   -3.241064
     77          1           0        1.708605   -1.929224   -1.391958
     78          1           0        1.781413   -3.458038   -0.357274
     79          1           0        4.021548    2.119564   -5.600778
     80          1           0        4.380540    3.708235   -5.761748
     81          1           0        2.806948    3.438499   -5.266793
     82          1           0        4.941040    6.862071   -1.596115
     83          1           0        3.170408    6.502289   -1.340020
     84          1           0        3.785673    7.695246   -2.625324
     85          1           0        4.531098    5.335188    2.432242
     86          1           0        6.346398    3.709942    4.045893
     87          1           0        6.380879    6.678956    1.986078
     88          1           0        7.309973    5.267839    1.479331
     89          1           0        7.058541    5.689651    3.252495
     90          1           0        3.504401    3.334859    4.254815
     91          1           0        3.789872    5.082702    4.614892
     92          1           0        5.605201    3.581043    6.281868
     93          1           0        3.850225    3.239783    6.543692
     94          1           0        4.612803    4.804044    6.649210
     95          1           0        4.632385   -1.226280    5.579720
     96          1           0        6.418823   -1.126177    5.344463
     97          1           0        5.515459   -2.639674    5.453469
     98          1           0        4.134227   -4.593614    0.408314
     99          1           0        8.371742   -5.736648    0.773303
    100          1           0        9.241353   -4.247788    1.124063
    101          1           0        8.939781   -4.655564   -0.551715
    102          1           0       -2.381449   -3.425870   -2.016859
    103          1           0       -1.998929   -2.048855   -3.007374
    104          1           0       -2.199124   -1.456816    0.049177
    105          1           0       -4.388685   -1.556952   -2.991143
    106          1           0       -4.035532    0.152233   -2.884464
    107          1           0       -5.635896   -0.465720   -2.293690
    108          1           0       -4.525017    0.934553   -0.320068
    109          1           0       -3.591826    0.092802    0.820557
    110          1           0       -5.453537   -1.132283    1.628855
    111          1           0       -5.989112   -1.293844   -0.182717
    112          1           0       -6.938084    1.009213    0.006583
    113          1           0       -6.596694    0.856441    1.723070
    114          1           0       -9.045572    0.217976    1.207842
    115          1           0       -9.079623   -2.300636    2.132767
    116          1           0       -7.810198   -1.345261    2.944702
    117          1           0       -7.374059   -2.335224    1.650837
    118          1           0       -8.698083   -2.248583   -0.214200
    119          1           0       -7.926207   -0.965792   -1.151216
    120          1           0      -10.282764   -0.873709   -1.842539
    121          1           0      -10.269006    0.236095   -0.550647
    122          1           0      -10.675021   -2.569502    0.355092
    123          1           0      -11.922683   -2.113276   -0.740817
    124          1           0      -11.596489    0.313391    1.044265
    125          1           0      -11.361721   -2.219284    2.588876
    126          1           0      -12.263554   -0.826920    3.062727
    127          1           0      -10.501938   -0.701190    2.594585
    128          1           0      -13.813815   -1.729385    1.407070
    129          1           0      -13.697666   -1.079314   -0.196882
    130          1           0      -13.518069    1.230294    1.373892
    131          1           0      -14.700358    0.174990    2.237741
    132          1           0      -16.190184   -0.004630    0.545098
    133          1           0      -15.171415    0.440989   -0.767771
    134          1           0      -15.557802    2.834254    0.878336
    135          1           0      -17.882906    1.291896    0.519399
    136          1           0      -17.947871    2.260694   -0.864601
    137          1           0      -17.826930    3.068545    0.725411
    138          1           0      -15.671034    2.217450   -2.025517
    139          1           0      -14.440974    3.177019   -1.207190
    140          1           0      -16.022059    3.878024   -1.226329
 ---------------------------------------------------------------------

 SCF Done:  E(RB-LYP) =  -3007.34263501     A.U. after   23 cycles

 Excitation energies and oscillator strengths:

 Excited State   1:      Singlet-A      1.7746 eV  698.64 nm  f=0.2697  <S**2>=0.000
     244 -> 247       -0.13835
     245 -> 248        0.17411
     246 -> 247        0.67620
     246 <- 247       -0.14878
 This state for optimization and/or second-order correction.
 Total Energy, E(TD-HF/TD-DFT) =  -3007.27741821
 Copying the excited state density for this state as the 1-particle RhoCI density.

 Excited State   2:      Singlet-A      1.8007 eV  688.53 nm  f=0.0103  <S**2>=0.000
     244 -> 247        0.68575
     246 -> 247        0.13048

 Excited State   3:      Singlet-A      1.8498 eV  670.25 nm  f=0.0358  <S**2>=0.000
     243 -> 247        0.53633
     245 -> 247        0.43295

 Excited State   4:      Singlet-A      2.0143 eV  615.53 nm  f=0.0668  <S**2>=0.000
     243 -> 247       -0.44910
     245 -> 247        0.49214
     246 -> 248       -0.19251

 Excited State   5:      Singlet-A      2.3113 eV  536.44 nm  f=0.0002  <S**2>=0.000
     242 -> 247        0.70346

 The electronic state is 1-A.
 Alpha  occ. eigenvalues --  -46.29611 -18.82464 -18.82051 -18.77151 -18.76118
 Alpha  occ. eigenvalues --  -18.75671 -18.75226 -14.03883 -14.02920 -14.01586
 Alpha  occ. eigenvalues --  -14.01413 -10.04167 -10.03628  -9.99883  -9.99823
 Alpha  occ. eigenvalues --   -9.98524  -9.98178  -9.97366  -9.96848  -9.96845
 Alpha  occ. eigenvalues --   -9.96749  -9.96343  -9.95948  -9.95302  -9.94781
 Alpha  occ. eigenvalues --   -9.94324  -9.94290  -9.94081  -9.94043  -9.93821
 Alpha  occ. eigenvalues --   -9.93768  -9.93702  -9.93693  -9.93442  -9.93364
 Alpha  occ. eigenvalues --   -9.93302  -9.93132  -9.93101  -9.93078  -9.93066
 Alpha  occ. eigenvalues --   -9.92886  -9.92722  -9.92635  -9.92525  -9.92499
 Alpha  occ. eigenvalues --   -9.92066  -9.92013  -9.91961  -9.91926  -9.91883
 Alpha  occ. eigenvalues --   -9.91847  -9.91830  -9.91599  -9.91438  -9.91433
 Alpha  occ. eigenvalues --   -9.91268  -9.91247  -9.91230  -9.91001  -9.90909
 Alpha  occ. eigenvalues --   -9.90902  -9.90863  -9.90785  -9.90779  -9.90402
 Alpha  occ. eigenvalues --   -9.90055  -2.93896  -1.74304  -1.73806  -1.73592
 Alpha  occ. eigenvalues --   -0.98587  -0.97579  -0.91359  -0.90262  -0.90023
 Alpha  occ. eigenvalues --   -0.89691  -0.87652  -0.86345  -0.85955  -0.85309
 Alpha  occ. eigenvalues --   -0.76366  -0.73598  -0.72704  -0.72619  -0.72272
 Alpha  occ. eigenvalues --   -0.72058  -0.71516  -0.71468  -0.70433  -0.70342
 Alpha  occ. eigenvalues --   -0.69435  -0.68867  -0.68210  -0.67828  -0.67296
 Alpha  occ. eigenvalues --   -0.66737  -0.66196  -0.65720  -0.65204  -0.64807
 Alpha  occ. eigenvalues --   -0.63712  -0.62730  -0.62425  -0.61726  -0.61199
 Alpha  occ. eigenvalues --   -0.60690  -0.60027  -0.59756  -0.58784  -0.58515
 Alpha  occ. eigenvalues --   -0.58228  -0.57753  -0.56778  -0.56073  -0.54873
 Alpha  occ. eigenvalues --   -0.54352  -0.53652  -0.53323  -0.52522  -0.52070
 Alpha  occ. eigenvalues --   -0.51484  -0.51143  -0.50943  -0.50594  -0.49761
 Alpha  occ. eigenvalues --   -0.49747  -0.49690  -0.48760  -0.47875  -0.46586
 Alpha  occ. eigenvalues --   -0.46022  -0.45662  -0.45435  -0.45153  -0.44616
 Alpha  occ. eigenvalues --   -0.43722  -0.43427  -0.43242  -0.42875  -0.42708
 Alpha  occ. eigenvalues --   -0.42280  -0.42124  -0.41906  -0.41326  -0.41296
 Alpha  occ. eigenvalues --   -0.40821  -0.40775  -0.40364  -0.40277  -0.40209
 Alpha  occ. eigenvalues --   -0.40033  -0.39953  -0.39783  -0.39699  -0.39442
 Alpha  occ. eigenvalues --   -0.39207  -0.38935  -0.38825  -0.38544  -0.38364
 Alpha  occ. eigenvalues --   -0.38231  -0.38014  -0.37798  -0.37684  -0.37422
 Alpha  occ. eigenvalues --   -0.37182  -0.36863  -0.36722  -0.36537  -0.36455
 Alpha  occ. eigenvalues --   -0.36309  -0.36262  -0.36026  -0.35885  -0.35677
 Alpha  occ. eigenvalues --   -0.35447  -0.35116  -0.34938  -0.34929  -0.34848
 Alpha  occ. eigenvalues --   -0.34654  -0.34319  -0.34099  -0.34079  -0.33928
 Alpha  occ. eigenvalues --   -0.33831  -0.33746  -0.33681  -0.33254  -0.33138
 Alpha  occ. eigenvalues --   -0.33042  -0.32854  -0.32630  -0.32558  -0.32393
 Alpha  occ. eigenvalues --   -0.31872  -0.31826  -0.31749  -0.31625  -0.31307
 Alpha  occ. eigenvalues --   -0.31291  -0.31001  -0.30878  -0.30514  -0.30434
 Alpha  occ. eigenvalues --   -0.30349  -0.30114  -0.30054  -0.29969  -0.29628
 Alpha  occ. eigenvalues --   -0.29569  -0.29393  -0.29229  -0.28999  -0.28709
 Alpha  occ. eigenvalues --   -0.28614  -0.28470  -0.28317  -0.28285  -0.27928
 Alpha  occ. eigenvalues --   -0.27923  -0.27569  -0.27265  -0.26822  -0.26547
 Alpha  occ. eigenvalues --   -0.26298  -0.26133  -0.25732  -0.25572  -0.25456
 Alpha  occ. eigenvalues --   -0.25373  -0.25281  -0.24035  -0.23708  -0.23269
 Alpha  occ. eigenvalues --   -0.22907  -0.22299  -0.21903  -0.21447  -0.20740
 Alpha  occ. eigenvalues --   -0.20461  -0.20452  -0.18855  -0.18483  -0.17357
 Alpha  occ. eigenvalues --   -0.16129
 Alpha virt. eigenvalues --   -0.11960  -0.07129  -0.06495  -0.04905  -0.04414
 Alpha virt. eigenvalues --   -0.02949  -0.02029  -0.01226  -0.00530  -0.00237
 Alpha virt. eigenvalues --    0.01039   0.01641   0.02314   0.02386   0.03019

 Mulliken charges:
               1
     1  Mg   0.687142
     2  C    0.037759
     3  C   -0.061757
     4  C   -0.021222
     5  C   -0.046478
     6  N   -0.228141
     7  C   -0.075850
     8  C    0.029029
     9  C    0.008943
    10  C   -0.032822
    11  C    0.140905
    12  C    0.074757
    13  C    0.098063
    14  C    0.089024
    15  O   -0.191902
    16  O   -0.277002
    17  N   -0.272100
    18  C    0.146825
    19  C   -0.109784
    20  C    0.064918
    21  C    0.048079
    22  C    0.176348
    23  C   -0.134133
    24  O   -0.174685
    25  C    0.175937
    26  N   -0.111680
    27  C    0.004208
    28  C    0.018317
    29  C    0.018337
    30  C   -0.083441
    31  C    0.134354
    32  C    0.118165
    33  C    0.050702
    34  N   -0.243978
    35  C    0.079126
    36  C   -0.142285
    37  C    0.094105
    38  C    0.045224
    39  C    0.164576
    40  C   -0.032833
    41  O   -0.147874
    42  C    0.150489
    43  C    0.037271
    44  O   -0.171491
    45  O   -0.265967
    46  C    0.220069
    47  C    0.309479
    48  C   -0.098536
    49  C   -0.163484
    50  C    0.119454
    51  C    0.174797
    52  C    0.036720
    53  C    0.074409
    54  C   -0.049909
    55  C    0.093242
    56  C    0.107190
    57  C    0.046683
    58  C    0.116682
    59  C   -0.085039
    60  C    0.081262
    61  C    0.077807
    62  C    0.105642
    63  C    0.063280
    64  C   -0.072796
    65  C    0.092320
    66  C    0.098017
    67  H   -0.056270
    68  H   -0.092247
    69  H   -0.061731
    70  H   -0.019731
    71  H   -0.017007
    72  H   -0.002536
    73  H    0.007273
    74  H    0.004243
    75  H   -0.008249
    76  H   -0.010101
    77  H    0.022867
    78  H    0.017463
    79  H   -0.031700
    80  H   -0.016709
    81  H    0.003869
    82  H    0.018952
    83  H    0.024723
    84  H   -0.006708
    85  H   -0.029555
    86  H   -0.030415
    87  H   -0.010819
    88  H   -0.004369
    89  H   -0.011863
    90  H   -0.009565
    91  H   -0.007666
    92  H   -0.016191
    93  H   -0.000357
    94  H   -0.020074
    95  H   -0.002825
    96  H    0.005408
    97  H   -0.005452
    98  H   -0.032538
    99  H    0.023177
   100  H    0.010580
   101  H    0.016407
   102  H    0.011643
   103  H    0.011089
   104  H   -0.035834
   105  H   -0.010458
   106  H    0.007083
   107  H    0.009969
   108  H   -0.046352
   109  H   -0.047594
   110  H   -0.000642
   111  H   -0.016942
   112  H   -0.028507
   113  H   -0.031242
   114  H   -0.029607
   115  H   -0.005679
   116  H   -0.031849
   117  H   -0.013854
   118  H   -0.035699
   119  H   -0.032187
   120  H   -0.044554
   121  H   -0.035366
   122  H   -0.032340
   123  H   -0.036602
   124  H   -0.019368
   125  H   -0.015310
   126  H   -0.033894
   127  H   -0.008523
   128  H   -0.034374
   129  H   -0.033160
   130  H   -0.023768
   131  H   -0.021133
   132  H   -0.029074
   133  H   -0.036084
   134  H   -0.037174
   135  H   -0.027075
   136  H   -0.020591
   137  H   -0.011020
   138  H   -0.006476
   139  H   -0.023494
   140  H   -0.008716
 Sum of Mulliken charges =  -0.00000

 Dipole moment (field-independent basis, Debye):
    X=              1.6315    Y=              5.0076    Z=              2.0735  Tot=              5.6602
 Quadrupole moment (field-independent basis, Debye-Ang):
   XX=           -359.0614   YY=           -444.8387   ZZ=           -409.6552
   XY=             18.2757   XZ=              9.0463   YZ=             33.7722

 Normal termination of Gaussian 16 at Sat Apr 30 07:49:03 2022.
