 Gaussian 16, Revision A.03,
 Gaussian 16:  ES64L-G16RevA.03 25-Dec-2016

 -----------------------------------
 #p cam-b3lyp/Def2SVP td=(nstates=5)
 -----------------------------------

 -------------------------------------------------------
 step_651_chromophore_14 TDDFT with cam-b3lyp functional
 -------------------------------------------------------
 Symbolic Z-matrix:
 Charge =  0 Multiplicity = 1

                         Standard orientation:
 ---------------------------------------------------------------------
 Center     Atomic      Atomic             Coordinates (Angstroms)
 Number     Number       Type             X           Y           Z
 ---------------------------------------------------------------------
      1         12           0        5.337684    0.860325   -0.112152
      2          6           0        4.807383   -2.569359    0.262084
      3          6           0        4.665248    0.653105   -3.459142
      4          6           0        5.004065    4.251003   -0.176004
      5          6           0        5.350163    1.220106    3.506030
      6          7           0        4.864651   -0.772364   -1.474493
      7          6           0        4.690292   -2.118997   -1.041147
      8          6           0        4.308970   -2.986829   -2.219092
      9          6           0        4.495799   -2.016592   -3.442621
     10          6           0        4.653776   -0.626789   -2.777968
     11          6           0        5.779972   -2.213809   -4.306580
     12          6           0        2.908031   -3.660384   -2.209159
     13          6           0        1.718560   -3.018369   -1.352937
     14          6           0        0.284466   -3.304573   -1.909913
     15          8           0        0.067234   -4.010030   -2.885980
     16          8           0       -0.619404   -2.447345   -1.321230
     17          7           0        4.868693    2.254392   -1.663820
     18          6           0        4.536821    1.972220   -2.942127
     19          6           0        4.287777    3.129211   -3.622938
     20          6           0        4.391518    4.258489   -2.783435
     21          6           0        4.796410    3.611085   -1.444620
     22          6           0        3.814250    3.060867   -5.092886
     23          6           0        4.087284    5.710282   -3.065418
     24          8           0        3.888895    6.003391   -4.242355
     25          6           0        3.951499    6.786378   -2.046271
     26          7           0        4.998770    2.523970    1.533421
     27          6           0        5.185771    3.780598    1.110577
     28          6           0        5.412503    4.696891    2.365097
     29          6           0        5.365928    3.788328    3.575853
     30          6           0        5.194235    2.405974    2.817768
     31          6           0        6.640044    5.652458    2.247149
     32          6           0        4.220421    4.081332    4.599516
     33          6           0        4.582828    3.886620    6.061799
     34          7           0        5.156826   -0.380678    1.608666
     35          6           0        5.248707   -0.148426    2.959925
     36          6           0        5.288988   -1.451465    3.698090
     37          6           0        5.115900   -2.396682    2.642730
     38          6           0        5.017508   -1.712405    1.430731
     39          6           0        5.496803   -1.626789    5.050430
     40          6           0        4.965798   -3.820903    2.356748
     41          8           0        4.979470   -4.818285    3.100347
     42          6           0        4.910766   -3.955804    0.828114
     43          6           0        6.080476   -4.663407    0.357893
     44          8           0        6.062427   -5.754338   -0.181161
     45          8           0        7.232959   -4.022289    0.623889
     46          6           0        8.515677   -4.705069    0.451297
     47          6           0       -1.947296   -2.426051   -1.986310
     48          6           0       -2.672010   -1.555026   -0.927244
     49          6           0       -3.763282   -0.840196   -1.065719
     50          6           0       -4.568377   -0.663227   -2.394041
     51          6           0       -4.348314   -0.072929    0.054613
     52          6           0       -5.662105   -0.682368    0.658076
     53          6           0       -6.876635    0.297801    0.830516
     54          6           0       -8.247645   -0.488122    0.977091
     55          6           0       -8.187755   -1.691425    1.983677
     56          6           0       -8.645163   -1.169177   -0.357437
     57          6           0      -10.092039   -0.816278   -0.771004
     58          6           0      -11.198348   -1.698782   -0.040729
     59          6           0      -11.919173   -0.726205    0.991301
     60          6           0      -11.472139   -1.153210    2.388411
     61          6           0      -13.500659   -0.847342    0.849821
     62          6           0      -14.249839    0.428733    1.278108
     63          6           0      -15.421435    0.712588    0.258102
     64          6           0      -15.948902    2.206334    0.078221
     65          6           0      -17.487378    2.226013    0.122375
     66          6           0      -15.499819    2.920820   -1.210385
     67          1           0        4.712505    0.540300   -4.545027
     68          1           0        4.799472    5.317650   -0.285032
     69          1           0        5.677978    1.379076    4.534794
     70          1           0        4.976813   -3.848121   -2.193555
     71          1           0        3.566567   -1.998786   -4.012008
     72          1           0        6.267032   -3.092821   -3.883983
     73          1           0        6.428685   -1.339691   -4.260826
     74          1           0        5.435538   -2.388644   -5.325906
     75          1           0        3.123126   -4.664383   -1.843133
     76          1           0        2.589433   -3.806737   -3.241064
     77          1           0        1.708605   -1.929224   -1.391958
     78          1           0        1.781413   -3.458038   -0.357274
     79          1           0        4.021548    2.119564   -5.600778
     80          1           0        4.380540    3.708235   -5.761748
     81          1           0        2.806948    3.438499   -5.266793
     82          1           0        4.941040    6.862071   -1.596115
     83          1           0        3.170408    6.502289   -1.340020
     84          1           0        3.785673    7.695246   -2.625324
     85          1           0        4.531098    5.335188    2.432242
     86          1           0        6.346398    3.709942    4.045893
     87          1           0        6.380879    6.678956    1.986078
     88          1           0        7.309973    5.267839    1.479331
     89          1           0        7.058541    5.689651    3.252495
     90          1           0        3.504401    3.334859    4.254815
     91          1           0        3.789872    5.082702    4.614892
     92          1           0        5.605201    3.581043    6.281868
     93          1           0        3.850225    3.239783    6.543692
     94          1           0        4.612803    4.804044    6.649210
     95          1           0        4.632385   -1.226280    5.579720
     96          1           0        6.418823   -1.126177    5.344463
     97          1           0        5.515459   -2.639674    5.453469
     98          1           0        4.134227   -4.593614    0.408314
     99          1           0        8.371742   -5.736648    0.773303
    100          1           0        9.241353   -4.247788    1.124063
    101          1           0        8.939781   -4.655564   -0.551715
    102          1           0       -2.381449   -3.425870   -2.016859
    103          1           0       -1.998929   -2.048855   -3.007374
    104          1           0       -2.199124   -1.456816    0.049177
    105          1           0       -4.388685   -1.556952   -2.991143
    106          1           0       -4.035532    0.152233   -2.884464
    107          1           0       -5.635896   -0.465720   -2.293690
    108          1           0       -4.525017    0.934553   -0.320068
    109          1           0       -3.591826    0.092802    0.820557
    110          1           0       -5.453537   -1.132283    1.628855
    111          1           0       -5.989112   -1.293844   -0.182717
    112          1           0       -6.938084    1.009213    0.006583
    113          1           0       -6.596694    0.856441    1.723070
    114          1           0       -9.045572    0.217976    1.207842
    115          1           0       -9.079623   -2.300636    2.132767
    116          1           0       -7.810198   -1.345261    2.944702
    117          1           0       -7.374059   -2.335224    1.650837
    118          1           0       -8.698083   -2.248583   -0.214200
    119          1           0       -7.926207   -0.965792   -1.151216
    120          1           0      -10.282764   -0.873709   -1.842539
    121          1           0      -10.269006    0.236095   -0.550647
    122          1           0      -10.675021   -2.569502    0.355092
    123          1           0      -11.922683   -2.113276   -0.740817
    124          1           0      -11.596489    0.313391    1.044265
    125          1           0      -11.361721   -2.219284    2.588876
    126          1           0      -12.263554   -0.826920    3.062727
    127          1           0      -10.501938   -0.701190    2.594585
    128          1           0      -13.813815   -1.729385    1.407070
    129          1           0      -13.697666   -1.079314   -0.196882
    130          1           0      -13.518069    1.230294    1.373892
    131          1           0      -14.700358    0.174990    2.237741
    132          1           0      -16.190184   -0.004630    0.545098
    133          1           0      -15.171415    0.440989   -0.767771
    134          1           0      -15.557802    2.834254    0.878336
    135          1           0      -17.882906    1.291896    0.519399
    136          1           0      -17.947871    2.260694   -0.864601
    137          1           0      -17.826930    3.068545    0.725411
    138          1           0      -15.671034    2.217450   -2.025517
    139          1           0      -14.440974    3.177019   -1.207190
    140          1           0      -16.022059    3.878024   -1.226329
 ---------------------------------------------------------------------

 SCF Done:  E(RCAM-B3LYP) =  -3007.13455336     A.U. after   19 cycles

 Excitation energies and oscillator strengths:

 Excited State   1:      Singlet-A      1.7082 eV  725.83 nm  f=0.3683  <S**2>=0.000
     245 -> 248       -0.16989
     246 -> 247        0.68693
     245 <- 248       -0.10161
 This state for optimization and/or second-order correction.
 Total Energy, E(TD-HF/TD-DFT) =  -3007.07177947
 Copying the excited state density for this state as the 1-particle RhoCI density.

 Excited State   2:      Singlet-A      2.1883 eV  566.57 nm  f=0.1372  <S**2>=0.000
     245 -> 247        0.64977
     246 -> 248        0.25681

 Excited State   3:      Singlet-A      3.3312 eV  372.19 nm  f=0.0039  <S**2>=0.000
     241 -> 247        0.24356
     242 -> 247        0.48900
     244 -> 247       -0.41868

 Excited State   4:      Singlet-A      3.3994 eV  364.72 nm  f=0.0235  <S**2>=0.000
     241 -> 247        0.23956
     242 -> 247        0.25593
     244 -> 247        0.50605
     246 -> 248       -0.30553

 Excited State   5:      Singlet-A      3.4533 eV  359.03 nm  f=0.0003  <S**2>=0.000
     239 -> 247        0.17951
     240 -> 247        0.53358
     240 -> 248       -0.17233
     240 -> 249       -0.19379
     240 -> 250        0.13005
     240 -> 251        0.22652

 The electronic state is 1-A.
 Alpha  occ. eigenvalues --  -46.91375 -19.25304 -19.24804 -19.20048 -19.19097
 Alpha  occ. eigenvalues --  -19.18839 -19.18547 -14.42840 -14.41736 -14.40117
 Alpha  occ. eigenvalues --  -14.39781 -10.39403 -10.38820 -10.35322 -10.34942
 Alpha  occ. eigenvalues --  -10.32606 -10.32281 -10.32013 -10.31964 -10.31555
 Alpha  occ. eigenvalues --  -10.31152 -10.30129 -10.30111 -10.30009 -10.28658
 Alpha  occ. eigenvalues --  -10.28519 -10.28436 -10.28430 -10.28256 -10.28042
 Alpha  occ. eigenvalues --  -10.27998 -10.27882 -10.27788 -10.27761 -10.27744
 Alpha  occ. eigenvalues --  -10.27562 -10.27451 -10.27038 -10.26950 -10.26938
 Alpha  occ. eigenvalues --  -10.26754 -10.26671 -10.26546 -10.26300 -10.26178
 Alpha  occ. eigenvalues --  -10.26116 -10.25761 -10.25636 -10.25611 -10.25598
 Alpha  occ. eigenvalues --  -10.25581 -10.25544 -10.25171 -10.25097 -10.25095
 Alpha  occ. eigenvalues --  -10.24993 -10.24973 -10.24922 -10.24864 -10.24558
 Alpha  occ. eigenvalues --  -10.24512 -10.24486 -10.24462 -10.24426 -10.23973
 Alpha  occ. eigenvalues --  -10.23646  -3.19542  -1.94431  -1.94008  -1.93815
 Alpha  occ. eigenvalues --   -1.17008  -1.15950  -1.10137  -1.08318  -1.07814
 Alpha  occ. eigenvalues --   -1.07517  -1.05434  -1.04274  -1.03562  -1.02732
 Alpha  occ. eigenvalues --   -0.93352  -0.90480  -0.89419  -0.89400  -0.89020
 Alpha  occ. eigenvalues --   -0.88868  -0.88183  -0.87726  -0.87006  -0.86882
 Alpha  occ. eigenvalues --   -0.86333  -0.85341  -0.84477  -0.83886  -0.83503
 Alpha  occ. eigenvalues --   -0.82964  -0.82336  -0.81721  -0.80986  -0.80602
 Alpha  occ. eigenvalues --   -0.79441  -0.78248  -0.77890  -0.77332  -0.76858
 Alpha  occ. eigenvalues --   -0.76065  -0.75419  -0.75074  -0.74000  -0.73709
 Alpha  occ. eigenvalues --   -0.73249  -0.72748  -0.71703  -0.70955  -0.69421
 Alpha  occ. eigenvalues --   -0.68969  -0.68190  -0.67951  -0.66959  -0.66192
 Alpha  occ. eigenvalues --   -0.65647  -0.65161  -0.65149  -0.64496  -0.63800
 Alpha  occ. eigenvalues --   -0.63560  -0.63270  -0.62677  -0.61637  -0.60275
 Alpha  occ. eigenvalues --   -0.59582  -0.59239  -0.58850  -0.58575  -0.57995
 Alpha  occ. eigenvalues --   -0.57108  -0.56646  -0.56514  -0.56056  -0.56044
 Alpha  occ. eigenvalues --   -0.55375  -0.55076  -0.54736  -0.54337  -0.54089
 Alpha  occ. eigenvalues --   -0.53920  -0.53448  -0.53444  -0.53237  -0.53113
 Alpha  occ. eigenvalues --   -0.52867  -0.52643  -0.52452  -0.52083  -0.51980
 Alpha  occ. eigenvalues --   -0.51793  -0.51313  -0.51174  -0.50971  -0.50679
 Alpha  occ. eigenvalues --   -0.50594  -0.50492  -0.50027  -0.49966  -0.49648
 Alpha  occ. eigenvalues --   -0.49463  -0.49226  -0.49108  -0.48863  -0.48830
 Alpha  occ. eigenvalues --   -0.48574  -0.48405  -0.48283  -0.48196  -0.47911
 Alpha  occ. eigenvalues --   -0.47517  -0.47377  -0.47093  -0.46799  -0.46665
 Alpha  occ. eigenvalues --   -0.46603  -0.46391  -0.45874  -0.45776  -0.45710
 Alpha  occ. eigenvalues --   -0.45645  -0.45609  -0.45452  -0.45242  -0.45052
 Alpha  occ. eigenvalues --   -0.44787  -0.44421  -0.44370  -0.44022  -0.43860
 Alpha  occ. eigenvalues --   -0.43752  -0.43464  -0.43190  -0.43125  -0.42916
 Alpha  occ. eigenvalues --   -0.42828  -0.42713  -0.42376  -0.42197  -0.41729
 Alpha  occ. eigenvalues --   -0.41572  -0.41536  -0.41308  -0.41194  -0.41175
 Alpha  occ. eigenvalues --   -0.40802  -0.40608  -0.40517  -0.40392  -0.39795
 Alpha  occ. eigenvalues --   -0.39618  -0.39378  -0.39352  -0.39258  -0.38992
 Alpha  occ. eigenvalues --   -0.38779  -0.38337  -0.38071  -0.37730  -0.37548
 Alpha  occ. eigenvalues --   -0.37226  -0.37060  -0.37022  -0.36625  -0.36184
 Alpha  occ. eigenvalues --   -0.36149  -0.36025  -0.34496  -0.34320  -0.34053
 Alpha  occ. eigenvalues --   -0.33866  -0.33220  -0.32764  -0.31569  -0.31236
 Alpha  occ. eigenvalues --   -0.30736  -0.30390  -0.30212  -0.29266  -0.24238
 Alpha  occ. eigenvalues --   -0.21520
 Alpha virt. eigenvalues --   -0.09198  -0.01912  -0.00274   0.00702   0.02226
 Alpha virt. eigenvalues --    0.05066   0.05737   0.06020   0.06816   0.07277
 Alpha virt. eigenvalues --    0.07561   0.08321   0.08645   0.08681   0.09363

 Mulliken charges:
               1
     1  Mg   0.814522
     2  C    0.011802
     3  C   -0.081504
     4  C   -0.046896
     5  C   -0.047730
     6  N   -0.298767
     7  C   -0.039432
     8  C   -0.016433
     9  C   -0.046383
    10  C   -0.004203
    11  C    0.080326
    12  C    0.023878
    13  C    0.031902
    14  C    0.173110
    15  O   -0.234558
    16  O   -0.342809
    17  N   -0.361430
    18  C    0.158193
    19  C   -0.117324
    20  C   -0.002090
    21  C    0.090604
    22  C    0.122945
    23  C   -0.053916
    24  O   -0.212524
    25  C    0.087335
    26  N   -0.180406
    27  C    0.026174
    28  C   -0.036717
    29  C   -0.034861
    30  C   -0.066343
    31  C    0.076219
    32  C    0.062223
    33  C   -0.013872
    34  N   -0.329552
    35  C    0.080682
    36  C   -0.137040
    37  C    0.013671
    38  C    0.082767
    39  C    0.096908
    40  C    0.065285
    41  O   -0.189376
    42  C    0.064026
    43  C    0.132732
    44  O   -0.211907
    45  O   -0.327600
    46  C    0.183009
    47  C    0.281139
    48  C   -0.121994
    49  C   -0.187536
    50  C    0.063832
    51  C    0.114850
    52  C   -0.021248
    53  C    0.031739
    54  C   -0.105189
    55  C    0.028853
    56  C    0.051147
    57  C   -0.005083
    58  C    0.061481
    59  C   -0.141197
    60  C    0.030233
    61  C    0.028410
    62  C    0.049095
    63  C    0.013096
    64  C   -0.132465
    65  C    0.031217
    66  C    0.040812
    67  H   -0.021429
    68  H   -0.057155
    69  H   -0.027158
    70  H    0.015296
    71  H    0.018364
    72  H    0.023274
    73  H    0.031957
    74  H    0.028394
    75  H    0.020122
    76  H    0.022697
    77  H    0.051211
    78  H    0.046114
    79  H   -0.003237
    80  H    0.014692
    81  H    0.033611
    82  H    0.045145
    83  H    0.053049
    84  H    0.032177
    85  H    0.006185
    86  H    0.004323
    87  H    0.013123
    88  H    0.020801
    89  H    0.013345
    90  H    0.021375
    91  H    0.019483
    92  H    0.006574
    93  H    0.024251
    94  H    0.004520
    95  H    0.022218
    96  H    0.028398
    97  H    0.024174
    98  H    0.010943
    99  H    0.047026
   100  H    0.033814
   101  H    0.036659
   102  H    0.040953
   103  H    0.036946
   104  H    0.001464
   105  H    0.012406
   106  H    0.032160
   107  H    0.029218
   108  H   -0.014840
   109  H   -0.014873
   110  H    0.026365
   111  H    0.006952
   112  H   -0.001121
   113  H   -0.002833
   114  H   -0.000472
   115  H    0.017357
   116  H   -0.004949
   117  H    0.012354
   118  H   -0.006302
   119  H   -0.005682
   120  H   -0.013204
   121  H   -0.007910
   122  H   -0.005681
   123  H   -0.005784
   124  H    0.008343
   125  H    0.007207
   126  H   -0.008300
   127  H    0.013114
   128  H   -0.005736
   129  H   -0.005634
   130  H    0.002691
   131  H    0.006117
   132  H   -0.000911
   133  H   -0.009795
   134  H   -0.005691
   135  H   -0.001975
   136  H    0.003759
   137  H    0.013316
   138  H    0.014418
   139  H    0.001235
   140  H    0.015161
 Sum of Mulliken charges =  -0.00000

 Dipole moment (field-independent basis, Debye):
    X=              1.7633    Y=              6.1078    Z=              1.3008  Tot=              6.4890
 Quadrupole moment (field-independent basis, Debye-Ang):
   XX=           -358.4457   YY=           -441.1434   ZZ=           -408.0419
   XY=             23.2066   XZ=              5.8219   YZ=             33.7784

 Normal termination of Gaussian 16 at Sat Apr 30 06:50:09 2022.
