 Gaussian 16, Revision A.03,
 Gaussian 16:  ES64L-G16RevA.03 25-Dec-2016

 ---------------------------------
 #p PBE1PBE/Def2SVP td=(nstates=5)
 ---------------------------------

 -----------------------------------------------------
 step_651_chromophore_14 TDDFT with PBE1PBE functional
 -----------------------------------------------------
 Symbolic Z-matrix:
 Charge =  0 Multiplicity = 1

                         Standard orientation:
 ---------------------------------------------------------------------
 Center     Atomic      Atomic             Coordinates (Angstroms)
 Number     Number       Type             X           Y           Z
 ---------------------------------------------------------------------
      1         12           0        5.337684    0.860325   -0.112152
      2          6           0        4.807383   -2.569359    0.262084
      3          6           0        4.665248    0.653105   -3.459142
      4          6           0        5.004065    4.251003   -0.176004
      5          6           0        5.350163    1.220106    3.506030
      6          7           0        4.864651   -0.772364   -1.474493
      7          6           0        4.690292   -2.118997   -1.041147
      8          6           0        4.308970   -2.986829   -2.219092
      9          6           0        4.495799   -2.016592   -3.442621
     10          6           0        4.653776   -0.626789   -2.777968
     11          6           0        5.779972   -2.213809   -4.306580
     12          6           0        2.908031   -3.660384   -2.209159
     13          6           0        1.718560   -3.018369   -1.352937
     14          6           0        0.284466   -3.304573   -1.909913
     15          8           0        0.067234   -4.010030   -2.885980
     16          8           0       -0.619404   -2.447345   -1.321230
     17          7           0        4.868693    2.254392   -1.663820
     18          6           0        4.536821    1.972220   -2.942127
     19          6           0        4.287777    3.129211   -3.622938
     20          6           0        4.391518    4.258489   -2.783435
     21          6           0        4.796410    3.611085   -1.444620
     22          6           0        3.814250    3.060867   -5.092886
     23          6           0        4.087284    5.710282   -3.065418
     24          8           0        3.888895    6.003391   -4.242355
     25          6           0        3.951499    6.786378   -2.046271
     26          7           0        4.998770    2.523970    1.533421
     27          6           0        5.185771    3.780598    1.110577
     28          6           0        5.412503    4.696891    2.365097
     29          6           0        5.365928    3.788328    3.575853
     30          6           0        5.194235    2.405974    2.817768
     31          6           0        6.640044    5.652458    2.247149
     32          6           0        4.220421    4.081332    4.599516
     33          6           0        4.582828    3.886620    6.061799
     34          7           0        5.156826   -0.380678    1.608666
     35          6           0        5.248707   -0.148426    2.959925
     36          6           0        5.288988   -1.451465    3.698090
     37          6           0        5.115900   -2.396682    2.642730
     38          6           0        5.017508   -1.712405    1.430731
     39          6           0        5.496803   -1.626789    5.050430
     40          6           0        4.965798   -3.820903    2.356748
     41          8           0        4.979470   -4.818285    3.100347
     42          6           0        4.910766   -3.955804    0.828114
     43          6           0        6.080476   -4.663407    0.357893
     44          8           0        6.062427   -5.754338   -0.181161
     45          8           0        7.232959   -4.022289    0.623889
     46          6           0        8.515677   -4.705069    0.451297
     47          6           0       -1.947296   -2.426051   -1.986310
     48          6           0       -2.672010   -1.555026   -0.927244
     49          6           0       -3.763282   -0.840196   -1.065719
     50          6           0       -4.568377   -0.663227   -2.394041
     51          6           0       -4.348314   -0.072929    0.054613
     52          6           0       -5.662105   -0.682368    0.658076
     53          6           0       -6.876635    0.297801    0.830516
     54          6           0       -8.247645   -0.488122    0.977091
     55          6           0       -8.187755   -1.691425    1.983677
     56          6           0       -8.645163   -1.169177   -0.357437
     57          6           0      -10.092039   -0.816278   -0.771004
     58          6           0      -11.198348   -1.698782   -0.040729
     59          6           0      -11.919173   -0.726205    0.991301
     60          6           0      -11.472139   -1.153210    2.388411
     61          6           0      -13.500659   -0.847342    0.849821
     62          6           0      -14.249839    0.428733    1.278108
     63          6           0      -15.421435    0.712588    0.258102
     64          6           0      -15.948902    2.206334    0.078221
     65          6           0      -17.487378    2.226013    0.122375
     66          6           0      -15.499819    2.920820   -1.210385
     67          1           0        4.712505    0.540300   -4.545027
     68          1           0        4.799472    5.317650   -0.285032
     69          1           0        5.677978    1.379076    4.534794
     70          1           0        4.976813   -3.848121   -2.193555
     71          1           0        3.566567   -1.998786   -4.012008
     72          1           0        6.267032   -3.092821   -3.883983
     73          1           0        6.428685   -1.339691   -4.260826
     74          1           0        5.435538   -2.388644   -5.325906
     75          1           0        3.123126   -4.664383   -1.843133
     76          1           0        2.589433   -3.806737   -3.241064
     77          1           0        1.708605   -1.929224   -1.391958
     78          1           0        1.781413   -3.458038   -0.357274
     79          1           0        4.021548    2.119564   -5.600778
     80          1           0        4.380540    3.708235   -5.761748
     81          1           0        2.806948    3.438499   -5.266793
     82          1           0        4.941040    6.862071   -1.596115
     83          1           0        3.170408    6.502289   -1.340020
     84          1           0        3.785673    7.695246   -2.625324
     85          1           0        4.531098    5.335188    2.432242
     86          1           0        6.346398    3.709942    4.045893
     87          1           0        6.380879    6.678956    1.986078
     88          1           0        7.309973    5.267839    1.479331
     89          1           0        7.058541    5.689651    3.252495
     90          1           0        3.504401    3.334859    4.254815
     91          1           0        3.789872    5.082702    4.614892
     92          1           0        5.605201    3.581043    6.281868
     93          1           0        3.850225    3.239783    6.543692
     94          1           0        4.612803    4.804044    6.649210
     95          1           0        4.632385   -1.226280    5.579720
     96          1           0        6.418823   -1.126177    5.344463
     97          1           0        5.515459   -2.639674    5.453469
     98          1           0        4.134227   -4.593614    0.408314
     99          1           0        8.371742   -5.736648    0.773303
    100          1           0        9.241353   -4.247788    1.124063
    101          1           0        8.939781   -4.655564   -0.551715
    102          1           0       -2.381449   -3.425870   -2.016859
    103          1           0       -1.998929   -2.048855   -3.007374
    104          1           0       -2.199124   -1.456816    0.049177
    105          1           0       -4.388685   -1.556952   -2.991143
    106          1           0       -4.035532    0.152233   -2.884464
    107          1           0       -5.635896   -0.465720   -2.293690
    108          1           0       -4.525017    0.934553   -0.320068
    109          1           0       -3.591826    0.092802    0.820557
    110          1           0       -5.453537   -1.132283    1.628855
    111          1           0       -5.989112   -1.293844   -0.182717
    112          1           0       -6.938084    1.009213    0.006583
    113          1           0       -6.596694    0.856441    1.723070
    114          1           0       -9.045572    0.217976    1.207842
    115          1           0       -9.079623   -2.300636    2.132767
    116          1           0       -7.810198   -1.345261    2.944702
    117          1           0       -7.374059   -2.335224    1.650837
    118          1           0       -8.698083   -2.248583   -0.214200
    119          1           0       -7.926207   -0.965792   -1.151216
    120          1           0      -10.282764   -0.873709   -1.842539
    121          1           0      -10.269006    0.236095   -0.550647
    122          1           0      -10.675021   -2.569502    0.355092
    123          1           0      -11.922683   -2.113276   -0.740817
    124          1           0      -11.596489    0.313391    1.044265
    125          1           0      -11.361721   -2.219284    2.588876
    126          1           0      -12.263554   -0.826920    3.062727
    127          1           0      -10.501938   -0.701190    2.594585
    128          1           0      -13.813815   -1.729385    1.407070
    129          1           0      -13.697666   -1.079314   -0.196882
    130          1           0      -13.518069    1.230294    1.373892
    131          1           0      -14.700358    0.174990    2.237741
    132          1           0      -16.190184   -0.004630    0.545098
    133          1           0      -15.171415    0.440989   -0.767771
    134          1           0      -15.557802    2.834254    0.878336
    135          1           0      -17.882906    1.291896    0.519399
    136          1           0      -17.947871    2.260694   -0.864601
    137          1           0      -17.826930    3.068545    0.725411
    138          1           0      -15.671034    2.217450   -2.025517
    139          1           0      -14.440974    3.177019   -1.207190
    140          1           0      -16.022059    3.878024   -1.226329
 ---------------------------------------------------------------------

 SCF Done:  E(RPBE1PBE) =  -3005.32302669     A.U. after   16 cycles

 Excitation energies and oscillator strengths:

 Excited State   1:      Singlet-A      1.8334 eV  676.27 nm  f=0.3514  <S**2>=0.000
     245 -> 248       -0.16693
     246 -> 247        0.69294
     246 <- 247       -0.10954
 This state for optimization and/or second-order correction.
 Total Energy, E(TD-HF/TD-DFT) =  -3005.25565211
 Copying the excited state density for this state as the 1-particle RhoCI density.

 Excited State   2:      Singlet-A      2.1847 eV  567.51 nm  f=0.1284  <S**2>=0.000
     245 -> 247        0.66003
     246 -> 248        0.23217

 Excited State   3:      Singlet-A      2.9344 eV  422.53 nm  f=0.0001  <S**2>=0.000
     240 -> 247       -0.11348
     241 -> 247        0.66093
     241 -> 248       -0.11114
     241 -> 249       -0.12279
     241 -> 251        0.10632

 Excited State   4:      Singlet-A      2.9694 eV  417.54 nm  f=0.0009  <S**2>=0.000
     242 -> 247        0.41942
     244 -> 247        0.55124

 Excited State   5:      Singlet-A      3.0239 eV  410.01 nm  f=0.0036  <S**2>=0.000
     240 -> 247        0.21193
     242 -> 247        0.50358
     242 -> 249        0.11730
     244 -> 247       -0.39965

 The electronic state is 1-A.
 Alpha  occ. eigenvalues --  -46.94730 -19.26038 -19.25498 -19.20361 -19.19435
 Alpha  occ. eigenvalues --  -19.19042 -19.18790 -14.42330 -14.41168 -14.39604
 Alpha  occ. eigenvalues --  -14.39591 -10.36494 -10.35911 -10.32331 -10.32216
 Alpha  occ. eigenvalues --  -10.30018 -10.29747 -10.29307 -10.29275 -10.29078
 Alpha  occ. eigenvalues --  -10.29033 -10.28297 -10.27920 -10.27353 -10.26700
 Alpha  occ. eigenvalues --  -10.26416 -10.26170 -10.25910 -10.25682 -10.25640
 Alpha  occ. eigenvalues --  -10.25633 -10.25627 -10.25620 -10.25528 -10.25488
 Alpha  occ. eigenvalues --  -10.25359 -10.24981 -10.24809 -10.24648 -10.24426
 Alpha  occ. eigenvalues --  -10.24094 -10.24079 -10.24031 -10.23951 -10.23760
 Alpha  occ. eigenvalues --  -10.23569 -10.23359 -10.23297 -10.23173 -10.23122
 Alpha  occ. eigenvalues --  -10.23061 -10.22969 -10.22938 -10.22839 -10.22650
 Alpha  occ. eigenvalues --  -10.22633 -10.22591 -10.22573 -10.22475 -10.22141
 Alpha  occ. eigenvalues --  -10.22102 -10.22038 -10.21861 -10.21858 -10.21357
 Alpha  occ. eigenvalues --  -10.21039  -3.16487  -1.89312  -1.88869  -1.88680
 Alpha  occ. eigenvalues --   -1.11856  -1.10783  -1.04616  -1.03277  -1.02712
 Alpha  occ. eigenvalues --   -1.02432  -1.00054  -0.98725  -0.98232  -0.97515
 Alpha  occ. eigenvalues --   -0.87853  -0.84598  -0.83689  -0.83491  -0.83270
 Alpha  occ. eigenvalues --   -0.83107  -0.82300  -0.82270  -0.81287  -0.80981
 Alpha  occ. eigenvalues --   -0.80411  -0.79510  -0.78680  -0.78245  -0.77654
 Alpha  occ. eigenvalues --   -0.77140  -0.76511  -0.75993  -0.75340  -0.74841
 Alpha  occ. eigenvalues --   -0.73621  -0.72577  -0.72254  -0.71539  -0.71064
 Alpha  occ. eigenvalues --   -0.70198  -0.69715  -0.69157  -0.68130  -0.67907
 Alpha  occ. eigenvalues --   -0.67677  -0.67091  -0.66110  -0.65257  -0.63800
 Alpha  occ. eigenvalues --   -0.63495  -0.62503  -0.62310  -0.61123  -0.60608
 Alpha  occ. eigenvalues --   -0.60063  -0.59708  -0.59339  -0.59075  -0.58102
 Alpha  occ. eigenvalues --   -0.57917  -0.57889  -0.56853  -0.55883  -0.54803
 Alpha  occ. eigenvalues --   -0.54173  -0.53738  -0.53405  -0.53240  -0.52441
 Alpha  occ. eigenvalues --   -0.51602  -0.51205  -0.50824  -0.50537  -0.50500
 Alpha  occ. eigenvalues --   -0.49963  -0.49600  -0.49203  -0.48998  -0.48655
 Alpha  occ. eigenvalues --   -0.48385  -0.47898  -0.47815  -0.47688  -0.47475
 Alpha  occ. eigenvalues --   -0.47386  -0.47133  -0.46904  -0.46753  -0.46722
 Alpha  occ. eigenvalues --   -0.46394  -0.45924  -0.45723  -0.45559  -0.45379
 Alpha  occ. eigenvalues --   -0.45108  -0.44946  -0.44617  -0.44529  -0.44339
 Alpha  occ. eigenvalues --   -0.44092  -0.43766  -0.43595  -0.43517  -0.43348
 Alpha  occ. eigenvalues --   -0.43228  -0.43002  -0.42909  -0.42812  -0.42597
 Alpha  occ. eigenvalues --   -0.42130  -0.41871  -0.41771  -0.41395  -0.41307
 Alpha  occ. eigenvalues --   -0.41246  -0.41113  -0.40674  -0.40498  -0.40485
 Alpha  occ. eigenvalues --   -0.40363  -0.40267  -0.40227  -0.39900  -0.39796
 Alpha  occ. eigenvalues --   -0.39531  -0.39258  -0.39079  -0.38778  -0.38753
 Alpha  occ. eigenvalues --   -0.38327  -0.38284  -0.37977  -0.37879  -0.37662
 Alpha  occ. eigenvalues --   -0.37644  -0.37478  -0.37033  -0.36895  -0.36705
 Alpha  occ. eigenvalues --   -0.36467  -0.36263  -0.36165  -0.36049  -0.35909
 Alpha  occ. eigenvalues --   -0.35679  -0.35526  -0.35265  -0.35208  -0.34743
 Alpha  occ. eigenvalues --   -0.34377  -0.34297  -0.34182  -0.34010  -0.33924
 Alpha  occ. eigenvalues --   -0.33563  -0.33187  -0.32866  -0.32761  -0.32411
 Alpha  occ. eigenvalues --   -0.32190  -0.32061  -0.31791  -0.31640  -0.31238
 Alpha  occ. eigenvalues --   -0.31043  -0.30944  -0.29424  -0.29310  -0.29292
 Alpha  occ. eigenvalues --   -0.28714  -0.28296  -0.28188  -0.27081  -0.25929
 Alpha  occ. eigenvalues --   -0.25719  -0.25642  -0.25467  -0.25237  -0.21115
 Alpha  occ. eigenvalues --   -0.19113
 Alpha virt. eigenvalues --   -0.11627  -0.05453  -0.04247  -0.02501  -0.02009
 Alpha virt. eigenvalues --    0.00441   0.01192   0.01589   0.02471   0.02963
 Alpha virt. eigenvalues --    0.03817   0.04426   0.05160   0.05330   0.05958

 Mulliken charges:
               1
     1  Mg   0.946146
     2  C   -0.002087
     3  C   -0.078582
     4  C   -0.045180
     5  C   -0.039378
     6  N   -0.400500
     7  C    0.027340
     8  C   -0.076390
     9  C   -0.128377
    10  C    0.034946
    11  C    0.022639
    12  C   -0.022937
    13  C   -0.052894
    14  C    0.242933
    15  O   -0.265836
    16  O   -0.373551
    17  N   -0.472171
    18  C    0.181670
    19  C   -0.147549
    20  C   -0.055883
    21  C    0.125947
    22  C    0.071827
    23  C   -0.004097
    24  O   -0.247140
    25  C    0.007265
    26  N   -0.282450
    27  C    0.055184
    28  C   -0.106786
    29  C   -0.111174
    30  C   -0.024428
    31  C    0.015479
    32  C    0.002880
    33  C   -0.082979
    34  N   -0.453330
    35  C    0.116723
    36  C   -0.165318
    37  C   -0.031217
    38  C    0.146493
    39  C    0.041595
    40  C    0.159540
    41  O   -0.233895
    42  C   -0.057111
    43  C    0.236375
    44  O   -0.251360
    45  O   -0.359158
    46  C    0.129409
    47  C    0.244347
    48  C   -0.133339
    49  C   -0.235245
    50  C   -0.004276
    51  C    0.058821
    52  C   -0.094869
    53  C   -0.018726
    54  C   -0.189772
    55  C   -0.039438
    56  C   -0.010835
    57  C   -0.068234
    58  C    0.013666
    59  C   -0.229950
    60  C   -0.030229
    61  C   -0.022454
    62  C   -0.019151
    63  C   -0.037302
    64  C   -0.223438
    65  C   -0.029449
    66  C   -0.023717
    67  H    0.011575
    68  H   -0.019226
    69  H    0.005672
    70  H    0.055233
    71  H    0.054432
    72  H    0.050446
    73  H    0.059387
    74  H    0.055411
    75  H    0.051335
    76  H    0.054514
    77  H    0.084774
    78  H    0.078632
    79  H    0.021534
    80  H    0.041231
    81  H    0.059705
    82  H    0.070403
    83  H    0.079188
    84  H    0.059417
    85  H    0.044481
    86  H    0.041329
    87  H    0.040365
    88  H    0.048879
    89  H    0.040562
    90  H    0.054745
    91  H    0.051132
    92  H    0.032095
    93  H    0.051355
    94  H    0.032584
    95  H    0.052115
    96  H    0.056629
    97  H    0.053301
    98  H    0.051241
    99  H    0.067585
   100  H    0.055652
   101  H    0.058354
   102  H    0.067552
   103  H    0.061966
   104  H    0.031342
   105  H    0.040892
   106  H    0.061388
   107  H    0.057327
   108  H    0.019080
   109  H    0.017409
   110  H    0.057505
   111  H    0.044889
   112  H    0.031193
   113  H    0.030790
   114  H    0.036761
   115  H    0.046910
   116  H    0.024707
   117  H    0.041200
   118  H    0.027924
   119  H    0.030500
   120  H    0.020137
   121  H    0.026030
   122  H    0.024402
   123  H    0.025824
   124  H    0.042368
   125  H    0.034011
   126  H    0.022360
   127  H    0.045342
   128  H    0.026734
   129  H    0.026657
   130  H    0.034674
   131  H    0.039448
   132  H    0.030561
   133  H    0.022095
   134  H    0.032416
   135  H    0.025670
   136  H    0.030968
   137  H    0.040810
   138  H    0.041344
   139  H    0.030252
   140  H    0.043453
 Sum of Mulliken charges =  -0.00000

 Dipole moment (field-independent basis, Debye):
    X=              1.8485    Y=              5.6786    Z=              1.8846  Tot=              6.2622
 Quadrupole moment (field-independent basis, Debye-Ang):
   XX=           -354.6966   YY=           -438.9011   ZZ=           -403.2856
   XY=             21.1584   XZ=              9.0965   YZ=             35.2853

 Normal termination of Gaussian 16 at Sat Apr 30 07:07:53 2022.
