 Gaussian 16, Revision A.03,
 Gaussian 16:  ES64L-G16RevA.03 25-Dec-2016

 --------------------------------
 #p wB97XD/Def2SVP td=(nstates=5)
 --------------------------------

 ----------------------------------------------------
 step_651_chromophore_14 TDDFT with wB97XD functional
 ----------------------------------------------------
 Symbolic Z-matrix:
 Charge =  0 Multiplicity = 1

                         Standard orientation:
 ---------------------------------------------------------------------
 Center     Atomic      Atomic             Coordinates (Angstroms)
 Number     Number       Type             X           Y           Z
 ---------------------------------------------------------------------
      1         12           0        5.337684    0.860325   -0.112152
      2          6           0        4.807383   -2.569359    0.262084
      3          6           0        4.665248    0.653105   -3.459142
      4          6           0        5.004065    4.251003   -0.176004
      5          6           0        5.350163    1.220106    3.506030
      6          7           0        4.864651   -0.772364   -1.474493
      7          6           0        4.690292   -2.118997   -1.041147
      8          6           0        4.308970   -2.986829   -2.219092
      9          6           0        4.495799   -2.016592   -3.442621
     10          6           0        4.653776   -0.626789   -2.777968
     11          6           0        5.779972   -2.213809   -4.306580
     12          6           0        2.908031   -3.660384   -2.209159
     13          6           0        1.718560   -3.018369   -1.352937
     14          6           0        0.284466   -3.304573   -1.909913
     15          8           0        0.067234   -4.010030   -2.885980
     16          8           0       -0.619404   -2.447345   -1.321230
     17          7           0        4.868693    2.254392   -1.663820
     18          6           0        4.536821    1.972220   -2.942127
     19          6           0        4.287777    3.129211   -3.622938
     20          6           0        4.391518    4.258489   -2.783435
     21          6           0        4.796410    3.611085   -1.444620
     22          6           0        3.814250    3.060867   -5.092886
     23          6           0        4.087284    5.710282   -3.065418
     24          8           0        3.888895    6.003391   -4.242355
     25          6           0        3.951499    6.786378   -2.046271
     26          7           0        4.998770    2.523970    1.533421
     27          6           0        5.185771    3.780598    1.110577
     28          6           0        5.412503    4.696891    2.365097
     29          6           0        5.365928    3.788328    3.575853
     30          6           0        5.194235    2.405974    2.817768
     31          6           0        6.640044    5.652458    2.247149
     32          6           0        4.220421    4.081332    4.599516
     33          6           0        4.582828    3.886620    6.061799
     34          7           0        5.156826   -0.380678    1.608666
     35          6           0        5.248707   -0.148426    2.959925
     36          6           0        5.288988   -1.451465    3.698090
     37          6           0        5.115900   -2.396682    2.642730
     38          6           0        5.017508   -1.712405    1.430731
     39          6           0        5.496803   -1.626789    5.050430
     40          6           0        4.965798   -3.820903    2.356748
     41          8           0        4.979470   -4.818285    3.100347
     42          6           0        4.910766   -3.955804    0.828114
     43          6           0        6.080476   -4.663407    0.357893
     44          8           0        6.062427   -5.754338   -0.181161
     45          8           0        7.232959   -4.022289    0.623889
     46          6           0        8.515677   -4.705069    0.451297
     47          6           0       -1.947296   -2.426051   -1.986310
     48          6           0       -2.672010   -1.555026   -0.927244
     49          6           0       -3.763282   -0.840196   -1.065719
     50          6           0       -4.568377   -0.663227   -2.394041
     51          6           0       -4.348314   -0.072929    0.054613
     52          6           0       -5.662105   -0.682368    0.658076
     53          6           0       -6.876635    0.297801    0.830516
     54          6           0       -8.247645   -0.488122    0.977091
     55          6           0       -8.187755   -1.691425    1.983677
     56          6           0       -8.645163   -1.169177   -0.357437
     57          6           0      -10.092039   -0.816278   -0.771004
     58          6           0      -11.198348   -1.698782   -0.040729
     59          6           0      -11.919173   -0.726205    0.991301
     60          6           0      -11.472139   -1.153210    2.388411
     61          6           0      -13.500659   -0.847342    0.849821
     62          6           0      -14.249839    0.428733    1.278108
     63          6           0      -15.421435    0.712588    0.258102
     64          6           0      -15.948902    2.206334    0.078221
     65          6           0      -17.487378    2.226013    0.122375
     66          6           0      -15.499819    2.920820   -1.210385
     67          1           0        4.712505    0.540300   -4.545027
     68          1           0        4.799472    5.317650   -0.285032
     69          1           0        5.677978    1.379076    4.534794
     70          1           0        4.976813   -3.848121   -2.193555
     71          1           0        3.566567   -1.998786   -4.012008
     72          1           0        6.267032   -3.092821   -3.883983
     73          1           0        6.428685   -1.339691   -4.260826
     74          1           0        5.435538   -2.388644   -5.325906
     75          1           0        3.123126   -4.664383   -1.843133
     76          1           0        2.589433   -3.806737   -3.241064
     77          1           0        1.708605   -1.929224   -1.391958
     78          1           0        1.781413   -3.458038   -0.357274
     79          1           0        4.021548    2.119564   -5.600778
     80          1           0        4.380540    3.708235   -5.761748
     81          1           0        2.806948    3.438499   -5.266793
     82          1           0        4.941040    6.862071   -1.596115
     83          1           0        3.170408    6.502289   -1.340020
     84          1           0        3.785673    7.695246   -2.625324
     85          1           0        4.531098    5.335188    2.432242
     86          1           0        6.346398    3.709942    4.045893
     87          1           0        6.380879    6.678956    1.986078
     88          1           0        7.309973    5.267839    1.479331
     89          1           0        7.058541    5.689651    3.252495
     90          1           0        3.504401    3.334859    4.254815
     91          1           0        3.789872    5.082702    4.614892
     92          1           0        5.605201    3.581043    6.281868
     93          1           0        3.850225    3.239783    6.543692
     94          1           0        4.612803    4.804044    6.649210
     95          1           0        4.632385   -1.226280    5.579720
     96          1           0        6.418823   -1.126177    5.344463
     97          1           0        5.515459   -2.639674    5.453469
     98          1           0        4.134227   -4.593614    0.408314
     99          1           0        8.371742   -5.736648    0.773303
    100          1           0        9.241353   -4.247788    1.124063
    101          1           0        8.939781   -4.655564   -0.551715
    102          1           0       -2.381449   -3.425870   -2.016859
    103          1           0       -1.998929   -2.048855   -3.007374
    104          1           0       -2.199124   -1.456816    0.049177
    105          1           0       -4.388685   -1.556952   -2.991143
    106          1           0       -4.035532    0.152233   -2.884464
    107          1           0       -5.635896   -0.465720   -2.293690
    108          1           0       -4.525017    0.934553   -0.320068
    109          1           0       -3.591826    0.092802    0.820557
    110          1           0       -5.453537   -1.132283    1.628855
    111          1           0       -5.989112   -1.293844   -0.182717
    112          1           0       -6.938084    1.009213    0.006583
    113          1           0       -6.596694    0.856441    1.723070
    114          1           0       -9.045572    0.217976    1.207842
    115          1           0       -9.079623   -2.300636    2.132767
    116          1           0       -7.810198   -1.345261    2.944702
    117          1           0       -7.374059   -2.335224    1.650837
    118          1           0       -8.698083   -2.248583   -0.214200
    119          1           0       -7.926207   -0.965792   -1.151216
    120          1           0      -10.282764   -0.873709   -1.842539
    121          1           0      -10.269006    0.236095   -0.550647
    122          1           0      -10.675021   -2.569502    0.355092
    123          1           0      -11.922683   -2.113276   -0.740817
    124          1           0      -11.596489    0.313391    1.044265
    125          1           0      -11.361721   -2.219284    2.588876
    126          1           0      -12.263554   -0.826920    3.062727
    127          1           0      -10.501938   -0.701190    2.594585
    128          1           0      -13.813815   -1.729385    1.407070
    129          1           0      -13.697666   -1.079314   -0.196882
    130          1           0      -13.518069    1.230294    1.373892
    131          1           0      -14.700358    0.174990    2.237741
    132          1           0      -16.190184   -0.004630    0.545098
    133          1           0      -15.171415    0.440989   -0.767771
    134          1           0      -15.557802    2.834254    0.878336
    135          1           0      -17.882906    1.291896    0.519399
    136          1           0      -17.947871    2.260694   -0.864601
    137          1           0      -17.826930    3.068545    0.725411
    138          1           0      -15.671034    2.217450   -2.025517
    139          1           0      -14.440974    3.177019   -1.207190
    140          1           0      -16.022059    3.878024   -1.226329
 ---------------------------------------------------------------------

 SCF Done:  E(RwB97XD) =  -3007.83487296     A.U. after   19 cycles

 Excitation energies and oscillator strengths:

 Excited State   1:      Singlet-A      1.6693 eV  742.74 nm  f=0.3675  <S**2>=0.000
     245 -> 248        0.17446
     246 -> 247        0.68511
     245 <- 248        0.10943
 This state for optimization and/or second-order correction.
 Total Energy, E(TD-HF/TD-DFT) =  -3007.77352825
 Copying the excited state density for this state as the 1-particle RhoCI density.

 Excited State   2:      Singlet-A      2.1379 eV  579.93 nm  f=0.1347  <S**2>=0.000
     245 -> 247        0.64759
     246 -> 248       -0.25946

 Excited State   3:      Singlet-A      3.3475 eV  370.38 nm  f=0.0102  <S**2>=0.000
     241 -> 247        0.50549
     242 -> 247       -0.35332
     244 -> 247       -0.25279
     246 -> 248        0.16940

 Excited State   4:      Singlet-A      3.4431 eV  360.10 nm  f=0.0238  <S**2>=0.000
     239 -> 247        0.12493
     240 -> 247       -0.37750
     240 -> 248        0.12448
     240 -> 249        0.18002
     240 -> 251       -0.16735
     241 -> 247        0.10620
     244 -> 247        0.41046
     246 -> 248        0.23132

 Excited State   5:      Singlet-A      3.4508 eV  359.29 nm  f=0.0247  <S**2>=0.000
     240 -> 247        0.39253
     240 -> 248       -0.12891
     240 -> 249       -0.19712
     240 -> 251        0.17401
     241 -> 247        0.13671
     244 -> 247        0.39745
     246 -> 248        0.23517

 The electronic state is 1-A.
 Alpha  occ. eigenvalues --  -46.97698 -19.30550 -19.29974 -19.24975 -19.24024
 Alpha  occ. eigenvalues --  -19.23923 -19.23544 -14.47442 -14.46299 -14.44734
 Alpha  occ. eigenvalues --  -14.44293 -10.43208 -10.42626 -10.39341 -10.38909
 Alpha  occ. eigenvalues --  -10.36503 -10.36383 -10.36142 -10.35703 -10.35629
 Alpha  occ. eigenvalues --  -10.35157 -10.34254 -10.34050 -10.33928 -10.32666
 Alpha  occ. eigenvalues --  -10.32621 -10.32564 -10.32498 -10.32466 -10.32106
 Alpha  occ. eigenvalues --  -10.31905 -10.31904 -10.31868 -10.31807 -10.31778
 Alpha  occ. eigenvalues --  -10.31551 -10.31541 -10.31040 -10.30930 -10.30871
 Alpha  occ. eigenvalues --  -10.30665 -10.30559 -10.30420 -10.30308 -10.30091
 Alpha  occ. eigenvalues --  -10.30016 -10.29766 -10.29615 -10.29575 -10.29539
 Alpha  occ. eigenvalues --  -10.29501 -10.29385 -10.29026 -10.29004 -10.28931
 Alpha  occ. eigenvalues --  -10.28924 -10.28919 -10.28850 -10.28821 -10.28472
 Alpha  occ. eigenvalues --  -10.28439 -10.28392 -10.28315 -10.28292 -10.27782
 Alpha  occ. eigenvalues --  -10.27498  -3.23372  -1.96937  -1.96492  -1.96301
 Alpha  occ. eigenvalues --   -1.19145  -1.18121  -1.12412  -1.10488  -1.10006
 Alpha  occ. eigenvalues --   -1.09685  -1.07434  -1.06353  -1.05581  -1.04712
 Alpha  occ. eigenvalues --   -0.95282  -0.92271  -0.91284  -0.91163  -0.90931
 Alpha  occ. eigenvalues --   -0.90770  -0.89942  -0.89583  -0.88944  -0.88650
 Alpha  occ. eigenvalues --   -0.88365  -0.87245  -0.86359  -0.85748  -0.85343
 Alpha  occ. eigenvalues --   -0.84907  -0.84233  -0.83602  -0.82941  -0.82459
 Alpha  occ. eigenvalues --   -0.81270  -0.80151  -0.79789  -0.79286  -0.78779
 Alpha  occ. eigenvalues --   -0.77895  -0.77391  -0.76856  -0.75816  -0.75555
 Alpha  occ. eigenvalues --   -0.75180  -0.74669  -0.73687  -0.72898  -0.71316
 Alpha  occ. eigenvalues --   -0.70968  -0.70094  -0.69945  -0.68798  -0.68118
 Alpha  occ. eigenvalues --   -0.67616  -0.67142  -0.66993  -0.66482  -0.65605
 Alpha  occ. eigenvalues --   -0.65516  -0.65218  -0.64501  -0.63493  -0.62271
 Alpha  occ. eigenvalues --   -0.61596  -0.61209  -0.60810  -0.60535  -0.59951
 Alpha  occ. eigenvalues --   -0.59004  -0.58627  -0.58363  -0.58006  -0.57934
 Alpha  occ. eigenvalues --   -0.57292  -0.56996  -0.56627  -0.56263  -0.56015
 Alpha  occ. eigenvalues --   -0.55844  -0.55445  -0.55269  -0.55223  -0.55043
 Alpha  occ. eigenvalues --   -0.54788  -0.54526  -0.54321  -0.53996  -0.53854
 Alpha  occ. eigenvalues --   -0.53674  -0.53217  -0.53059  -0.52881  -0.52621
 Alpha  occ. eigenvalues --   -0.52486  -0.52389  -0.51940  -0.51858  -0.51542
 Alpha  occ. eigenvalues --   -0.51420  -0.51182  -0.51026  -0.50737  -0.50706
 Alpha  occ. eigenvalues --   -0.50462  -0.50292  -0.50167  -0.50086  -0.49836
 Alpha  occ. eigenvalues --   -0.49428  -0.49363  -0.49006  -0.48656  -0.48562
 Alpha  occ. eigenvalues --   -0.48518  -0.48312  -0.47791  -0.47628  -0.47610
 Alpha  occ. eigenvalues --   -0.47506  -0.47494  -0.47408  -0.47192  -0.46971
 Alpha  occ. eigenvalues --   -0.46688  -0.46281  -0.46262  -0.45897  -0.45743
 Alpha  occ. eigenvalues --   -0.45732  -0.45356  -0.45057  -0.45033  -0.44918
 Alpha  occ. eigenvalues --   -0.44744  -0.44691  -0.44407  -0.44044  -0.43678
 Alpha  occ. eigenvalues --   -0.43515  -0.43387  -0.43239  -0.43066  -0.43042
 Alpha  occ. eigenvalues --   -0.42705  -0.42495  -0.42365  -0.42298  -0.41703
 Alpha  occ. eigenvalues --   -0.41455  -0.41249  -0.41233  -0.41088  -0.40892
 Alpha  occ. eigenvalues --   -0.40602  -0.40181  -0.39907  -0.39660  -0.39421
 Alpha  occ. eigenvalues --   -0.39222  -0.39105  -0.38840  -0.38618  -0.38197
 Alpha  occ. eigenvalues --   -0.38022  -0.37871  -0.36329  -0.36274  -0.36020
 Alpha  occ. eigenvalues --   -0.35766  -0.35063  -0.34942  -0.33752  -0.33226
 Alpha  occ. eigenvalues --   -0.32833  -0.32473  -0.32228  -0.31368  -0.26160
 Alpha  occ. eigenvalues --   -0.23339
 Alpha virt. eigenvalues --   -0.07543   0.00014   0.02035   0.03693   0.04358
 Alpha virt. eigenvalues --    0.07346   0.08127   0.08276   0.09208   0.09742
 Alpha virt. eigenvalues --    0.10173   0.11172   0.11720   0.12024   0.12801

 Mulliken charges:
               1
     1  Mg   0.942075
     2  C   -0.002510
     3  C   -0.097077
     4  C   -0.058845
     5  C   -0.053007
     6  N   -0.368965
     7  C   -0.003134
     8  C   -0.055578
     9  C   -0.102213
    10  C    0.026375
    11  C    0.032730
    12  C   -0.014450
    13  C   -0.030919
    14  C    0.232874
    15  O   -0.264519
    16  O   -0.372746
    17  N   -0.442858
    18  C    0.178259
    19  C   -0.136556
    20  C   -0.046554
    21  C    0.121327
    22  C    0.078502
    23  C   -0.006917
    24  O   -0.241564
    25  C    0.021214
    26  N   -0.246439
    27  C    0.047193
    28  C   -0.085952
    29  C   -0.083290
    30  C   -0.040317
    31  C    0.027925
    32  C    0.015690
    33  C   -0.068821
    34  N   -0.415253
    35  C    0.095702
    36  C   -0.153573
    37  C   -0.030259
    38  C    0.119230
    39  C    0.047210
    40  C    0.139354
    41  O   -0.226161
    42  C   -0.008169
    43  C    0.206426
    44  O   -0.244703
    45  O   -0.358209
    46  C    0.144504
    47  C    0.253217
    48  C   -0.142365
    49  C   -0.216377
    50  C    0.011403
    51  C    0.071478
    52  C   -0.067244
    53  C   -0.007417
    54  C   -0.157910
    55  C   -0.021287
    56  C    0.008166
    57  C   -0.046820
    58  C    0.023717
    59  C   -0.195966
    60  C   -0.014720
    61  C   -0.006451
    62  C   -0.002663
    63  C   -0.021362
    64  C   -0.196802
    65  C   -0.017123
    66  C   -0.009418
    67  H    0.004115
    68  H   -0.033410
    69  H   -0.000751
    70  H    0.042284
    71  H    0.045207
    72  H    0.045922
    73  H    0.052223
    74  H    0.050914
    75  H    0.045030
    76  H    0.046602
    77  H    0.075860
    78  H    0.071905
    79  H    0.018835
    80  H    0.038780
    81  H    0.058182
    82  H    0.065494
    83  H    0.075532
    84  H    0.059523
    85  H    0.033495
    86  H    0.028685
    87  H    0.035191
    88  H    0.042263
    89  H    0.035275
    90  H    0.045995
    91  H    0.043622
    92  H    0.025666
    93  H    0.046566
    94  H    0.026608
    95  H    0.044831
    96  H    0.049933
    97  H    0.049399
    98  H    0.040962
    99  H    0.063496
   100  H    0.052143
   101  H    0.054048
   102  H    0.063435
   103  H    0.057806
   104  H    0.028442
   105  H    0.034644
   106  H    0.055197
   107  H    0.050151
   108  H    0.010256
   109  H    0.011455
   110  H    0.050541
   111  H    0.023493
   112  H    0.022329
   113  H    0.023175
   114  H    0.021911
   115  H    0.036288
   116  H    0.018925
   117  H    0.032858
   118  H    0.015436
   119  H    0.018843
   120  H    0.013883
   121  H    0.013727
   122  H    0.013380
   123  H    0.019007
   124  H    0.027569
   125  H    0.027447
   126  H    0.015379
   127  H    0.033403
   128  H    0.018831
   129  H    0.014361
   130  H    0.025540
   131  H    0.031569
   132  H    0.021923
   133  H    0.010496
   134  H    0.022106
   135  H    0.018983
   136  H    0.024559
   137  H    0.035783
   138  H    0.033756
   139  H    0.024395
   140  H    0.037202
 Sum of Mulliken charges =  -0.00000

 Dipole moment (field-independent basis, Debye):
    X=              1.8310    Y=              6.3687    Z=              1.1499  Tot=              6.7257
 Quadrupole moment (field-independent basis, Debye-Ang):
   XX=           -354.2093   YY=           -437.2556   ZZ=           -403.5060
   XY=             23.9790   XZ=              5.3552   YZ=             33.9218

 Normal termination of Gaussian 16 at Sat Apr 30 07:37:06 2022.
