 Gaussian 16, Revision A.03,
 Gaussian 16:  ES64L-G16RevA.03 25-Dec-2016

 --------------------
 #p ZINDO=(nstates=5)
 --------------------

 -----------------------------
 step_651_chromophore_14 ZINDO
 -----------------------------
 Symbolic Z-matrix:
 Charge =  0 Multiplicity = 1

                         Standard orientation:
 ---------------------------------------------------------------------
 Center     Atomic      Atomic             Coordinates (Angstroms)
 Number     Number       Type             X           Y           Z
 ---------------------------------------------------------------------
      1         12           0        5.337684    0.860325   -0.112152
      2          6           0        4.807383   -2.569359    0.262084
      3          6           0        4.665248    0.653105   -3.459142
      4          6           0        5.004065    4.251003   -0.176004
      5          6           0        5.350163    1.220106    3.506030
      6          7           0        4.864651   -0.772364   -1.474493
      7          6           0        4.690292   -2.118997   -1.041147
      8          6           0        4.308970   -2.986829   -2.219092
      9          6           0        4.495799   -2.016592   -3.442621
     10          6           0        4.653776   -0.626789   -2.777968
     11          6           0        5.779972   -2.213809   -4.306580
     12          6           0        2.908031   -3.660384   -2.209159
     13          6           0        1.718560   -3.018369   -1.352937
     14          6           0        0.284466   -3.304573   -1.909913
     15          8           0        0.067234   -4.010030   -2.885980
     16          8           0       -0.619404   -2.447345   -1.321230
     17          7           0        4.868693    2.254392   -1.663820
     18          6           0        4.536821    1.972220   -2.942127
     19          6           0        4.287777    3.129211   -3.622938
     20          6           0        4.391518    4.258489   -2.783435
     21          6           0        4.796410    3.611085   -1.444620
     22          6           0        3.814250    3.060867   -5.092886
     23          6           0        4.087284    5.710282   -3.065418
     24          8           0        3.888895    6.003391   -4.242355
     25          6           0        3.951499    6.786378   -2.046271
     26          7           0        4.998770    2.523970    1.533421
     27          6           0        5.185771    3.780598    1.110577
     28          6           0        5.412503    4.696891    2.365097
     29          6           0        5.365928    3.788328    3.575853
     30          6           0        5.194235    2.405974    2.817768
     31          6           0        6.640044    5.652458    2.247149
     32          6           0        4.220421    4.081332    4.599516
     33          6           0        4.582828    3.886620    6.061799
     34          7           0        5.156826   -0.380678    1.608666
     35          6           0        5.248707   -0.148426    2.959925
     36          6           0        5.288988   -1.451465    3.698090
     37          6           0        5.115900   -2.396682    2.642730
     38          6           0        5.017508   -1.712405    1.430731
     39          6           0        5.496803   -1.626789    5.050430
     40          6           0        4.965798   -3.820903    2.356748
     41          8           0        4.979470   -4.818285    3.100347
     42          6           0        4.910766   -3.955804    0.828114
     43          6           0        6.080476   -4.663407    0.357893
     44          8           0        6.062427   -5.754338   -0.181161
     45          8           0        7.232959   -4.022289    0.623889
     46          6           0        8.515677   -4.705069    0.451297
     47          6           0       -1.947296   -2.426051   -1.986310
     48          6           0       -2.672010   -1.555026   -0.927244
     49          6           0       -3.763282   -0.840196   -1.065719
     50          6           0       -4.568377   -0.663227   -2.394041
     51          6           0       -4.348314   -0.072929    0.054613
     52          6           0       -5.662105   -0.682368    0.658076
     53          6           0       -6.876635    0.297801    0.830516
     54          6           0       -8.247645   -0.488122    0.977091
     55          6           0       -8.187755   -1.691425    1.983677
     56          6           0       -8.645163   -1.169177   -0.357437
     57          6           0      -10.092039   -0.816278   -0.771004
     58          6           0      -11.198348   -1.698782   -0.040729
     59          6           0      -11.919173   -0.726205    0.991301
     60          6           0      -11.472139   -1.153210    2.388411
     61          6           0      -13.500659   -0.847342    0.849821
     62          6           0      -14.249839    0.428733    1.278108
     63          6           0      -15.421435    0.712588    0.258102
     64          6           0      -15.948902    2.206334    0.078221
     65          6           0      -17.487378    2.226013    0.122375
     66          6           0      -15.499819    2.920820   -1.210385
     67          1           0        4.712505    0.540300   -4.545027
     68          1           0        4.799472    5.317650   -0.285032
     69          1           0        5.677978    1.379076    4.534794
     70          1           0        4.976813   -3.848121   -2.193555
     71          1           0        3.566567   -1.998786   -4.012008
     72          1           0        6.267032   -3.092821   -3.883983
     73          1           0        6.428685   -1.339691   -4.260826
     74          1           0        5.435538   -2.388644   -5.325906
     75          1           0        3.123126   -4.664383   -1.843133
     76          1           0        2.589433   -3.806737   -3.241064
     77          1           0        1.708605   -1.929224   -1.391958
     78          1           0        1.781413   -3.458038   -0.357274
     79          1           0        4.021548    2.119564   -5.600778
     80          1           0        4.380540    3.708235   -5.761748
     81          1           0        2.806948    3.438499   -5.266793
     82          1           0        4.941040    6.862071   -1.596115
     83          1           0        3.170408    6.502289   -1.340020
     84          1           0        3.785673    7.695246   -2.625324
     85          1           0        4.531098    5.335188    2.432242
     86          1           0        6.346398    3.709942    4.045893
     87          1           0        6.380879    6.678956    1.986078
     88          1           0        7.309973    5.267839    1.479331
     89          1           0        7.058541    5.689651    3.252495
     90          1           0        3.504401    3.334859    4.254815
     91          1           0        3.789872    5.082702    4.614892
     92          1           0        5.605201    3.581043    6.281868
     93          1           0        3.850225    3.239783    6.543692
     94          1           0        4.612803    4.804044    6.649210
     95          1           0        4.632385   -1.226280    5.579720
     96          1           0        6.418823   -1.126177    5.344463
     97          1           0        5.515459   -2.639674    5.453469
     98          1           0        4.134227   -4.593614    0.408314
     99          1           0        8.371742   -5.736648    0.773303
    100          1           0        9.241353   -4.247788    1.124063
    101          1           0        8.939781   -4.655564   -0.551715
    102          1           0       -2.381449   -3.425870   -2.016859
    103          1           0       -1.998929   -2.048855   -3.007374
    104          1           0       -2.199124   -1.456816    0.049177
    105          1           0       -4.388685   -1.556952   -2.991143
    106          1           0       -4.035532    0.152233   -2.884464
    107          1           0       -5.635896   -0.465720   -2.293690
    108          1           0       -4.525017    0.934553   -0.320068
    109          1           0       -3.591826    0.092802    0.820557
    110          1           0       -5.453537   -1.132283    1.628855
    111          1           0       -5.989112   -1.293844   -0.182717
    112          1           0       -6.938084    1.009213    0.006583
    113          1           0       -6.596694    0.856441    1.723070
    114          1           0       -9.045572    0.217976    1.207842
    115          1           0       -9.079623   -2.300636    2.132767
    116          1           0       -7.810198   -1.345261    2.944702
    117          1           0       -7.374059   -2.335224    1.650837
    118          1           0       -8.698083   -2.248583   -0.214200
    119          1           0       -7.926207   -0.965792   -1.151216
    120          1           0      -10.282764   -0.873709   -1.842539
    121          1           0      -10.269006    0.236095   -0.550647
    122          1           0      -10.675021   -2.569502    0.355092
    123          1           0      -11.922683   -2.113276   -0.740817
    124          1           0      -11.596489    0.313391    1.044265
    125          1           0      -11.361721   -2.219284    2.588876
    126          1           0      -12.263554   -0.826920    3.062727
    127          1           0      -10.501938   -0.701190    2.594585
    128          1           0      -13.813815   -1.729385    1.407070
    129          1           0      -13.697666   -1.079314   -0.196882
    130          1           0      -13.518069    1.230294    1.373892
    131          1           0      -14.700358    0.174990    2.237741
    132          1           0      -16.190184   -0.004630    0.545098
    133          1           0      -15.171415    0.440989   -0.767771
    134          1           0      -15.557802    2.834254    0.878336
    135          1           0      -17.882906    1.291896    0.519399
    136          1           0      -17.947871    2.260694   -0.864601
    137          1           0      -17.826930    3.068545    0.725411
    138          1           0      -15.671034    2.217450   -2.025517
    139          1           0      -14.440974    3.177019   -1.207190
    140          1           0      -16.022059    3.878024   -1.226329
 ---------------------------------------------------------------------

 SCF Done:  E(RZINDO/S) =  -474.185828866     A.U. after   19 cycles

 Excitation energies and oscillator strengths:

 Excited State   1:      Singlet-A      1.3062 eV  949.17 nm  f=0.5415  <S**2>=0.000
     175 ->178         0.16079
     176 ->177         0.67120
 This state for optimization and/or second-order correction.
 Total Energy, E(CIS/TDA) =  -474.137825279
 Copying the excited state density for this state as the 1-particle RhoCI density.

 Excited State   2:      Singlet-A      1.9196 eV  645.88 nm  f=0.0746  <S**2>=0.000
     175 ->177         0.56149
     176 ->178        -0.38455

 Excited State   3:      Singlet-A      2.8156 eV  440.35 nm  f=0.0577  <S**2>=0.000
     176 ->178         0.16287
     176 ->179         0.46051
     176 ->180         0.48466

 Excited State   4:      Singlet-A      2.8793 eV  430.60 nm  f=0.0008  <S**2>=0.000
     167 ->177         0.10999
     167 ->179        -0.12146
     167 ->181        -0.12492
     168 ->177         0.33118
     168 ->178        -0.21564
     168 ->179        -0.30112
     168 ->180         0.11645
     168 ->181        -0.29975
     168 ->184        -0.12208
     168 ->185        -0.17637

 Excited State   5:      Singlet-A      2.9667 eV  417.92 nm  f=0.9920  <S**2>=0.000
     175 ->177         0.35537
     176 ->178         0.51295
     176 ->179        -0.22794

 The electronic state is 1-A.
 Alpha  occ. eigenvalues --   -1.83490  -1.81766  -1.80836  -1.74118  -1.72124
 Alpha  occ. eigenvalues --   -1.70994  -1.66532  -1.61103  -1.59470  -1.56933
 Alpha  occ. eigenvalues --   -1.55292  -1.50850  -1.48507  -1.47593  -1.46128
 Alpha  occ. eigenvalues --   -1.46061  -1.42124  -1.40719  -1.38756  -1.38148
 Alpha  occ. eigenvalues --   -1.36134  -1.35446  -1.31029  -1.30343  -1.29389
 Alpha  occ. eigenvalues --   -1.27438  -1.26969  -1.22888  -1.21160  -1.18140
 Alpha  occ. eigenvalues --   -1.16161  -1.15227  -1.14509  -1.14136  -1.13427
 Alpha  occ. eigenvalues --   -1.11509  -1.09992  -1.09220  -1.06617  -1.04743
 Alpha  occ. eigenvalues --   -1.03105  -1.02038  -1.00205  -0.97560  -0.97398
 Alpha  occ. eigenvalues --   -0.97186  -0.95149  -0.93392  -0.92405  -0.91762
 Alpha  occ. eigenvalues --   -0.91027  -0.90846  -0.89855  -0.87801  -0.86639
 Alpha  occ. eigenvalues --   -0.85036  -0.83883  -0.83785  -0.82957  -0.81178
 Alpha  occ. eigenvalues --   -0.80533  -0.78315  -0.77963  -0.76997  -0.76809
 Alpha  occ. eigenvalues --   -0.76156  -0.74818  -0.74275  -0.73860  -0.73569
 Alpha  occ. eigenvalues --   -0.72861  -0.72713  -0.71958  -0.70896  -0.70651
 Alpha  occ. eigenvalues --   -0.69848  -0.69560  -0.69237  -0.67937  -0.67527
 Alpha  occ. eigenvalues --   -0.67324  -0.66801  -0.66685  -0.66644  -0.65966
 Alpha  occ. eigenvalues --   -0.65696  -0.64901  -0.64617  -0.64239  -0.64029
 Alpha  occ. eigenvalues --   -0.63416  -0.63186  -0.62725  -0.62598  -0.62366
 Alpha  occ. eigenvalues --   -0.62148  -0.61577  -0.61314  -0.60558  -0.60245
 Alpha  occ. eigenvalues --   -0.60084  -0.59364  -0.58870  -0.58753  -0.58108
 Alpha  occ. eigenvalues --   -0.57965  -0.57724  -0.57353  -0.57083  -0.56923
 Alpha  occ. eigenvalues --   -0.56634  -0.56313  -0.55126  -0.54543  -0.54436
 Alpha  occ. eigenvalues --   -0.54300  -0.53960  -0.53777  -0.53592  -0.52940
 Alpha  occ. eigenvalues --   -0.52537  -0.52435  -0.51995  -0.51868  -0.51160
 Alpha  occ. eigenvalues --   -0.50892  -0.50717  -0.50621  -0.50135  -0.49943
 Alpha  occ. eigenvalues --   -0.49658  -0.49375  -0.49284  -0.49050  -0.48776
 Alpha  occ. eigenvalues --   -0.48508  -0.48471  -0.48355  -0.48203  -0.48065
 Alpha  occ. eigenvalues --   -0.47934  -0.47489  -0.47164  -0.46814  -0.46514
 Alpha  occ. eigenvalues --   -0.46452  -0.46302  -0.45905  -0.45860  -0.45618
 Alpha  occ. eigenvalues --   -0.45519  -0.45225  -0.45136  -0.44298  -0.44071
 Alpha  occ. eigenvalues --   -0.43861  -0.43694  -0.42654  -0.42416  -0.42358
 Alpha  occ. eigenvalues --   -0.42163  -0.41238  -0.41056  -0.38890  -0.38709
 Alpha  occ. eigenvalues --   -0.37750  -0.37285  -0.36240  -0.34685  -0.34579
 Alpha  occ. eigenvalues --   -0.34163  -0.32795  -0.32726  -0.31442  -0.27057
 Alpha  occ. eigenvalues --   -0.22333
 Alpha virt. eigenvalues --   -0.08899  -0.02440  -0.01092  -0.00213   0.01155
 Alpha virt. eigenvalues --    0.01742   0.02890   0.03603   0.04133   0.05571
 Alpha virt. eigenvalues --    0.05750   0.06158   0.07037   0.07571   0.07792

 Mulliken charges:
               1
     1  Mg   0.446202
     2  C   -0.034762
     3  C   -0.102778
     4  C   -0.095014
     5  C   -0.072487
     6  N   -0.289509
     7  C    0.078585
     8  C    0.002579
     9  C    0.005832
    10  C    0.186924
    11  C   -0.045937
    12  C   -0.028790
    13  C    0.002059
    14  C    0.452080
    15  O   -0.512548
    16  O   -0.266639
    17  N   -0.335130
    18  C    0.156419
    19  C    0.064884
    20  C   -0.038122
    21  C    0.126953
    22  C   -0.052161
    23  C    0.332166
    24  O   -0.523291
    25  C   -0.023676
    26  N   -0.264209
    27  C    0.160118
    28  C    0.003587
    29  C   -0.002568
    30  C    0.099616
    31  C   -0.054508
    32  C   -0.027624
    33  C   -0.060353
    34  N   -0.307879
    35  C    0.042654
    36  C    0.025874
    37  C   -0.071840
    38  C    0.080577
    39  C   -0.021805
    40  C    0.333596
    41  O   -0.535564
    42  C    0.067542
    43  C    0.503184
    44  O   -0.538458
    45  O   -0.273595
    46  C    0.078358
    47  C    0.103891
    48  C   -0.095328
    49  C   -0.002923
    50  C   -0.052315
    51  C   -0.023878
    52  C   -0.041077
    53  C   -0.037033
    54  C   -0.011890
    55  C   -0.059373
    56  C   -0.034561
    57  C   -0.045210
    58  C   -0.040365
    59  C   -0.022858
    60  C   -0.064155
    61  C   -0.040454
    62  C   -0.034957
    63  C   -0.042223
    64  C   -0.013976
    65  C   -0.056840
    66  C   -0.055134
    67  H    0.025953
    68  H    0.021969
    69  H    0.026117
    70  H    0.038179
    71  H    0.036761
    72  H    0.031462
    73  H    0.032486
    74  H    0.025609
    75  H    0.025998
    76  H    0.032654
    77  H    0.048015
    78  H    0.051306
    79  H    0.024163
    80  H    0.028874
    81  H    0.043400
    82  H    0.039847
    83  H    0.047940
    84  H    0.044917
    85  H    0.023522
    86  H    0.030364
    87  H    0.019396
    88  H    0.027590
    89  H    0.023486
    90  H    0.028208
    91  H    0.027018
    92  H    0.020180
    93  H    0.021704
    94  H    0.011478
    95  H    0.026925
    96  H    0.029075
    97  H    0.028010
    98  H    0.054805
    99  H    0.049980
   100  H    0.029808
   101  H    0.042207
   102  H    0.052227
   103  H    0.057587
   104  H    0.035414
   105  H    0.019330
   106  H    0.028780
   107  H    0.033638
   108  H    0.016107
   109  H    0.012646
   110  H    0.037644
   111  H    0.028869
   112  H    0.021294
   113  H    0.013397
   114  H    0.026927
   115  H    0.033767
   116  H    0.004612
   117  H    0.015703
   118  H    0.018820
   119  H    0.018953
   120  H    0.010482
   121  H    0.014802
   122  H    0.027661
   123  H    0.019200
   124  H    0.037137
   125  H    0.016604
   126  H    0.009432
   127  H    0.019737
   128  H    0.020578
   129  H    0.015443
   130  H    0.028590
   131  H    0.021430
   132  H    0.020785
   133  H    0.017230
   134  H    0.016893
   135  H    0.014175
   136  H    0.017640
   137  H    0.018853
   138  H    0.026321
   139  H    0.009959
   140  H    0.022045
 Sum of Mulliken charges =  -0.00000

 Dipole moment (field-independent basis, Debye):
    X=              1.6005    Y=              9.9300    Z=             -0.2474  Tot=             10.0612
 N-N= 4.287355459074D+03 E-N= 0.000000000000D+00  KE=-9.248501818831D+03
 Leave Link  601 at Sat Apr 30 07:49:11 2022, MaxMem=  6710886400 cpu:               3.2 elap:               0.2
 (Enter /sw/apps/gaussian-16.0/g16/l9999.exe)
 1\1\GINC-BP1-COMPUTE139\SP\RZINDO CIS\STO-3G\C55H74Mg1N4O6\OF15641\30-
 Apr-2022\0\\#p ZINDO=(nstates=5)\\step_651_chromophore_14 ZINDO\\0,1\M
 g,0,46.504,44.971,42.905\C,0,43.118,44.239,42.477\C,0,47.305,41.654,42
 .674\C,0,49.758,45.869,42.439\C,0,45.766,48.501,42.441\N,0,45.352,43.1
 36,42.679\C,0,43.937,43.124,42.508\C,0,43.46,41.702,42.317\C,0,44.752,
 40.857,42.617\C,0,45.88,41.918,42.63\C,0,44.825,40.154,44.008\C,0,42.8
 11,41.324,40.956\C,0,43.165,42.164,39.641\C,0,43.055,41.36,38.303\O,0,

 Normal termination of Gaussian 16 at Sat Apr 30 07:49:11 2022.
