 Gaussian 16, Revision A.03,
 Gaussian 16:  ES64L-G16RevA.03 25-Dec-2016

 ------------------------------
 #p blyp/Def2SVP td=(nstates=5)
 ------------------------------

 --------------------------------------------------
 step_651_chromophore_22 TDDFT with blyp functional
 --------------------------------------------------
 Symbolic Z-matrix:
 Charge =  0 Multiplicity = 1

                         Standard orientation:
 ---------------------------------------------------------------------
 Center     Atomic      Atomic             Coordinates (Angstroms)
 Number     Number       Type             X           Y           Z
 ---------------------------------------------------------------------
      1         12           0       -6.103357    0.411116   -0.082625
      2          6           0       -3.616495   -1.865833    0.869687
      3          6           0       -4.153650    2.935607    1.144664
      4          6           0       -8.727736    2.641674   -0.462015
      5          6           0       -8.452629   -2.325434   -0.235084
      6          7           0       -4.123930    0.493782    0.952195
      7          6           0       -3.201123   -0.545209    1.140669
      8          6           0       -1.882839    0.028509    1.664444
      9          6           0       -2.358560    1.426936    2.258735
     10          6           0       -3.579650    1.699412    1.389263
     11          6           0       -2.735511    1.464665    3.805801
     12          6           0       -0.748688    0.164373    0.541656
     13          6           0        0.627634   -0.428097    0.761690
     14          6           0        1.346898   -0.865290   -0.534611
     15          8           0        0.939026   -0.815334   -1.689420
     16          8           0        2.633835   -1.239986   -0.144527
     17          7           0       -6.244502    2.519729   -0.154987
     18          6           0       -5.320904    3.343001    0.417449
     19          6           0       -5.778866    4.703115    0.337624
     20          6           0       -7.101274    4.645881   -0.177680
     21          6           0       -7.438442    3.205362   -0.258739
     22          6           0       -4.996286    5.922126    0.680934
     23          6           0       -8.088768    5.801517   -0.512139
     24          8           0       -9.095897    5.581100   -1.166954
     25          6           0       -7.777035    7.222939   -0.135592
     26          7           0       -8.281257    0.187238   -0.337517
     27          6           0       -9.122867    1.291080   -0.609397
     28          6           0      -10.509430    0.786264   -0.791368
     29          6           0      -10.368282   -0.735928   -0.953378
     30          6           0       -8.924248   -0.986467   -0.413455
     31          6           0      -11.455044    1.211550    0.363944
     32          6           0      -10.512402   -1.243905   -2.435416
     33          6           0      -11.784083   -2.000415   -2.837798
     34          7           0       -6.135059   -1.650646    0.237956
     35          6           0       -7.123338   -2.634274    0.127997
     36          6           0       -6.478987   -3.908816    0.334462
     37          6           0       -5.126961   -3.660557    0.614182
     38          6           0       -4.990124   -2.318701    0.578203
     39          6           0       -7.200186   -5.232126    0.480032
     40          6           0       -3.831314   -4.300998    0.905465
     41          8           0       -3.593351   -5.466851    1.077031
     42          6           0       -2.762315   -3.113945    0.960302
     43          6           0       -1.697062   -3.238823   -0.103361
     44          8           0       -1.657664   -2.659173   -1.146440
     45          8           0       -0.834076   -4.256127    0.188825
     46          6           0        0.147763   -4.583379   -0.832192
     47          6           0        3.565477   -1.397434   -1.289659
     48          6           0        4.949140   -1.360657   -0.755795
     49          6           0        5.673160   -2.224953    0.006663
     50          6           0        5.107299   -3.479012    0.719126
     51          6           0        7.139478   -1.889776    0.436395
     52          6           0        8.163999   -1.835915   -0.804295
     53          6           0        8.665333   -0.430508   -1.187898
     54          6           0       10.045355   -0.105843   -0.523201
     55          6           0        9.892015    0.179185    0.981831
     56          6           0       10.721318    1.080398   -1.255843
     57          6           0       12.015047    0.611791   -2.006931
     58          6           0       12.876593    1.757565   -2.485183
     59          6           0       14.395981    1.459741   -2.120368
     60          6           0       15.319681    1.724310   -3.333576
     61          6           0       14.718367    2.217973   -0.824867
     62          6           0       15.608741    1.477176    0.230779
     63          6           0       15.101755    1.725959    1.668506
     64          6           0       13.814021    0.873686    1.999438
     65          6           0       12.956824    1.695257    3.060181
     66          6           0       14.034545   -0.639357    2.336945
     67          1           0       -3.660383    3.775821    1.639084
     68          1           0       -9.505544    3.387280   -0.283112
     69          1           0       -9.282787   -2.958606   -0.554704
     70          1           0       -1.395667   -0.508107    2.478529
     71          1           0       -1.592697    2.147436    1.970044
     72          1           0       -2.123210    2.168429    4.370124
     73          1           0       -2.736328    0.477735    4.270657
     74          1           0       -3.734998    1.885095    3.915241
     75          1           0       -0.589916    1.240284    0.468608
     76          1           0       -1.066456   -0.138983   -0.456034
     77          1           0        0.599266   -1.306339    1.405965
     78          1           0        1.266303    0.381386    1.114887
     79          1           0       -3.979504    5.760934    1.039103
     80          1           0       -5.514284    6.484376    1.457293
     81          1           0       -4.875822    6.491895   -0.240204
     82          1           0       -7.625911    7.169810    0.942437
     83          1           0       -8.652774    7.835528   -0.351375
     84          1           0       -6.960638    7.750104   -0.628775
     85          1           0      -10.968144    1.279173   -1.648300
     86          1           0      -11.160447   -1.212544   -0.375563
     87          1           0      -11.108107    0.498650    1.112820
     88          1           0      -12.525089    1.091934    0.198025
     89          1           0      -11.094964    2.200266    0.649374
     90          1           0       -9.717555   -1.904899   -2.781123
     91          1           0      -10.417839   -0.329276   -3.019257
     92          1           0      -11.569763   -2.655468   -3.682584
     93          1           0      -12.593283   -1.308094   -3.069246
     94          1           0      -12.004133   -2.595622   -1.951811
     95          1           0       -7.066204   -5.670144    1.468915
     96          1           0       -6.882788   -5.906509   -0.315691
     97          1           0       -8.263779   -5.059346    0.316821
     98          1           0       -2.279561   -3.173871    1.936354
     99          1           0        1.016280   -5.001390   -0.323692
    100          1           0        0.424745   -3.735827   -1.458814
    101          1           0       -0.214717   -5.344301   -1.523067
    102          1           0        3.412942   -0.723516   -2.132356
    103          1           0        3.335962   -2.391487   -1.673137
    104          1           0        5.564232   -0.514743   -1.065023
    105          1           0        5.612983   -4.405284    0.447808
    106          1           0        4.049176   -3.569739    0.472750
    107          1           0        5.294490   -3.410087    1.790990
    108          1           0        7.469556   -2.651817    1.141488
    109          1           0        7.055090   -0.922094    0.931422
    110          1           0        7.704477   -2.209193   -1.718759
    111          1           0        9.000942   -2.475835   -0.521520
    112          1           0        8.003920    0.379863   -0.881341
    113          1           0        8.864447   -0.261464   -2.246164
    114          1           0       10.605620   -1.000105   -0.798155
    115          1           0       10.465689   -0.514906    1.596939
    116          1           0        8.852307    0.088122    1.294946
    117          1           0       10.279465    1.114064    1.387313
    118          1           0       10.838313    1.952651   -0.612576
    119          1           0       10.237645    1.534447   -2.121080
    120          1           0       11.621311    0.214859   -2.943519
    121          1           0       12.606873   -0.124438   -1.461972
    122          1           0       12.559478    2.704300   -2.047649
    123          1           0       12.711623    1.799709   -3.561950
    124          1           0       14.618019    0.423257   -1.869064
    125          1           0       16.269243    2.175047   -3.045474
    126          1           0       14.844399    2.505682   -3.926342
    127          1           0       15.358556    0.897347   -4.042747
    128          1           0       13.843065    2.622404   -0.316352
    129          1           0       15.273917    3.074073   -1.205830
    130          1           0       16.599327    1.933105    0.220299
    131          1           0       15.690853    0.406165    0.046562
    132          1           0       14.959443    2.800893    1.778678
    133          1           0       15.885182    1.296279    2.293944
    134          1           0       13.284672    0.753820    1.054054
    135          1           0       13.479783    2.578813    3.427280
    136          1           0       12.747530    1.025493    3.894605
    137          1           0       11.955212    1.949996    2.712868
    138          1           0       15.097747   -0.733688    2.555100
    139          1           0       13.723295   -1.142154    1.421089
    140          1           0       13.430491   -1.002225    3.168444
 ---------------------------------------------------------------------

 SCF Done:  E(RB-LYP) =  -3007.38395193     A.U. after   20 cycles

 Excitation energies and oscillator strengths:

 Excited State   1:      Singlet-A      1.7863 eV  694.07 nm  f=0.2621  <S**2>=0.000
     245 -> 248        0.20069
     246 -> 247        0.68140
     246 <- 247       -0.14442
 This state for optimization and/or second-order correction.
 Total Energy, E(TD-HF/TD-DFT) =  -3007.31830532
 Copying the excited state density for this state as the 1-particle RhoCI density.

 Excited State   2:      Singlet-A      1.9455 eV  637.30 nm  f=0.0621  <S**2>=0.000
     243 -> 247        0.13900
     244 -> 247       -0.28892
     245 -> 247        0.58605
     246 -> 248       -0.20562

 Excited State   3:      Singlet-A      2.0704 eV  598.84 nm  f=0.0127  <S**2>=0.000
     243 -> 247        0.18886
     244 -> 247        0.63015
     245 -> 247        0.21927

 Excited State   4:      Singlet-A      2.1545 eV  575.46 nm  f=0.0091  <S**2>=0.000
     243 -> 247        0.66356
     244 -> 247       -0.11332
     245 -> 247       -0.16220
     246 -> 248        0.10723

 Excited State   5:      Singlet-A      2.4844 eV  499.06 nm  f=0.0006  <S**2>=0.000
     240 -> 247        0.66757
     241 -> 247        0.11067
     242 -> 247       -0.20305

 The electronic state is 1-A.
 Alpha  occ. eigenvalues --  -46.27309 -18.81709 -18.81206 -18.77545 -18.76186
 Alpha  occ. eigenvalues --  -18.76127 -18.75715 -14.02921 -14.02777 -14.01074
 Alpha  occ. eigenvalues --  -14.00444 -10.04116 -10.03288 -10.00198 -10.00082
 Alpha  occ. eigenvalues --   -9.97712  -9.96792  -9.96639  -9.96405  -9.96217
 Alpha  occ. eigenvalues --   -9.96141  -9.96002  -9.95698  -9.95377  -9.94733
 Alpha  occ. eigenvalues --   -9.94535  -9.94301  -9.93965  -9.93826  -9.93691
 Alpha  occ. eigenvalues --   -9.93640  -9.93470  -9.93333  -9.93063  -9.93039
 Alpha  occ. eigenvalues --   -9.93006  -9.92985  -9.92923  -9.92878  -9.92790
 Alpha  occ. eigenvalues --   -9.92688  -9.92654  -9.92347  -9.92306  -9.92184
 Alpha  occ. eigenvalues --   -9.92133  -9.92116  -9.92065  -9.92031  -9.92025
 Alpha  occ. eigenvalues --   -9.91773  -9.91721  -9.91658  -9.91630  -9.91328
 Alpha  occ. eigenvalues --   -9.91287  -9.91269  -9.91087  -9.91038  -9.90923
 Alpha  occ. eigenvalues --   -9.90832  -9.90821  -9.90815  -9.90812  -9.90675
 Alpha  occ. eigenvalues --   -9.90303  -2.91743  -1.72175  -1.71617  -1.71460
 Alpha  occ. eigenvalues --   -0.98081  -0.96887  -0.92533  -0.91786  -0.89936
 Alpha  occ. eigenvalues --   -0.89751  -0.85681  -0.85198  -0.84753  -0.83933
 Alpha  occ. eigenvalues --   -0.74717  -0.73310  -0.72651  -0.72001  -0.71791
 Alpha  occ. eigenvalues --   -0.71503  -0.71426  -0.70480  -0.70429  -0.70129
 Alpha  occ. eigenvalues --   -0.68964  -0.68784  -0.67748  -0.67462  -0.66948
 Alpha  occ. eigenvalues --   -0.66134  -0.65629  -0.65085  -0.64868  -0.64206
 Alpha  occ. eigenvalues --   -0.63943  -0.62248  -0.62152  -0.61248  -0.60558
 Alpha  occ. eigenvalues --   -0.60458  -0.60203  -0.59597  -0.59477  -0.58958
 Alpha  occ. eigenvalues --   -0.57995  -0.57332  -0.56533  -0.55145  -0.53676
 Alpha  occ. eigenvalues --   -0.53444  -0.53367  -0.52496  -0.52372  -0.50847
 Alpha  occ. eigenvalues --   -0.50815  -0.50615  -0.50406  -0.50008  -0.49843
 Alpha  occ. eigenvalues --   -0.49097  -0.48938  -0.48179  -0.48144  -0.46213
 Alpha  occ. eigenvalues --   -0.45965  -0.45567  -0.45496  -0.44808  -0.44504
 Alpha  occ. eigenvalues --   -0.43915  -0.43481  -0.42807  -0.42716  -0.41985
 Alpha  occ. eigenvalues --   -0.41813  -0.41553  -0.41517  -0.41010  -0.40757
 Alpha  occ. eigenvalues --   -0.40643  -0.40300  -0.40154  -0.40067  -0.39898
 Alpha  occ. eigenvalues --   -0.39752  -0.39505  -0.39397  -0.39253  -0.39136
 Alpha  occ. eigenvalues --   -0.38842  -0.38512  -0.38463  -0.38277  -0.38049
 Alpha  occ. eigenvalues --   -0.37975  -0.37932  -0.37800  -0.37345  -0.37050
 Alpha  occ. eigenvalues --   -0.36755  -0.36643  -0.36574  -0.36349  -0.36245
 Alpha  occ. eigenvalues --   -0.36182  -0.35894  -0.35809  -0.35703  -0.35328
 Alpha  occ. eigenvalues --   -0.35191  -0.35052  -0.34856  -0.34797  -0.34429
 Alpha  occ. eigenvalues --   -0.34328  -0.34234  -0.34134  -0.33959  -0.33819
 Alpha  occ. eigenvalues --   -0.33713  -0.33514  -0.33285  -0.32953  -0.32785
 Alpha  occ. eigenvalues --   -0.32723  -0.32623  -0.32514  -0.32385  -0.31950
 Alpha  occ. eigenvalues --   -0.31908  -0.31780  -0.31737  -0.31694  -0.31357
 Alpha  occ. eigenvalues --   -0.31095  -0.31039  -0.30898  -0.30572  -0.30494
 Alpha  occ. eigenvalues --   -0.30296  -0.30233  -0.29914  -0.29825  -0.29569
 Alpha  occ. eigenvalues --   -0.29252  -0.29154  -0.29121  -0.29031  -0.28961
 Alpha  occ. eigenvalues --   -0.28875  -0.28457  -0.28386  -0.28124  -0.27847
 Alpha  occ. eigenvalues --   -0.27751  -0.27608  -0.27069  -0.26722  -0.26246
 Alpha  occ. eigenvalues --   -0.26235  -0.25727  -0.25520  -0.25445  -0.25274
 Alpha  occ. eigenvalues --   -0.24763  -0.24357  -0.24154  -0.23511  -0.23097
 Alpha  occ. eigenvalues --   -0.22769  -0.22552  -0.21824  -0.21593  -0.20460
 Alpha  occ. eigenvalues --   -0.20201  -0.19994  -0.19085  -0.18751  -0.16806
 Alpha  occ. eigenvalues --   -0.15592
 Alpha virt. eigenvalues --   -0.11323  -0.07120  -0.05499  -0.04603  -0.03814
 Alpha virt. eigenvalues --   -0.02374  -0.02151  -0.01783  -0.01322  -0.00293
 Alpha virt. eigenvalues --    0.01035   0.01601   0.01689   0.02421   0.02946

 Mulliken charges:
               1
     1  Mg   0.693623
     2  C   -0.021892
     3  C   -0.045158
     4  C   -0.022179
     5  C   -0.047935
     6  N   -0.249706
     7  C    0.003132
     8  C    0.001637
     9  C    0.014681
    10  C    0.012929
    11  C    0.144070
    12  C    0.109650
    13  C    0.106495
    14  C    0.092245
    15  O   -0.181314
    16  O   -0.293365
    17  N   -0.284766
    18  C    0.135618
    19  C   -0.156316
    20  C    0.024362
    21  C    0.061806
    22  C    0.184099
    23  C   -0.066592
    24  O   -0.165750
    25  C    0.129447
    26  N   -0.220469
    27  C    0.037832
    28  C    0.017336
    29  C    0.021490
    30  C   -0.038583
    31  C    0.126294
    32  C    0.060501
    33  C    0.076139
    34  N   -0.279599
    35  C    0.189799
    36  C   -0.213205
    37  C    0.095507
    38  C    0.102488
    39  C    0.176736
    40  C   -0.051108
    41  O   -0.091512
    42  C    0.033835
    43  C    0.097941
    44  O   -0.146263
    45  O   -0.262843
    46  C    0.196771
    47  C    0.334859
    48  C   -0.094035
    49  C   -0.159562
    50  C    0.130550
    51  C    0.115465
    52  C    0.108451
    53  C    0.048696
    54  C   -0.046881
    55  C    0.125800
    56  C    0.073266
    57  C    0.030776
    58  C    0.124533
    59  C   -0.091499
    60  C    0.120737
    61  C    0.095745
    62  C    0.065271
    63  C    0.082944
    64  C   -0.127100
    65  C    0.103683
    66  C    0.102222
    67  H   -0.075749
    68  H   -0.026719
    69  H   -0.054476
    70  H   -0.042736
    71  H   -0.040081
    72  H   -0.006496
    73  H    0.003606
    74  H   -0.008013
    75  H   -0.038076
    76  H    0.020220
    77  H    0.012532
    78  H    0.005978
    79  H   -0.018287
    80  H   -0.000934
    81  H    0.008371
    82  H    0.000089
    83  H   -0.010824
    84  H    0.017925
    85  H   -0.024058
    86  H   -0.038778
    87  H   -0.017686
    88  H    0.006211
    89  H   -0.010390
    90  H   -0.017155
    91  H   -0.026707
    92  H   -0.003118
    93  H   -0.002313
    94  H   -0.012571
    95  H    0.015244
    96  H    0.001759
    97  H   -0.029849
    98  H   -0.003160
    99  H    0.010103
   100  H    0.031879
   101  H    0.008493
   102  H    0.002789
   103  H   -0.016195
   104  H   -0.040083
   105  H   -0.008682
   106  H   -0.004609
   107  H    0.001416
   108  H   -0.036680
   109  H    0.011292
   110  H   -0.016241
   111  H   -0.026325
   112  H   -0.028785
   113  H   -0.036360
   114  H   -0.035295
   115  H   -0.023061
   116  H   -0.029298
   117  H   -0.014721
   118  H   -0.035719
   119  H   -0.043085
   120  H   -0.032714
   121  H   -0.006894
   122  H   -0.027512
   123  H   -0.045235
   124  H   -0.034516
   125  H   -0.020890
   126  H   -0.033415
   127  H   -0.011407
   128  H   -0.019428
   129  H   -0.047017
   130  H   -0.034254
   131  H   -0.029705
   132  H   -0.019223
   133  H   -0.033263
   134  H   -0.026182
   135  H   -0.009351
   136  H   -0.030693
   137  H   -0.014033
   138  H   -0.014150
   139  H   -0.007542
   140  H   -0.008999
 Sum of Mulliken charges =  -0.00000

 Dipole moment (field-independent basis, Debye):
    X=              2.7779    Y=              2.4999    Z=              2.3857  Tot=              4.4337
 Quadrupole moment (field-independent basis, Debye-Ang):
   XX=           -383.5219   YY=           -409.4844   ZZ=           -405.8674
   XY=             -0.4159   XZ=             -6.0545   YZ=             15.8371

 Normal termination of Gaussian 16 at Sat Apr 30 08:33:25 2022.
