 Gaussian 16, Revision A.03,
 Gaussian 16:  ES64L-G16RevA.03 25-Dec-2016

 -----------------------------------
 #p cam-b3lyp/Def2SVP td=(nstates=5)
 -----------------------------------

 -------------------------------------------------------
 step_651_chromophore_22 TDDFT with cam-b3lyp functional
 -------------------------------------------------------
 Symbolic Z-matrix:
 Charge =  0 Multiplicity = 1

                         Standard orientation:
 ---------------------------------------------------------------------
 Center     Atomic      Atomic             Coordinates (Angstroms)
 Number     Number       Type             X           Y           Z
 ---------------------------------------------------------------------
      1         12           0       -6.103357    0.411116   -0.082625
      2          6           0       -3.616495   -1.865833    0.869687
      3          6           0       -4.153650    2.935607    1.144664
      4          6           0       -8.727736    2.641674   -0.462015
      5          6           0       -8.452629   -2.325434   -0.235084
      6          7           0       -4.123930    0.493782    0.952195
      7          6           0       -3.201123   -0.545209    1.140669
      8          6           0       -1.882839    0.028509    1.664444
      9          6           0       -2.358560    1.426936    2.258735
     10          6           0       -3.579650    1.699412    1.389263
     11          6           0       -2.735511    1.464665    3.805801
     12          6           0       -0.748688    0.164373    0.541656
     13          6           0        0.627634   -0.428097    0.761690
     14          6           0        1.346898   -0.865290   -0.534611
     15          8           0        0.939026   -0.815334   -1.689420
     16          8           0        2.633835   -1.239986   -0.144527
     17          7           0       -6.244502    2.519729   -0.154987
     18          6           0       -5.320904    3.343001    0.417449
     19          6           0       -5.778866    4.703115    0.337624
     20          6           0       -7.101274    4.645881   -0.177680
     21          6           0       -7.438442    3.205362   -0.258739
     22          6           0       -4.996286    5.922126    0.680934
     23          6           0       -8.088768    5.801517   -0.512139
     24          8           0       -9.095897    5.581100   -1.166954
     25          6           0       -7.777035    7.222939   -0.135592
     26          7           0       -8.281257    0.187238   -0.337517
     27          6           0       -9.122867    1.291080   -0.609397
     28          6           0      -10.509430    0.786264   -0.791368
     29          6           0      -10.368282   -0.735928   -0.953378
     30          6           0       -8.924248   -0.986467   -0.413455
     31          6           0      -11.455044    1.211550    0.363944
     32          6           0      -10.512402   -1.243905   -2.435416
     33          6           0      -11.784083   -2.000415   -2.837798
     34          7           0       -6.135059   -1.650646    0.237956
     35          6           0       -7.123338   -2.634274    0.127997
     36          6           0       -6.478987   -3.908816    0.334462
     37          6           0       -5.126961   -3.660557    0.614182
     38          6           0       -4.990124   -2.318701    0.578203
     39          6           0       -7.200186   -5.232126    0.480032
     40          6           0       -3.831314   -4.300998    0.905465
     41          8           0       -3.593351   -5.466851    1.077031
     42          6           0       -2.762315   -3.113945    0.960302
     43          6           0       -1.697062   -3.238823   -0.103361
     44          8           0       -1.657664   -2.659173   -1.146440
     45          8           0       -0.834076   -4.256127    0.188825
     46          6           0        0.147763   -4.583379   -0.832192
     47          6           0        3.565477   -1.397434   -1.289659
     48          6           0        4.949140   -1.360657   -0.755795
     49          6           0        5.673160   -2.224953    0.006663
     50          6           0        5.107299   -3.479012    0.719126
     51          6           0        7.139478   -1.889776    0.436395
     52          6           0        8.163999   -1.835915   -0.804295
     53          6           0        8.665333   -0.430508   -1.187898
     54          6           0       10.045355   -0.105843   -0.523201
     55          6           0        9.892015    0.179185    0.981831
     56          6           0       10.721318    1.080398   -1.255843
     57          6           0       12.015047    0.611791   -2.006931
     58          6           0       12.876593    1.757565   -2.485183
     59          6           0       14.395981    1.459741   -2.120368
     60          6           0       15.319681    1.724310   -3.333576
     61          6           0       14.718367    2.217973   -0.824867
     62          6           0       15.608741    1.477176    0.230779
     63          6           0       15.101755    1.725959    1.668506
     64          6           0       13.814021    0.873686    1.999438
     65          6           0       12.956824    1.695257    3.060181
     66          6           0       14.034545   -0.639357    2.336945
     67          1           0       -3.660383    3.775821    1.639084
     68          1           0       -9.505544    3.387280   -0.283112
     69          1           0       -9.282787   -2.958606   -0.554704
     70          1           0       -1.395667   -0.508107    2.478529
     71          1           0       -1.592697    2.147436    1.970044
     72          1           0       -2.123210    2.168429    4.370124
     73          1           0       -2.736328    0.477735    4.270657
     74          1           0       -3.734998    1.885095    3.915241
     75          1           0       -0.589916    1.240284    0.468608
     76          1           0       -1.066456   -0.138983   -0.456034
     77          1           0        0.599266   -1.306339    1.405965
     78          1           0        1.266303    0.381386    1.114887
     79          1           0       -3.979504    5.760934    1.039103
     80          1           0       -5.514284    6.484376    1.457293
     81          1           0       -4.875822    6.491895   -0.240204
     82          1           0       -7.625911    7.169810    0.942437
     83          1           0       -8.652774    7.835528   -0.351375
     84          1           0       -6.960638    7.750104   -0.628775
     85          1           0      -10.968144    1.279173   -1.648300
     86          1           0      -11.160447   -1.212544   -0.375563
     87          1           0      -11.108107    0.498650    1.112820
     88          1           0      -12.525089    1.091934    0.198025
     89          1           0      -11.094964    2.200266    0.649374
     90          1           0       -9.717555   -1.904899   -2.781123
     91          1           0      -10.417839   -0.329276   -3.019257
     92          1           0      -11.569763   -2.655468   -3.682584
     93          1           0      -12.593283   -1.308094   -3.069246
     94          1           0      -12.004133   -2.595622   -1.951811
     95          1           0       -7.066204   -5.670144    1.468915
     96          1           0       -6.882788   -5.906509   -0.315691
     97          1           0       -8.263779   -5.059346    0.316821
     98          1           0       -2.279561   -3.173871    1.936354
     99          1           0        1.016280   -5.001390   -0.323692
    100          1           0        0.424745   -3.735827   -1.458814
    101          1           0       -0.214717   -5.344301   -1.523067
    102          1           0        3.412942   -0.723516   -2.132356
    103          1           0        3.335962   -2.391487   -1.673137
    104          1           0        5.564232   -0.514743   -1.065023
    105          1           0        5.612983   -4.405284    0.447808
    106          1           0        4.049176   -3.569739    0.472750
    107          1           0        5.294490   -3.410087    1.790990
    108          1           0        7.469556   -2.651817    1.141488
    109          1           0        7.055090   -0.922094    0.931422
    110          1           0        7.704477   -2.209193   -1.718759
    111          1           0        9.000942   -2.475835   -0.521520
    112          1           0        8.003920    0.379863   -0.881341
    113          1           0        8.864447   -0.261464   -2.246164
    114          1           0       10.605620   -1.000105   -0.798155
    115          1           0       10.465689   -0.514906    1.596939
    116          1           0        8.852307    0.088122    1.294946
    117          1           0       10.279465    1.114064    1.387313
    118          1           0       10.838313    1.952651   -0.612576
    119          1           0       10.237645    1.534447   -2.121080
    120          1           0       11.621311    0.214859   -2.943519
    121          1           0       12.606873   -0.124438   -1.461972
    122          1           0       12.559478    2.704300   -2.047649
    123          1           0       12.711623    1.799709   -3.561950
    124          1           0       14.618019    0.423257   -1.869064
    125          1           0       16.269243    2.175047   -3.045474
    126          1           0       14.844399    2.505682   -3.926342
    127          1           0       15.358556    0.897347   -4.042747
    128          1           0       13.843065    2.622404   -0.316352
    129          1           0       15.273917    3.074073   -1.205830
    130          1           0       16.599327    1.933105    0.220299
    131          1           0       15.690853    0.406165    0.046562
    132          1           0       14.959443    2.800893    1.778678
    133          1           0       15.885182    1.296279    2.293944
    134          1           0       13.284672    0.753820    1.054054
    135          1           0       13.479783    2.578813    3.427280
    136          1           0       12.747530    1.025493    3.894605
    137          1           0       11.955212    1.949996    2.712868
    138          1           0       15.097747   -0.733688    2.555100
    139          1           0       13.723295   -1.142154    1.421089
    140          1           0       13.430491   -1.002225    3.168444
 ---------------------------------------------------------------------

 SCF Done:  E(RCAM-B3LYP) =  -3007.16864794     A.U. after   16 cycles

 Excitation energies and oscillator strengths:

 Excited State   1:      Singlet-A      1.6764 eV  739.59 nm  f=0.3547  <S**2>=0.000
     245 -> 248       -0.18127
     246 -> 247        0.68252
     245 <- 248       -0.10666
 This state for optimization and/or second-order correction.
 Total Energy, E(TD-HF/TD-DFT) =  -3007.10704141
 Copying the excited state density for this state as the 1-particle RhoCI density.

 Excited State   2:      Singlet-A      2.1602 eV  573.95 nm  f=0.1194  <S**2>=0.000
     245 -> 247        0.63805
     246 -> 248        0.28624

 Excited State   3:      Singlet-A      3.3001 eV  375.70 nm  f=0.0005  <S**2>=0.000
     243 -> 247       -0.12154
     244 -> 247        0.68322

 Excited State   4:      Singlet-A      3.3891 eV  365.84 nm  f=0.2081  <S**2>=0.000
     243 -> 247        0.49092
     245 -> 247        0.15632
     246 -> 248       -0.45987

 Excited State   5:      Singlet-A      3.5108 eV  353.15 nm  f=0.5609  <S**2>=0.000
     243 -> 247        0.45967
     244 -> 247        0.10260
     245 -> 247       -0.25444
     246 -> 248        0.43904

 The electronic state is 1-A.
 Alpha  occ. eigenvalues --  -46.88861 -19.24586 -19.24103 -19.20523 -19.19297
 Alpha  occ. eigenvalues --  -19.19287 -19.19090 -14.41869 -14.41586 -14.39603
 Alpha  occ. eigenvalues --  -14.38734 -10.39475 -10.38695 -10.35519 -10.35352
 Alpha  occ. eigenvalues --  -10.31821 -10.31134 -10.30969 -10.30717 -10.30683
 Alpha  occ. eigenvalues --  -10.30557 -10.30524 -10.30163 -10.29483 -10.28836
 Alpha  occ. eigenvalues --  -10.28591 -10.28558 -10.28303 -10.28111 -10.28026
 Alpha  occ. eigenvalues --  -10.27881 -10.27639 -10.27240 -10.27220 -10.27215
 Alpha  occ. eigenvalues --  -10.27210 -10.27031 -10.26907 -10.26860 -10.26801
 Alpha  occ. eigenvalues --  -10.26741 -10.26652 -10.26280 -10.26083 -10.26004
 Alpha  occ. eigenvalues --  -10.25959 -10.25909 -10.25762 -10.25723 -10.25673
 Alpha  occ. eigenvalues --  -10.25515 -10.25463 -10.25351 -10.25262 -10.25004
 Alpha  occ. eigenvalues --  -10.24983 -10.24888 -10.24767 -10.24644 -10.24567
 Alpha  occ. eigenvalues --  -10.24522 -10.24495 -10.24482 -10.24474 -10.24273
 Alpha  occ. eigenvalues --  -10.24233  -3.17189  -1.92101  -1.91627  -1.91495
 Alpha  occ. eigenvalues --   -1.16696  -1.15315  -1.10904  -1.10344  -1.07878
 Alpha  occ. eigenvalues --   -1.07571  -1.03365  -1.02788  -1.02358  -1.01441
 Alpha  occ. eigenvalues --   -0.91769  -0.90146  -0.89429  -0.88722  -0.88383
 Alpha  occ. eigenvalues --   -0.88215  -0.88149  -0.87041  -0.87023  -0.86769
 Alpha  occ. eigenvalues --   -0.85373  -0.85112  -0.83983  -0.83615  -0.83098
 Alpha  occ. eigenvalues --   -0.82148  -0.81920  -0.81005  -0.80703  -0.80016
 Alpha  occ. eigenvalues --   -0.79698  -0.77942  -0.77803  -0.76688  -0.75911
 Alpha  occ. eigenvalues --   -0.75828  -0.75565  -0.74851  -0.74753  -0.74170
 Alpha  occ. eigenvalues --   -0.73022  -0.72292  -0.71431  -0.69909  -0.68278
 Alpha  occ. eigenvalues --   -0.67956  -0.67873  -0.66939  -0.66822  -0.65038
 Alpha  occ. eigenvalues --   -0.64865  -0.64814  -0.64388  -0.64076  -0.63787
 Alpha  occ. eigenvalues --   -0.63031  -0.62655  -0.62026  -0.61806  -0.59881
 Alpha  occ. eigenvalues --   -0.59606  -0.59136  -0.58931  -0.58252  -0.58024
 Alpha  occ. eigenvalues --   -0.57299  -0.56821  -0.56098  -0.55884  -0.55120
 Alpha  occ. eigenvalues --   -0.54841  -0.54574  -0.54276  -0.54008  -0.53763
 Alpha  occ. eigenvalues --   -0.53416  -0.53242  -0.53006  -0.52792  -0.52612
 Alpha  occ. eigenvalues --   -0.52355  -0.52254  -0.52065  -0.51907  -0.51684
 Alpha  occ. eigenvalues --   -0.51553  -0.51201  -0.50969  -0.50841  -0.50579
 Alpha  occ. eigenvalues --   -0.50493  -0.50429  -0.50128  -0.49581  -0.49405
 Alpha  occ. eigenvalues --   -0.49242  -0.48986  -0.48886  -0.48745  -0.48506
 Alpha  occ. eigenvalues --   -0.48303  -0.48187  -0.47787  -0.47747  -0.47657
 Alpha  occ. eigenvalues --   -0.47242  -0.47125  -0.46863  -0.46655  -0.46320
 Alpha  occ. eigenvalues --   -0.46064  -0.46039  -0.45924  -0.45875  -0.45609
 Alpha  occ. eigenvalues --   -0.45437  -0.45308  -0.44998  -0.44933  -0.44634
 Alpha  occ. eigenvalues --   -0.44480  -0.44261  -0.44157  -0.43975  -0.43716
 Alpha  occ. eigenvalues --   -0.43444  -0.43301  -0.43246  -0.43151  -0.43127
 Alpha  occ. eigenvalues --   -0.42772  -0.42504  -0.42327  -0.42139  -0.41865
 Alpha  occ. eigenvalues --   -0.41781  -0.41506  -0.41477  -0.41075  -0.40962
 Alpha  occ. eigenvalues --   -0.40716  -0.40381  -0.40200  -0.40164  -0.40044
 Alpha  occ. eigenvalues --   -0.39910  -0.39360  -0.39338  -0.39238  -0.38681
 Alpha  occ. eigenvalues --   -0.38663  -0.38413  -0.37845  -0.37559  -0.37542
 Alpha  occ. eigenvalues --   -0.36938  -0.36661  -0.36347  -0.36121  -0.35992
 Alpha  occ. eigenvalues --   -0.35919  -0.35828  -0.34695  -0.34474  -0.34272
 Alpha  occ. eigenvalues --   -0.33979  -0.32981  -0.32694  -0.31432  -0.30887
 Alpha  occ. eigenvalues --   -0.30514  -0.30119  -0.29708  -0.29219  -0.23503
 Alpha  occ. eigenvalues --   -0.20917
 Alpha virt. eigenvalues --   -0.08512  -0.01872   0.01082   0.02439   0.03214
 Alpha virt. eigenvalues --    0.03636   0.05239   0.05684   0.05925   0.06826
 Alpha virt. eigenvalues --    0.07646   0.07666   0.08322   0.08839   0.09183

 Mulliken charges:
               1
     1  Mg   0.822343
     2  C   -0.045788
     3  C   -0.066305
     4  C   -0.035911
     5  C   -0.051804
     6  N   -0.317505
     7  C    0.039651
     8  C   -0.045352
     9  C   -0.036319
    10  C    0.029977
    11  C    0.084864
    12  C    0.054967
    13  C    0.038215
    14  C    0.171385
    15  O   -0.221919
    16  O   -0.356399
    17  N   -0.369743
    18  C    0.152433
    19  C   -0.165695
    20  C   -0.037621
    21  C    0.084224
    22  C    0.122638
    23  C    0.008897
    24  O   -0.202877
    25  C    0.048102
    26  N   -0.286581
    27  C    0.058658
    28  C   -0.043503
    29  C   -0.038788
    30  C   -0.018250
    31  C    0.073074
    32  C    0.006670
    33  C    0.018452
    34  N   -0.367707
    35  C    0.185127
    36  C   -0.205462
    37  C    0.012669
    38  C    0.138382
    39  C    0.126327
    40  C    0.049839
    41  O   -0.130200
    42  C   -0.038804
    43  C    0.181570
    44  O   -0.181122
    45  O   -0.325039
    46  C    0.161808
    47  C    0.301252
    48  C   -0.121346
    49  C   -0.172074
    50  C    0.072784
    51  C    0.055691
    52  C    0.048582
    53  C    0.001518
    54  C   -0.102087
    55  C    0.068777
    56  C    0.024367
    57  C   -0.017989
    58  C    0.068656
    59  C   -0.145354
    60  C    0.061060
    61  C    0.043010
    62  C    0.013474
    63  C    0.027520
    64  C   -0.179546
    65  C    0.048697
    66  C    0.048945
    67  H   -0.041361
    68  H    0.008237
    69  H   -0.019158
    70  H   -0.006627
    71  H   -0.003758
    72  H    0.018218
    73  H    0.027836
    74  H    0.018512
    75  H   -0.007701
    76  H    0.055278
    77  H    0.041077
    78  H    0.038869
    79  H    0.011549
    80  H    0.025161
    81  H    0.034402
    82  H    0.025878
    83  H    0.025161
    84  H    0.046376
    85  H    0.011487
    86  H   -0.002783
    87  H    0.005432
    88  H    0.030916
    89  H    0.012792
    90  H    0.012318
    91  H    0.001726
    92  H    0.021146
    93  H    0.019553
    94  H    0.007045
    95  H    0.040079
    96  H    0.027770
    97  H   -0.005335
    98  H    0.038130
    99  H    0.031473
   100  H    0.052865
   101  H    0.031349
   102  H    0.034443
   103  H    0.011772
   104  H   -0.010470
   105  H    0.015585
   106  H    0.017946
   107  H    0.024596
   108  H   -0.004739
   109  H    0.037543
   110  H    0.013802
   111  H    0.002409
   112  H   -0.003275
   113  H   -0.006289
   114  H   -0.003989
   115  H   -0.000360
   116  H   -0.005935
   117  H    0.006322
   118  H   -0.009221
   119  H   -0.013883
   120  H   -0.004992
   121  H    0.014717
   122  H    0.000555
   123  H   -0.014375
   124  H   -0.004421
   125  H    0.004156
   126  H   -0.009223
   127  H    0.013556
   128  H    0.006263
   129  H   -0.016761
   130  H   -0.004034
   131  H   -0.003425
   132  H    0.008319
   133  H   -0.004762
   134  H   -0.002173
   135  H    0.014722
   136  H   -0.007015
   137  H    0.005596
   138  H    0.008383
   139  H    0.012765
   140  H    0.014467
 Sum of Mulliken charges =  -0.00000

 Dipole moment (field-independent basis, Debye):
    X=              2.7662    Y=              3.2327    Z=              2.5361  Tot=              4.9532
 Quadrupole moment (field-independent basis, Debye-Ang):
   XX=           -381.0290   YY=           -404.5438   ZZ=           -405.7111
   XY=             -3.9470   XZ=             -6.6175   YZ=             16.7956

 Normal termination of Gaussian 16 at Sat Apr 30 07:33:16 2022.
