 Gaussian 16, Revision A.03,
 Gaussian 16:  ES64L-G16RevA.03 25-Dec-2016

 ---------------------------------
 #p PBE1PBE/Def2SVP td=(nstates=5)
 ---------------------------------

 -----------------------------------------------------
 step_651_chromophore_22 TDDFT with PBE1PBE functional
 -----------------------------------------------------
 Symbolic Z-matrix:
 Charge =  0 Multiplicity = 1

                         Standard orientation:
 ---------------------------------------------------------------------
 Center     Atomic      Atomic             Coordinates (Angstroms)
 Number     Number       Type             X           Y           Z
 ---------------------------------------------------------------------
      1         12           0       -6.103357    0.411116   -0.082625
      2          6           0       -3.616495   -1.865833    0.869687
      3          6           0       -4.153650    2.935607    1.144664
      4          6           0       -8.727736    2.641674   -0.462015
      5          6           0       -8.452629   -2.325434   -0.235084
      6          7           0       -4.123930    0.493782    0.952195
      7          6           0       -3.201123   -0.545209    1.140669
      8          6           0       -1.882839    0.028509    1.664444
      9          6           0       -2.358560    1.426936    2.258735
     10          6           0       -3.579650    1.699412    1.389263
     11          6           0       -2.735511    1.464665    3.805801
     12          6           0       -0.748688    0.164373    0.541656
     13          6           0        0.627634   -0.428097    0.761690
     14          6           0        1.346898   -0.865290   -0.534611
     15          8           0        0.939026   -0.815334   -1.689420
     16          8           0        2.633835   -1.239986   -0.144527
     17          7           0       -6.244502    2.519729   -0.154987
     18          6           0       -5.320904    3.343001    0.417449
     19          6           0       -5.778866    4.703115    0.337624
     20          6           0       -7.101274    4.645881   -0.177680
     21          6           0       -7.438442    3.205362   -0.258739
     22          6           0       -4.996286    5.922126    0.680934
     23          6           0       -8.088768    5.801517   -0.512139
     24          8           0       -9.095897    5.581100   -1.166954
     25          6           0       -7.777035    7.222939   -0.135592
     26          7           0       -8.281257    0.187238   -0.337517
     27          6           0       -9.122867    1.291080   -0.609397
     28          6           0      -10.509430    0.786264   -0.791368
     29          6           0      -10.368282   -0.735928   -0.953378
     30          6           0       -8.924248   -0.986467   -0.413455
     31          6           0      -11.455044    1.211550    0.363944
     32          6           0      -10.512402   -1.243905   -2.435416
     33          6           0      -11.784083   -2.000415   -2.837798
     34          7           0       -6.135059   -1.650646    0.237956
     35          6           0       -7.123338   -2.634274    0.127997
     36          6           0       -6.478987   -3.908816    0.334462
     37          6           0       -5.126961   -3.660557    0.614182
     38          6           0       -4.990124   -2.318701    0.578203
     39          6           0       -7.200186   -5.232126    0.480032
     40          6           0       -3.831314   -4.300998    0.905465
     41          8           0       -3.593351   -5.466851    1.077031
     42          6           0       -2.762315   -3.113945    0.960302
     43          6           0       -1.697062   -3.238823   -0.103361
     44          8           0       -1.657664   -2.659173   -1.146440
     45          8           0       -0.834076   -4.256127    0.188825
     46          6           0        0.147763   -4.583379   -0.832192
     47          6           0        3.565477   -1.397434   -1.289659
     48          6           0        4.949140   -1.360657   -0.755795
     49          6           0        5.673160   -2.224953    0.006663
     50          6           0        5.107299   -3.479012    0.719126
     51          6           0        7.139478   -1.889776    0.436395
     52          6           0        8.163999   -1.835915   -0.804295
     53          6           0        8.665333   -0.430508   -1.187898
     54          6           0       10.045355   -0.105843   -0.523201
     55          6           0        9.892015    0.179185    0.981831
     56          6           0       10.721318    1.080398   -1.255843
     57          6           0       12.015047    0.611791   -2.006931
     58          6           0       12.876593    1.757565   -2.485183
     59          6           0       14.395981    1.459741   -2.120368
     60          6           0       15.319681    1.724310   -3.333576
     61          6           0       14.718367    2.217973   -0.824867
     62          6           0       15.608741    1.477176    0.230779
     63          6           0       15.101755    1.725959    1.668506
     64          6           0       13.814021    0.873686    1.999438
     65          6           0       12.956824    1.695257    3.060181
     66          6           0       14.034545   -0.639357    2.336945
     67          1           0       -3.660383    3.775821    1.639084
     68          1           0       -9.505544    3.387280   -0.283112
     69          1           0       -9.282787   -2.958606   -0.554704
     70          1           0       -1.395667   -0.508107    2.478529
     71          1           0       -1.592697    2.147436    1.970044
     72          1           0       -2.123210    2.168429    4.370124
     73          1           0       -2.736328    0.477735    4.270657
     74          1           0       -3.734998    1.885095    3.915241
     75          1           0       -0.589916    1.240284    0.468608
     76          1           0       -1.066456   -0.138983   -0.456034
     77          1           0        0.599266   -1.306339    1.405965
     78          1           0        1.266303    0.381386    1.114887
     79          1           0       -3.979504    5.760934    1.039103
     80          1           0       -5.514284    6.484376    1.457293
     81          1           0       -4.875822    6.491895   -0.240204
     82          1           0       -7.625911    7.169810    0.942437
     83          1           0       -8.652774    7.835528   -0.351375
     84          1           0       -6.960638    7.750104   -0.628775
     85          1           0      -10.968144    1.279173   -1.648300
     86          1           0      -11.160447   -1.212544   -0.375563
     87          1           0      -11.108107    0.498650    1.112820
     88          1           0      -12.525089    1.091934    0.198025
     89          1           0      -11.094964    2.200266    0.649374
     90          1           0       -9.717555   -1.904899   -2.781123
     91          1           0      -10.417839   -0.329276   -3.019257
     92          1           0      -11.569763   -2.655468   -3.682584
     93          1           0      -12.593283   -1.308094   -3.069246
     94          1           0      -12.004133   -2.595622   -1.951811
     95          1           0       -7.066204   -5.670144    1.468915
     96          1           0       -6.882788   -5.906509   -0.315691
     97          1           0       -8.263779   -5.059346    0.316821
     98          1           0       -2.279561   -3.173871    1.936354
     99          1           0        1.016280   -5.001390   -0.323692
    100          1           0        0.424745   -3.735827   -1.458814
    101          1           0       -0.214717   -5.344301   -1.523067
    102          1           0        3.412942   -0.723516   -2.132356
    103          1           0        3.335962   -2.391487   -1.673137
    104          1           0        5.564232   -0.514743   -1.065023
    105          1           0        5.612983   -4.405284    0.447808
    106          1           0        4.049176   -3.569739    0.472750
    107          1           0        5.294490   -3.410087    1.790990
    108          1           0        7.469556   -2.651817    1.141488
    109          1           0        7.055090   -0.922094    0.931422
    110          1           0        7.704477   -2.209193   -1.718759
    111          1           0        9.000942   -2.475835   -0.521520
    112          1           0        8.003920    0.379863   -0.881341
    113          1           0        8.864447   -0.261464   -2.246164
    114          1           0       10.605620   -1.000105   -0.798155
    115          1           0       10.465689   -0.514906    1.596939
    116          1           0        8.852307    0.088122    1.294946
    117          1           0       10.279465    1.114064    1.387313
    118          1           0       10.838313    1.952651   -0.612576
    119          1           0       10.237645    1.534447   -2.121080
    120          1           0       11.621311    0.214859   -2.943519
    121          1           0       12.606873   -0.124438   -1.461972
    122          1           0       12.559478    2.704300   -2.047649
    123          1           0       12.711623    1.799709   -3.561950
    124          1           0       14.618019    0.423257   -1.869064
    125          1           0       16.269243    2.175047   -3.045474
    126          1           0       14.844399    2.505682   -3.926342
    127          1           0       15.358556    0.897347   -4.042747
    128          1           0       13.843065    2.622404   -0.316352
    129          1           0       15.273917    3.074073   -1.205830
    130          1           0       16.599327    1.933105    0.220299
    131          1           0       15.690853    0.406165    0.046562
    132          1           0       14.959443    2.800893    1.778678
    133          1           0       15.885182    1.296279    2.293944
    134          1           0       13.284672    0.753820    1.054054
    135          1           0       13.479783    2.578813    3.427280
    136          1           0       12.747530    1.025493    3.894605
    137          1           0       11.955212    1.949996    2.712868
    138          1           0       15.097747   -0.733688    2.555100
    139          1           0       13.723295   -1.142154    1.421089
    140          1           0       13.430491   -1.002225    3.168444
 ---------------------------------------------------------------------

 SCF Done:  E(RPBE1PBE) =  -3005.35746310     A.U. after   15 cycles

 Excitation energies and oscillator strengths:

 Excited State   1:      Singlet-A      1.8403 eV  673.72 nm  f=0.3391  <S**2>=0.000
     245 -> 248        0.17669
     246 -> 247        0.68860
     246 <- 247       -0.10488
 This state for optimization and/or second-order correction.
 Total Energy, E(TD-HF/TD-DFT) =  -3005.28983351
 Copying the excited state density for this state as the 1-particle RhoCI density.

 Excited State   2:      Singlet-A      2.1855 eV  567.30 nm  f=0.1130  <S**2>=0.000
     245 -> 247        0.64697
     246 -> 248       -0.26274

 Excited State   3:      Singlet-A      2.9830 eV  415.64 nm  f=0.0006  <S**2>=0.000
     244 -> 247        0.69327

 Excited State   4:      Singlet-A      3.0952 eV  400.57 nm  f=0.0008  <S**2>=0.000
     241 -> 247        0.12960
     243 -> 247        0.64742
     246 -> 248        0.20786

 Excited State   5:      Singlet-A      3.1873 eV  389.00 nm  f=0.0006  <S**2>=0.000
     239 -> 247        0.15407
     240 -> 247        0.10938
     240 -> 249       -0.10923
     241 -> 247        0.63356
     243 -> 247       -0.11089

 The electronic state is 1-A.
 Alpha  occ. eigenvalues --  -46.92257 -19.25284 -19.24739 -19.20790 -19.19557
 Alpha  occ. eigenvalues --  -19.19452 -19.19226 -14.41334 -14.41187 -14.39197
 Alpha  occ. eigenvalues --  -14.38476 -10.36516 -10.35653 -10.32604 -10.32549
 Alpha  occ. eigenvalues --  -10.29185 -10.28908 -10.28667 -10.28359 -10.28336
 Alpha  occ. eigenvalues --  -10.28169 -10.27940 -10.27738 -10.27294 -10.26674
 Alpha  occ. eigenvalues --  -10.26405 -10.26290 -10.25946 -10.25785 -10.25736
 Alpha  occ. eigenvalues --  -10.25700 -10.25107 -10.25107 -10.24969 -10.24868
 Alpha  occ. eigenvalues --  -10.24813 -10.24611 -10.24520 -10.24496 -10.24394
 Alpha  occ. eigenvalues --  -10.24264 -10.24202 -10.23725 -10.23598 -10.23596
 Alpha  occ. eigenvalues --  -10.23510 -10.23491 -10.23380 -10.23362 -10.23195
 Alpha  occ. eigenvalues --  -10.23177 -10.23087 -10.22786 -10.22710 -10.22592
 Alpha  occ. eigenvalues --  -10.22555 -10.22312 -10.22284 -10.22121 -10.22088
 Alpha  occ. eigenvalues --  -10.22051 -10.22045 -10.22032 -10.22013 -10.21971
 Alpha  occ. eigenvalues --  -10.21671  -3.14170  -1.87020  -1.86526  -1.86398
 Alpha  occ. eigenvalues --   -1.11442  -1.10096  -1.05714  -1.05012  -1.02691
 Alpha  occ. eigenvalues --   -1.02432  -0.97973  -0.97453  -0.96951  -0.96056
 Alpha  occ. eigenvalues --   -0.86145  -0.84242  -0.83548  -0.82887  -0.82696
 Alpha  occ. eigenvalues --   -0.82450  -0.82318  -0.81297  -0.81142  -0.81059
 Alpha  occ. eigenvalues --   -0.79719  -0.79379  -0.78148  -0.77909  -0.77377
 Alpha  occ. eigenvalues --   -0.76354  -0.76023  -0.75227  -0.74947  -0.74318
 Alpha  occ. eigenvalues --   -0.73882  -0.72203  -0.72066  -0.71020  -0.70193
 Alpha  occ. eigenvalues --   -0.70006  -0.69654  -0.69207  -0.68913  -0.68363
 Alpha  occ. eigenvalues --   -0.67340  -0.66737  -0.65856  -0.64241  -0.62648
 Alpha  occ. eigenvalues --   -0.62322  -0.62221  -0.61322  -0.61075  -0.59504
 Alpha  occ. eigenvalues --   -0.59294  -0.58955  -0.58927  -0.58367  -0.58249
 Alpha  occ. eigenvalues --   -0.57214  -0.57183  -0.56391  -0.56213  -0.54374
 Alpha  occ. eigenvalues --   -0.54096  -0.53697  -0.53338  -0.52813  -0.52568
 Alpha  occ. eigenvalues --   -0.51884  -0.51165  -0.50598  -0.50432  -0.49607
 Alpha  occ. eigenvalues --   -0.49409  -0.48971  -0.48708  -0.48553  -0.48306
 Alpha  occ. eigenvalues --   -0.47842  -0.47794  -0.47411  -0.47368  -0.47109
 Alpha  occ. eigenvalues --   -0.46910  -0.46775  -0.46639  -0.46501  -0.46251
 Alpha  occ. eigenvalues --   -0.46035  -0.45767  -0.45511  -0.45472  -0.45107
 Alpha  occ. eigenvalues --   -0.45082  -0.44946  -0.44668  -0.44136  -0.44020
 Alpha  occ. eigenvalues --   -0.43802  -0.43530  -0.43462  -0.43346  -0.43114
 Alpha  occ. eigenvalues --   -0.42877  -0.42815  -0.42359  -0.42332  -0.42294
 Alpha  occ. eigenvalues --   -0.41868  -0.41818  -0.41512  -0.41246  -0.40979
 Alpha  occ. eigenvalues --   -0.40791  -0.40657  -0.40597  -0.40539  -0.40380
 Alpha  occ. eigenvalues --   -0.40169  -0.39963  -0.39724  -0.39596  -0.39377
 Alpha  occ. eigenvalues --   -0.39216  -0.39079  -0.38935  -0.38823  -0.38492
 Alpha  occ. eigenvalues --   -0.38299  -0.38093  -0.37965  -0.37893  -0.37838
 Alpha  occ. eigenvalues --   -0.37593  -0.37377  -0.37110  -0.36900  -0.36629
 Alpha  occ. eigenvalues --   -0.36604  -0.36266  -0.36259  -0.36019  -0.35707
 Alpha  occ. eigenvalues --   -0.35685  -0.35207  -0.35074  -0.35001  -0.34844
 Alpha  occ. eigenvalues --   -0.34792  -0.34261  -0.34168  -0.34144  -0.33598
 Alpha  occ. eigenvalues --   -0.33498  -0.33241  -0.32717  -0.32564  -0.32297
 Alpha  occ. eigenvalues --   -0.31806  -0.31653  -0.31344  -0.31066  -0.31003
 Alpha  occ. eigenvalues --   -0.30783  -0.30697  -0.29580  -0.29412  -0.29311
 Alpha  occ. eigenvalues --   -0.28850  -0.28290  -0.27969  -0.26701  -0.25847
 Alpha  occ. eigenvalues --   -0.25678  -0.25451  -0.25229  -0.24870  -0.20460
 Alpha  occ. eigenvalues --   -0.18530
 Alpha virt. eigenvalues --   -0.10924  -0.05409  -0.03150  -0.01987  -0.00844
 Alpha virt. eigenvalues --    0.00328   0.00961   0.01075   0.01503   0.02696
 Alpha virt. eigenvalues --    0.04145   0.04232   0.04394   0.05304   0.05865

 Mulliken charges:
               1
     1  Mg   0.964383
     2  C   -0.056467
     3  C   -0.061811
     4  C   -0.032603
     5  C   -0.048990
     6  N   -0.408355
     7  C    0.114198
     8  C   -0.118780
     9  C   -0.112484
    10  C    0.062077
    11  C    0.028623
    12  C    0.014578
    13  C   -0.040538
    14  C    0.235626
    15  O   -0.254550
    16  O   -0.383509
    17  N   -0.481615
    18  C    0.179061
    19  C   -0.200597
    20  C   -0.076504
    21  C    0.106029
    22  C    0.062645
    23  C    0.055132
    24  O   -0.237197
    25  C   -0.023606
    26  N   -0.388026
    27  C    0.100241
    28  C   -0.124258
    29  C   -0.118507
    30  C    0.029346
    31  C    0.010668
    32  C   -0.046818
    33  C   -0.055958
    34  N   -0.488380
    35  C    0.202698
    36  C   -0.224140
    37  C   -0.033701
    38  C    0.178488
    39  C    0.071007
    40  C    0.147827
    41  O   -0.176027
    42  C   -0.139426
    43  C    0.271494
    44  O   -0.217089
    45  O   -0.358815
    46  C    0.106604
    47  C    0.255189
    48  C   -0.135887
    49  C   -0.208154
    50  C    0.007512
    51  C   -0.010301
    52  C   -0.013642
    53  C   -0.055077
    54  C   -0.189499
    55  C    0.005769
    56  C   -0.022072
    57  C   -0.085317
    58  C    0.013995
    59  C   -0.228423
    60  C   -0.001503
    61  C   -0.007168
    62  C   -0.050185
    63  C   -0.036135
    64  C   -0.270785
    65  C   -0.015831
    66  C   -0.010848
    67  H   -0.007259
    68  H    0.038103
    69  H    0.012757
    70  H    0.031018
    71  H    0.032384
    72  H    0.045529
    73  H    0.054346
    74  H    0.046606
    75  H    0.026366
    76  H    0.085652
    77  H    0.071576
    78  H    0.071409
    79  H    0.037819
    80  H    0.052500
    81  H    0.062422
    82  H    0.053189
    83  H    0.052570
    84  H    0.071078
    85  H    0.049233
    86  H    0.033875
    87  H    0.035530
    88  H    0.058143
    89  H    0.043699
    90  H    0.044558
    91  H    0.035546
    92  H    0.049038
    93  H    0.047569
    94  H    0.034674
    95  H    0.067117
    96  H    0.056115
    97  H    0.023660
    98  H    0.074620
    99  H    0.053216
   100  H    0.075747
   101  H    0.053915
   102  H    0.059758
   103  H    0.039803
   104  H    0.022728
   105  H    0.044059
   106  H    0.046775
   107  H    0.052180
   108  H    0.027153
   109  H    0.069219
   110  H    0.046259
   111  H    0.034129
   112  H    0.029550
   113  H    0.027421
   114  H    0.033593
   115  H    0.028199
   116  H    0.023671
   117  H    0.036109
   118  H    0.021422
   119  H    0.018188
   120  H    0.030162
   121  H    0.044999
   122  H    0.031957
   123  H    0.018352
   124  H    0.032776
   125  H    0.031899
   126  H    0.019343
   127  H    0.041324
   128  H    0.037769
   129  H    0.017627
   130  H    0.029775
   131  H    0.028506
   132  H    0.039652
   133  H    0.029384
   134  H    0.046516
   135  H    0.041263
   136  H    0.020696
   137  H    0.034852
   138  H    0.035056
   139  H    0.039057
   140  H    0.040894
 Sum of Mulliken charges =  -0.00000

 Dipole moment (field-independent basis, Debye):
    X=              2.7936    Y=              3.0600    Z=              2.5322  Tot=              4.8559
 Quadrupole moment (field-independent basis, Debye-Ang):
   XX=           -375.3677   YY=           -401.7539   ZZ=           -402.9283
   XY=             -2.1233   XZ=             -6.3636   YZ=             16.9726

 Normal termination of Gaussian 16 at Sat Apr 30 07:56:11 2022.
