 Gaussian 16, Revision A.03,
 Gaussian 16:  ES64L-G16RevA.03 25-Dec-2016

 --------------------------------
 #p wB97XD/Def2SVP td=(nstates=5)
 --------------------------------

 ----------------------------------------------------
 step_651_chromophore_22 TDDFT with wB97XD functional
 ----------------------------------------------------
 Symbolic Z-matrix:
 Charge =  0 Multiplicity = 1

                         Standard orientation:
 ---------------------------------------------------------------------
 Center     Atomic      Atomic             Coordinates (Angstroms)
 Number     Number       Type             X           Y           Z
 ---------------------------------------------------------------------
      1         12           0       -6.103357    0.411116   -0.082625
      2          6           0       -3.616495   -1.865833    0.869687
      3          6           0       -4.153650    2.935607    1.144664
      4          6           0       -8.727736    2.641674   -0.462015
      5          6           0       -8.452629   -2.325434   -0.235084
      6          7           0       -4.123930    0.493782    0.952195
      7          6           0       -3.201123   -0.545209    1.140669
      8          6           0       -1.882839    0.028509    1.664444
      9          6           0       -2.358560    1.426936    2.258735
     10          6           0       -3.579650    1.699412    1.389263
     11          6           0       -2.735511    1.464665    3.805801
     12          6           0       -0.748688    0.164373    0.541656
     13          6           0        0.627634   -0.428097    0.761690
     14          6           0        1.346898   -0.865290   -0.534611
     15          8           0        0.939026   -0.815334   -1.689420
     16          8           0        2.633835   -1.239986   -0.144527
     17          7           0       -6.244502    2.519729   -0.154987
     18          6           0       -5.320904    3.343001    0.417449
     19          6           0       -5.778866    4.703115    0.337624
     20          6           0       -7.101274    4.645881   -0.177680
     21          6           0       -7.438442    3.205362   -0.258739
     22          6           0       -4.996286    5.922126    0.680934
     23          6           0       -8.088768    5.801517   -0.512139
     24          8           0       -9.095897    5.581100   -1.166954
     25          6           0       -7.777035    7.222939   -0.135592
     26          7           0       -8.281257    0.187238   -0.337517
     27          6           0       -9.122867    1.291080   -0.609397
     28          6           0      -10.509430    0.786264   -0.791368
     29          6           0      -10.368282   -0.735928   -0.953378
     30          6           0       -8.924248   -0.986467   -0.413455
     31          6           0      -11.455044    1.211550    0.363944
     32          6           0      -10.512402   -1.243905   -2.435416
     33          6           0      -11.784083   -2.000415   -2.837798
     34          7           0       -6.135059   -1.650646    0.237956
     35          6           0       -7.123338   -2.634274    0.127997
     36          6           0       -6.478987   -3.908816    0.334462
     37          6           0       -5.126961   -3.660557    0.614182
     38          6           0       -4.990124   -2.318701    0.578203
     39          6           0       -7.200186   -5.232126    0.480032
     40          6           0       -3.831314   -4.300998    0.905465
     41          8           0       -3.593351   -5.466851    1.077031
     42          6           0       -2.762315   -3.113945    0.960302
     43          6           0       -1.697062   -3.238823   -0.103361
     44          8           0       -1.657664   -2.659173   -1.146440
     45          8           0       -0.834076   -4.256127    0.188825
     46          6           0        0.147763   -4.583379   -0.832192
     47          6           0        3.565477   -1.397434   -1.289659
     48          6           0        4.949140   -1.360657   -0.755795
     49          6           0        5.673160   -2.224953    0.006663
     50          6           0        5.107299   -3.479012    0.719126
     51          6           0        7.139478   -1.889776    0.436395
     52          6           0        8.163999   -1.835915   -0.804295
     53          6           0        8.665333   -0.430508   -1.187898
     54          6           0       10.045355   -0.105843   -0.523201
     55          6           0        9.892015    0.179185    0.981831
     56          6           0       10.721318    1.080398   -1.255843
     57          6           0       12.015047    0.611791   -2.006931
     58          6           0       12.876593    1.757565   -2.485183
     59          6           0       14.395981    1.459741   -2.120368
     60          6           0       15.319681    1.724310   -3.333576
     61          6           0       14.718367    2.217973   -0.824867
     62          6           0       15.608741    1.477176    0.230779
     63          6           0       15.101755    1.725959    1.668506
     64          6           0       13.814021    0.873686    1.999438
     65          6           0       12.956824    1.695257    3.060181
     66          6           0       14.034545   -0.639357    2.336945
     67          1           0       -3.660383    3.775821    1.639084
     68          1           0       -9.505544    3.387280   -0.283112
     69          1           0       -9.282787   -2.958606   -0.554704
     70          1           0       -1.395667   -0.508107    2.478529
     71          1           0       -1.592697    2.147436    1.970044
     72          1           0       -2.123210    2.168429    4.370124
     73          1           0       -2.736328    0.477735    4.270657
     74          1           0       -3.734998    1.885095    3.915241
     75          1           0       -0.589916    1.240284    0.468608
     76          1           0       -1.066456   -0.138983   -0.456034
     77          1           0        0.599266   -1.306339    1.405965
     78          1           0        1.266303    0.381386    1.114887
     79          1           0       -3.979504    5.760934    1.039103
     80          1           0       -5.514284    6.484376    1.457293
     81          1           0       -4.875822    6.491895   -0.240204
     82          1           0       -7.625911    7.169810    0.942437
     83          1           0       -8.652774    7.835528   -0.351375
     84          1           0       -6.960638    7.750104   -0.628775
     85          1           0      -10.968144    1.279173   -1.648300
     86          1           0      -11.160447   -1.212544   -0.375563
     87          1           0      -11.108107    0.498650    1.112820
     88          1           0      -12.525089    1.091934    0.198025
     89          1           0      -11.094964    2.200266    0.649374
     90          1           0       -9.717555   -1.904899   -2.781123
     91          1           0      -10.417839   -0.329276   -3.019257
     92          1           0      -11.569763   -2.655468   -3.682584
     93          1           0      -12.593283   -1.308094   -3.069246
     94          1           0      -12.004133   -2.595622   -1.951811
     95          1           0       -7.066204   -5.670144    1.468915
     96          1           0       -6.882788   -5.906509   -0.315691
     97          1           0       -8.263779   -5.059346    0.316821
     98          1           0       -2.279561   -3.173871    1.936354
     99          1           0        1.016280   -5.001390   -0.323692
    100          1           0        0.424745   -3.735827   -1.458814
    101          1           0       -0.214717   -5.344301   -1.523067
    102          1           0        3.412942   -0.723516   -2.132356
    103          1           0        3.335962   -2.391487   -1.673137
    104          1           0        5.564232   -0.514743   -1.065023
    105          1           0        5.612983   -4.405284    0.447808
    106          1           0        4.049176   -3.569739    0.472750
    107          1           0        5.294490   -3.410087    1.790990
    108          1           0        7.469556   -2.651817    1.141488
    109          1           0        7.055090   -0.922094    0.931422
    110          1           0        7.704477   -2.209193   -1.718759
    111          1           0        9.000942   -2.475835   -0.521520
    112          1           0        8.003920    0.379863   -0.881341
    113          1           0        8.864447   -0.261464   -2.246164
    114          1           0       10.605620   -1.000105   -0.798155
    115          1           0       10.465689   -0.514906    1.596939
    116          1           0        8.852307    0.088122    1.294946
    117          1           0       10.279465    1.114064    1.387313
    118          1           0       10.838313    1.952651   -0.612576
    119          1           0       10.237645    1.534447   -2.121080
    120          1           0       11.621311    0.214859   -2.943519
    121          1           0       12.606873   -0.124438   -1.461972
    122          1           0       12.559478    2.704300   -2.047649
    123          1           0       12.711623    1.799709   -3.561950
    124          1           0       14.618019    0.423257   -1.869064
    125          1           0       16.269243    2.175047   -3.045474
    126          1           0       14.844399    2.505682   -3.926342
    127          1           0       15.358556    0.897347   -4.042747
    128          1           0       13.843065    2.622404   -0.316352
    129          1           0       15.273917    3.074073   -1.205830
    130          1           0       16.599327    1.933105    0.220299
    131          1           0       15.690853    0.406165    0.046562
    132          1           0       14.959443    2.800893    1.778678
    133          1           0       15.885182    1.296279    2.293944
    134          1           0       13.284672    0.753820    1.054054
    135          1           0       13.479783    2.578813    3.427280
    136          1           0       12.747530    1.025493    3.894605
    137          1           0       11.955212    1.949996    2.712868
    138          1           0       15.097747   -0.733688    2.555100
    139          1           0       13.723295   -1.142154    1.421089
    140          1           0       13.430491   -1.002225    3.168444
 ---------------------------------------------------------------------

 SCF Done:  E(RwB97XD) =  -3007.86905577     A.U. after   20 cycles

 Excitation energies and oscillator strengths:

 Excited State   1:      Singlet-A      1.6172 eV  766.65 nm  f=0.3538  <S**2>=0.000
     245 -> 248       -0.18755
     246 -> 247        0.68048
     245 <- 248       -0.11685
 This state for optimization and/or second-order correction.
 Total Energy, E(TD-HF/TD-DFT) =  -3007.80962420
 Copying the excited state density for this state as the 1-particle RhoCI density.

 Excited State   2:      Singlet-A      2.1035 eV  589.43 nm  f=0.1161  <S**2>=0.000
     245 -> 247        0.63632
     246 -> 248        0.28919

 Excited State   3:      Singlet-A      3.3153 eV  373.98 nm  f=0.0004  <S**2>=0.000
     243 -> 247       -0.12857
     244 -> 247        0.67619

 Excited State   4:      Singlet-A      3.4021 eV  364.43 nm  f=0.2135  <S**2>=0.000
     243 -> 247        0.49358
     245 -> 247        0.15253
     246 -> 248       -0.45560

 Excited State   5:      Singlet-A      3.5522 eV  349.04 nm  f=0.6169  <S**2>=0.000
     243 -> 247        0.43688
     244 -> 247        0.11806
     245 -> 247       -0.26491
     246 -> 248        0.43928

 The electronic state is 1-A.
 Alpha  occ. eigenvalues --  -46.95188 -19.29825 -19.29322 -19.25429 -19.24321
 Alpha  occ. eigenvalues --  -19.24177 -19.24124 -14.46463 -14.46203 -14.44213
 Alpha  occ. eigenvalues --  -14.43337 -10.43278 -10.42498 -10.39503 -10.39352
 Alpha  occ. eigenvalues --  -10.35710 -10.35183 -10.35025 -10.34733 -10.34598
 Alpha  occ. eigenvalues --  -10.34547 -10.34444 -10.34223 -10.33494 -10.32922
 Alpha  occ. eigenvalues --  -10.32661 -10.32549 -10.32333 -10.32263 -10.32060
 Alpha  occ. eigenvalues --  -10.32010 -10.31529 -10.31349 -10.31306 -10.31281
 Alpha  occ. eigenvalues --  -10.31264 -10.30979 -10.30976 -10.30917 -10.30813
 Alpha  occ. eigenvalues --  -10.30625 -10.30605 -10.30160 -10.30071 -10.29959
 Alpha  occ. eigenvalues --  -10.29875 -10.29794 -10.29765 -10.29641 -10.29535
 Alpha  occ. eigenvalues --  -10.29458 -10.29454 -10.29151 -10.29107 -10.28943
 Alpha  occ. eigenvalues --  -10.28911 -10.28703 -10.28681 -10.28491 -10.28467
 Alpha  occ. eigenvalues --  -10.28428 -10.28415 -10.28400 -10.28391 -10.28243
 Alpha  occ. eigenvalues --  -10.28099  -3.20988  -1.94582  -1.94085  -1.93959
 Alpha  occ. eigenvalues --   -1.18840  -1.17467  -1.13133  -1.12571  -1.10057
 Alpha  occ. eigenvalues --   -1.09760  -1.05373  -1.04832  -1.04352  -1.03458
 Alpha  occ. eigenvalues --   -0.93730  -0.91913  -0.91219  -0.90541  -0.90253
 Alpha  occ. eigenvalues --   -0.90127  -0.89975  -0.88953  -0.88809  -0.88716
 Alpha  occ. eigenvalues --   -0.87302  -0.87004  -0.85811  -0.85503  -0.85014
 Alpha  occ. eigenvalues --   -0.84028  -0.83827  -0.82879  -0.82591  -0.81950
 Alpha  occ. eigenvalues --   -0.81547  -0.79910  -0.79700  -0.78603  -0.77808
 Alpha  occ. eigenvalues --   -0.77692  -0.77359  -0.76788  -0.76581  -0.76017
 Alpha  occ. eigenvalues --   -0.74941  -0.74266  -0.73406  -0.71847  -0.70225
 Alpha  occ. eigenvalues --   -0.69887  -0.69789  -0.68912  -0.68714  -0.67027
 Alpha  occ. eigenvalues --   -0.66791  -0.66628  -0.66373  -0.65908  -0.65797
 Alpha  occ. eigenvalues --   -0.64856  -0.64637  -0.63854  -0.63793  -0.61869
 Alpha  occ. eigenvalues --   -0.61548  -0.61120  -0.60839  -0.60208  -0.59989
 Alpha  occ. eigenvalues --   -0.59283  -0.58694  -0.58067  -0.57843  -0.57029
 Alpha  occ. eigenvalues --   -0.56819  -0.56434  -0.56157  -0.55941  -0.55688
 Alpha  occ. eigenvalues --   -0.55271  -0.55186  -0.54947  -0.54708  -0.54508
 Alpha  occ. eigenvalues --   -0.54281  -0.54153  -0.53987  -0.53840  -0.53580
 Alpha  occ. eigenvalues --   -0.53422  -0.53118  -0.52873  -0.52777  -0.52466
 Alpha  occ. eigenvalues --   -0.52408  -0.52383  -0.52006  -0.51496  -0.51347
 Alpha  occ. eigenvalues --   -0.51159  -0.50864  -0.50804  -0.50642  -0.50411
 Alpha  occ. eigenvalues --   -0.50175  -0.50077  -0.49705  -0.49648  -0.49566
 Alpha  occ. eigenvalues --   -0.49183  -0.49021  -0.48798  -0.48513  -0.48224
 Alpha  occ. eigenvalues --   -0.47988  -0.47887  -0.47789  -0.47780  -0.47524
 Alpha  occ. eigenvalues --   -0.47343  -0.47182  -0.46915  -0.46805  -0.46574
 Alpha  occ. eigenvalues --   -0.46438  -0.46177  -0.46072  -0.45914  -0.45642
 Alpha  occ. eigenvalues --   -0.45355  -0.45241  -0.45125  -0.45072  -0.45007
 Alpha  occ. eigenvalues --   -0.44682  -0.44412  -0.44273  -0.44102  -0.43736
 Alpha  occ. eigenvalues --   -0.43703  -0.43411  -0.43376  -0.42974  -0.42810
 Alpha  occ. eigenvalues --   -0.42644  -0.42270  -0.42065  -0.42056  -0.41892
 Alpha  occ. eigenvalues --   -0.41826  -0.41245  -0.41185  -0.41135  -0.40566
 Alpha  occ. eigenvalues --   -0.40531  -0.40260  -0.39709  -0.39497  -0.39371
 Alpha  occ. eigenvalues --   -0.38797  -0.38597  -0.38411  -0.38049  -0.37958
 Alpha  occ. eigenvalues --   -0.37847  -0.37727  -0.36567  -0.36358  -0.36249
 Alpha  occ. eigenvalues --   -0.35916  -0.34937  -0.34820  -0.33496  -0.32878
 Alpha  occ. eigenvalues --   -0.32622  -0.32162  -0.31891  -0.31378  -0.25410
 Alpha  occ. eigenvalues --   -0.22716
 Alpha virt. eigenvalues --   -0.06858   0.00049   0.03121   0.04535   0.05843
 Alpha virt. eigenvalues --    0.06438   0.07563   0.07945   0.08225   0.09320
 Alpha virt. eigenvalues --    0.10448   0.10976   0.11057   0.12102   0.12508

 Mulliken charges:
               1
     1  Mg   0.956956
     2  C   -0.056376
     3  C   -0.078433
     4  C   -0.045852
     5  C   -0.062534
     6  N   -0.381853
     7  C    0.077802
     8  C   -0.091565
     9  C   -0.083130
    10  C    0.050884
    11  C    0.036905
    12  C    0.021702
    13  C   -0.021886
    14  C    0.222464
    15  O   -0.250176
    16  O   -0.383187
    17  N   -0.451602
    18  C    0.171743
    19  C   -0.186029
    20  C   -0.074296
    21  C    0.102658
    22  C    0.074205
    23  C    0.052807
    24  O   -0.231958
    25  C   -0.013657
    26  N   -0.354247
    27  C    0.083086
    28  C   -0.096275
    29  C   -0.089173
    30  C    0.010096
    31  C    0.025506
    32  C   -0.037243
    33  C   -0.037007
    34  N   -0.454997
    35  C    0.195492
    36  C   -0.220848
    37  C   -0.030850
    38  C    0.166796
    39  C    0.084378
    40  C    0.129013
    41  O   -0.167454
    42  C   -0.104643
    43  C    0.246412
    44  O   -0.209209
    45  O   -0.356921
    46  C    0.124221
    47  C    0.268267
    48  C   -0.142230
    49  C   -0.196874
    50  C    0.023302
    51  C    0.007791
    52  C    0.001547
    53  C   -0.035182
    54  C   -0.158256
    55  C    0.024428
    56  C   -0.009299
    57  C   -0.062198
    58  C    0.028082
    59  C   -0.197604
    60  C    0.011551
    61  C    0.005306
    62  C   -0.031584
    63  C   -0.016460
    64  C   -0.233852
    65  C    0.002072
    66  C    0.001685
    67  H   -0.015730
    68  H    0.032194
    69  H    0.007438
    70  H    0.019532
    71  H    0.022323
    72  H    0.040781
    73  H    0.049546
    74  H    0.039800
    75  H    0.017068
    76  H    0.077123
    77  H    0.065289
    78  H    0.065826
    79  H    0.034948
    80  H    0.047019
    81  H    0.056679
    82  H    0.046443
    83  H    0.051653
    84  H    0.068120
    85  H    0.038906
    86  H    0.021732
    87  H    0.026200
    88  H    0.054374
    89  H    0.034990
    90  H    0.036027
    91  H    0.026071
    92  H    0.044026
    93  H    0.041433
    94  H    0.026339
    95  H    0.062480
    96  H    0.050992
    97  H    0.016447
    98  H    0.068430
    99  H    0.049753
   100  H    0.068720
   101  H    0.050110
   102  H    0.056673
   103  H    0.034247
   104  H    0.015621
   105  H    0.038224
   106  H    0.040623
   107  H    0.046230
   108  H    0.021251
   109  H    0.058350
   110  H    0.038353
   111  H    0.026550
   112  H    0.017560
   113  H    0.018320
   114  H    0.018500
   115  H    0.021723
   116  H    0.014512
   117  H    0.024352
   118  H    0.011289
   119  H    0.008906
   120  H    0.020422
   121  H    0.032809
   122  H    0.022424
   123  H    0.010783
   124  H    0.017645
   125  H    0.026263
   126  H    0.011362
   127  H    0.036586
   128  H    0.024510
   129  H    0.008527
   130  H    0.022625
   131  H    0.018432
   132  H    0.031081
   133  H    0.019762
   134  H    0.017572
   135  H    0.035640
   136  H    0.013469
   137  H    0.026146
   138  H    0.028303
   139  H    0.033638
   140  H    0.035414
 Sum of Mulliken charges =  -0.00000

 Dipole moment (field-independent basis, Debye):
    X=              2.8046    Y=              3.3243    Z=              2.5529  Tot=              5.0432
 Quadrupole moment (field-independent basis, Debye-Ang):
   XX=           -375.8982   YY=           -399.8308   ZZ=           -402.6422
   XY=             -4.3604   XZ=             -6.3983   YZ=             17.0353

 Normal termination of Gaussian 16 at Sat Apr 30 08:21:44 2022.
