 Gaussian 16, Revision A.03,
 Gaussian 16:  ES64L-G16RevA.03 25-Dec-2016

 --------------------
 #p ZINDO=(nstates=5)
 --------------------

 -----------------------------
 step_651_chromophore_22 ZINDO
 -----------------------------
 Symbolic Z-matrix:
 Charge =  0 Multiplicity = 1

                         Standard orientation:
 ---------------------------------------------------------------------
 Center     Atomic      Atomic             Coordinates (Angstroms)
 Number     Number       Type             X           Y           Z
 ---------------------------------------------------------------------
      1         12           0       -6.103357    0.411116   -0.082625
      2          6           0       -3.616495   -1.865833    0.869687
      3          6           0       -4.153650    2.935607    1.144664
      4          6           0       -8.727736    2.641674   -0.462015
      5          6           0       -8.452629   -2.325434   -0.235084
      6          7           0       -4.123930    0.493782    0.952195
      7          6           0       -3.201123   -0.545209    1.140669
      8          6           0       -1.882839    0.028509    1.664444
      9          6           0       -2.358560    1.426936    2.258735
     10          6           0       -3.579650    1.699412    1.389263
     11          6           0       -2.735511    1.464665    3.805801
     12          6           0       -0.748688    0.164373    0.541656
     13          6           0        0.627634   -0.428097    0.761690
     14          6           0        1.346898   -0.865290   -0.534611
     15          8           0        0.939026   -0.815334   -1.689420
     16          8           0        2.633835   -1.239986   -0.144527
     17          7           0       -6.244502    2.519729   -0.154987
     18          6           0       -5.320904    3.343001    0.417449
     19          6           0       -5.778866    4.703115    0.337624
     20          6           0       -7.101274    4.645881   -0.177680
     21          6           0       -7.438442    3.205362   -0.258739
     22          6           0       -4.996286    5.922126    0.680934
     23          6           0       -8.088768    5.801517   -0.512139
     24          8           0       -9.095897    5.581100   -1.166954
     25          6           0       -7.777035    7.222939   -0.135592
     26          7           0       -8.281257    0.187238   -0.337517
     27          6           0       -9.122867    1.291080   -0.609397
     28          6           0      -10.509430    0.786264   -0.791368
     29          6           0      -10.368282   -0.735928   -0.953378
     30          6           0       -8.924248   -0.986467   -0.413455
     31          6           0      -11.455044    1.211550    0.363944
     32          6           0      -10.512402   -1.243905   -2.435416
     33          6           0      -11.784083   -2.000415   -2.837798
     34          7           0       -6.135059   -1.650646    0.237956
     35          6           0       -7.123338   -2.634274    0.127997
     36          6           0       -6.478987   -3.908816    0.334462
     37          6           0       -5.126961   -3.660557    0.614182
     38          6           0       -4.990124   -2.318701    0.578203
     39          6           0       -7.200186   -5.232126    0.480032
     40          6           0       -3.831314   -4.300998    0.905465
     41          8           0       -3.593351   -5.466851    1.077031
     42          6           0       -2.762315   -3.113945    0.960302
     43          6           0       -1.697062   -3.238823   -0.103361
     44          8           0       -1.657664   -2.659173   -1.146440
     45          8           0       -0.834076   -4.256127    0.188825
     46          6           0        0.147763   -4.583379   -0.832192
     47          6           0        3.565477   -1.397434   -1.289659
     48          6           0        4.949140   -1.360657   -0.755795
     49          6           0        5.673160   -2.224953    0.006663
     50          6           0        5.107299   -3.479012    0.719126
     51          6           0        7.139478   -1.889776    0.436395
     52          6           0        8.163999   -1.835915   -0.804295
     53          6           0        8.665333   -0.430508   -1.187898
     54          6           0       10.045355   -0.105843   -0.523201
     55          6           0        9.892015    0.179185    0.981831
     56          6           0       10.721318    1.080398   -1.255843
     57          6           0       12.015047    0.611791   -2.006931
     58          6           0       12.876593    1.757565   -2.485183
     59          6           0       14.395981    1.459741   -2.120368
     60          6           0       15.319681    1.724310   -3.333576
     61          6           0       14.718367    2.217973   -0.824867
     62          6           0       15.608741    1.477176    0.230779
     63          6           0       15.101755    1.725959    1.668506
     64          6           0       13.814021    0.873686    1.999438
     65          6           0       12.956824    1.695257    3.060181
     66          6           0       14.034545   -0.639357    2.336945
     67          1           0       -3.660383    3.775821    1.639084
     68          1           0       -9.505544    3.387280   -0.283112
     69          1           0       -9.282787   -2.958606   -0.554704
     70          1           0       -1.395667   -0.508107    2.478529
     71          1           0       -1.592697    2.147436    1.970044
     72          1           0       -2.123210    2.168429    4.370124
     73          1           0       -2.736328    0.477735    4.270657
     74          1           0       -3.734998    1.885095    3.915241
     75          1           0       -0.589916    1.240284    0.468608
     76          1           0       -1.066456   -0.138983   -0.456034
     77          1           0        0.599266   -1.306339    1.405965
     78          1           0        1.266303    0.381386    1.114887
     79          1           0       -3.979504    5.760934    1.039103
     80          1           0       -5.514284    6.484376    1.457293
     81          1           0       -4.875822    6.491895   -0.240204
     82          1           0       -7.625911    7.169810    0.942437
     83          1           0       -8.652774    7.835528   -0.351375
     84          1           0       -6.960638    7.750104   -0.628775
     85          1           0      -10.968144    1.279173   -1.648300
     86          1           0      -11.160447   -1.212544   -0.375563
     87          1           0      -11.108107    0.498650    1.112820
     88          1           0      -12.525089    1.091934    0.198025
     89          1           0      -11.094964    2.200266    0.649374
     90          1           0       -9.717555   -1.904899   -2.781123
     91          1           0      -10.417839   -0.329276   -3.019257
     92          1           0      -11.569763   -2.655468   -3.682584
     93          1           0      -12.593283   -1.308094   -3.069246
     94          1           0      -12.004133   -2.595622   -1.951811
     95          1           0       -7.066204   -5.670144    1.468915
     96          1           0       -6.882788   -5.906509   -0.315691
     97          1           0       -8.263779   -5.059346    0.316821
     98          1           0       -2.279561   -3.173871    1.936354
     99          1           0        1.016280   -5.001390   -0.323692
    100          1           0        0.424745   -3.735827   -1.458814
    101          1           0       -0.214717   -5.344301   -1.523067
    102          1           0        3.412942   -0.723516   -2.132356
    103          1           0        3.335962   -2.391487   -1.673137
    104          1           0        5.564232   -0.514743   -1.065023
    105          1           0        5.612983   -4.405284    0.447808
    106          1           0        4.049176   -3.569739    0.472750
    107          1           0        5.294490   -3.410087    1.790990
    108          1           0        7.469556   -2.651817    1.141488
    109          1           0        7.055090   -0.922094    0.931422
    110          1           0        7.704477   -2.209193   -1.718759
    111          1           0        9.000942   -2.475835   -0.521520
    112          1           0        8.003920    0.379863   -0.881341
    113          1           0        8.864447   -0.261464   -2.246164
    114          1           0       10.605620   -1.000105   -0.798155
    115          1           0       10.465689   -0.514906    1.596939
    116          1           0        8.852307    0.088122    1.294946
    117          1           0       10.279465    1.114064    1.387313
    118          1           0       10.838313    1.952651   -0.612576
    119          1           0       10.237645    1.534447   -2.121080
    120          1           0       11.621311    0.214859   -2.943519
    121          1           0       12.606873   -0.124438   -1.461972
    122          1           0       12.559478    2.704300   -2.047649
    123          1           0       12.711623    1.799709   -3.561950
    124          1           0       14.618019    0.423257   -1.869064
    125          1           0       16.269243    2.175047   -3.045474
    126          1           0       14.844399    2.505682   -3.926342
    127          1           0       15.358556    0.897347   -4.042747
    128          1           0       13.843065    2.622404   -0.316352
    129          1           0       15.273917    3.074073   -1.205830
    130          1           0       16.599327    1.933105    0.220299
    131          1           0       15.690853    0.406165    0.046562
    132          1           0       14.959443    2.800893    1.778678
    133          1           0       15.885182    1.296279    2.293944
    134          1           0       13.284672    0.753820    1.054054
    135          1           0       13.479783    2.578813    3.427280
    136          1           0       12.747530    1.025493    3.894605
    137          1           0       11.955212    1.949996    2.712868
    138          1           0       15.097747   -0.733688    2.555100
    139          1           0       13.723295   -1.142154    1.421089
    140          1           0       13.430491   -1.002225    3.168444
 ---------------------------------------------------------------------

 SCF Done:  E(RZINDO/S) =  -473.980907706     A.U. after   19 cycles

 Excitation energies and oscillator strengths:

 Excited State   1:      Singlet-A      1.2249 eV 1012.20 nm  f=0.5850  <S**2>=0.000
     175 ->178        -0.18029
     176 ->177         0.66324
 This state for optimization and/or second-order correction.
 Total Energy, E(CIS/TDA) =  -473.935893494
 Copying the excited state density for this state as the 1-particle RhoCI density.

 Excited State   2:      Singlet-A      1.8712 eV  662.59 nm  f=0.0462  <S**2>=0.000
     175 ->177         0.55016
     176 ->178         0.41114

 Excited State   3:      Singlet-A      2.8834 eV  430.00 nm  f=0.8248  <S**2>=0.000
     171 ->177         0.14565
     175 ->177        -0.34538
     176 ->178         0.52262
     176 ->179         0.20038

 Excited State   4:      Singlet-A      3.0021 eV  412.99 nm  f=0.0181  <S**2>=0.000
     168 ->177         0.26344
     168 ->178        -0.21474
     168 ->179        -0.35728
     168 ->180         0.27409
     168 ->184        -0.14324
     168 ->186        -0.20131
     171 ->177        -0.13672

 Excited State   5:      Singlet-A      3.1420 eV  394.60 nm  f=0.0650  <S**2>=0.000
     171 ->177        -0.33115
     176 ->179         0.52805
     176 ->180         0.11643
     176 ->183         0.10173

 The electronic state is 1-A.
 Alpha  occ. eigenvalues --   -1.82316  -1.80329  -1.78529  -1.72979  -1.71643
 Alpha  occ. eigenvalues --   -1.70095  -1.65479  -1.60016  -1.59291  -1.57981
 Alpha  occ. eigenvalues --   -1.53506  -1.50804  -1.48714  -1.46434  -1.45438
 Alpha  occ. eigenvalues --   -1.43015  -1.41402  -1.40063  -1.39277  -1.37889
 Alpha  occ. eigenvalues --   -1.34615  -1.32194  -1.31574  -1.30774  -1.28327
 Alpha  occ. eigenvalues --   -1.26399  -1.24806  -1.22509  -1.21678  -1.17710
 Alpha  occ. eigenvalues --   -1.16376  -1.16264  -1.15281  -1.14910  -1.11910
 Alpha  occ. eigenvalues --   -1.11480  -1.10544  -1.09547  -1.04468  -1.03727
 Alpha  occ. eigenvalues --   -1.02074  -1.01192  -0.97911  -0.96875  -0.95988
 Alpha  occ. eigenvalues --   -0.94854  -0.94221  -0.93735  -0.92173  -0.92127
 Alpha  occ. eigenvalues --   -0.90529  -0.89047  -0.88751  -0.87881  -0.85838
 Alpha  occ. eigenvalues --   -0.85502  -0.83800  -0.83043  -0.81989  -0.79991
 Alpha  occ. eigenvalues --   -0.79308  -0.78439  -0.77605  -0.76727  -0.75615
 Alpha  occ. eigenvalues --   -0.75123  -0.74391  -0.74304  -0.73753  -0.73049
 Alpha  occ. eigenvalues --   -0.72489  -0.72106  -0.71740  -0.70904  -0.70278
 Alpha  occ. eigenvalues --   -0.69996  -0.69777  -0.69001  -0.68106  -0.67781
 Alpha  occ. eigenvalues --   -0.67610  -0.67326  -0.66679  -0.65724  -0.65372
 Alpha  occ. eigenvalues --   -0.64717  -0.64107  -0.63671  -0.63513  -0.63117
 Alpha  occ. eigenvalues --   -0.62768  -0.62397  -0.62230  -0.61962  -0.61654
 Alpha  occ. eigenvalues --   -0.61268  -0.61031  -0.60598  -0.60279  -0.59452
 Alpha  occ. eigenvalues --   -0.59214  -0.58952  -0.58867  -0.58501  -0.58212
 Alpha  occ. eigenvalues --   -0.57795  -0.57443  -0.57303  -0.56857  -0.56288
 Alpha  occ. eigenvalues --   -0.56097  -0.55589  -0.55306  -0.54888  -0.54421
 Alpha  occ. eigenvalues --   -0.54141  -0.53943  -0.53401  -0.52974  -0.52586
 Alpha  occ. eigenvalues --   -0.52329  -0.51806  -0.51642  -0.51567  -0.51301
 Alpha  occ. eigenvalues --   -0.50949  -0.50584  -0.50415  -0.49983  -0.49828
 Alpha  occ. eigenvalues --   -0.49643  -0.49596  -0.49261  -0.48982  -0.48699
 Alpha  occ. eigenvalues --   -0.48484  -0.47945  -0.47894  -0.47591  -0.47478
 Alpha  occ. eigenvalues --   -0.47185  -0.46978  -0.46761  -0.46360  -0.46302
 Alpha  occ. eigenvalues --   -0.46019  -0.45836  -0.45734  -0.45609  -0.45242
 Alpha  occ. eigenvalues --   -0.45116  -0.45043  -0.44801  -0.44394  -0.44153
 Alpha  occ. eigenvalues --   -0.43927  -0.43560  -0.42714  -0.42310  -0.42068
 Alpha  occ. eigenvalues --   -0.41728  -0.41087  -0.40200  -0.38813  -0.38293
 Alpha  occ. eigenvalues --   -0.37885  -0.37150  -0.36047  -0.34786  -0.34152
 Alpha  occ. eigenvalues --   -0.32865  -0.32265  -0.32174  -0.31800  -0.26200
 Alpha  occ. eigenvalues --   -0.21412
 Alpha virt. eigenvalues --   -0.08346  -0.02016   0.00084   0.01492   0.02181
 Alpha virt. eigenvalues --    0.02371   0.02976   0.03373   0.04615   0.04689
 Alpha virt. eigenvalues --    0.06281   0.06796   0.07171   0.07444   0.08338

 Mulliken charges:
               1
     1  Mg   0.429922
     2  C   -0.052540
     3  C   -0.095226
     4  C   -0.060693
     5  C   -0.062660
     6  N   -0.318469
     7  C    0.111589
     8  C    0.008610
     9  C    0.002737
    10  C    0.155863
    11  C   -0.047375
    12  C   -0.032914
    13  C    0.010991
    14  C    0.458838
    15  O   -0.495833
    16  O   -0.279909
    17  N   -0.320443
    18  C    0.144979
    19  C    0.015884
    20  C   -0.045863
    21  C    0.142947
    22  C   -0.038803
    23  C    0.329577
    24  O   -0.509549
    25  C   -0.029494
    26  N   -0.266106
    27  C    0.143828
    28  C    0.013125
    29  C   -0.000305
    30  C    0.107034
    31  C   -0.060542
    32  C   -0.036193
    33  C   -0.057784
    34  N   -0.334687
    35  C    0.084007
    36  C    0.015357
    37  C   -0.052182
    38  C    0.122313
    39  C   -0.041903
    40  C    0.336991
    41  O   -0.505087
    42  C    0.053980
    43  C    0.484119
    44  O   -0.498848
    45  O   -0.269132
    46  C    0.075826
    47  C    0.113605
    48  C   -0.083191
    49  C   -0.012284
    50  C   -0.045531
    51  C   -0.028778
    52  C   -0.030775
    53  C   -0.037074
    54  C   -0.011709
    55  C   -0.058513
    56  C   -0.046711
    57  C   -0.042463
    58  C   -0.035910
    59  C   -0.015402
    60  C   -0.062494
    61  C   -0.038133
    62  C   -0.042185
    63  C   -0.037147
    64  C   -0.026414
    65  C   -0.064400
    66  C   -0.058507
    67  H    0.015429
    68  H    0.047166
    69  H    0.042444
    70  H    0.021318
    71  H    0.027054
    72  H    0.021586
    73  H    0.029842
    74  H    0.022136
    75  H    0.013649
    76  H    0.052024
    77  H    0.047111
    78  H    0.042792
    79  H    0.023153
    80  H    0.030463
    81  H    0.032507
    82  H    0.031157
    83  H    0.033219
    84  H    0.046658
    85  H    0.025295
    86  H    0.025798
    87  H    0.016552
    88  H    0.033239
    89  H    0.029372
    90  H    0.023565
    91  H    0.014988
    92  H    0.023223
    93  H    0.022458
    94  H    0.018828
    95  H    0.036792
    96  H    0.034199
    97  H    0.011894
    98  H    0.048416
    99  H    0.026573
   100  H    0.053114
   101  H    0.039942
   102  H    0.055781
   103  H    0.039622
   104  H    0.019069
   105  H    0.026023
   106  H    0.024833
   107  H    0.027620
   108  H    0.021973
   109  H    0.033215
   110  H    0.022339
   111  H    0.021553
   112  H    0.019032
   113  H    0.017452
   114  H    0.026356
   115  H    0.009998
   116  H    0.020331
   117  H    0.022652
   118  H    0.018971
   119  H    0.016288
   120  H    0.015349
   121  H    0.026283
   122  H    0.024408
   123  H    0.015808
   124  H    0.019899
   125  H    0.023432
   126  H    0.006664
   127  H    0.024893
   128  H    0.024128
   129  H    0.012084
   130  H    0.011609
   131  H    0.025287
   132  H    0.029623
   133  H    0.015517
   134  H    0.018174
   135  H    0.025125
   136  H    0.012293
   137  H    0.020438
   138  H    0.023991
   139  H    0.021268
   140  H    0.024703
 Sum of Mulliken charges =  -0.00000

 Dipole moment (field-independent basis, Debye):
    X=              2.4072    Y=              6.8816    Z=              5.9985  Tot=              9.4410
 N-N= 4.236088875811D+03 E-N= 0.000000000000D+00  KE=-9.147149483665D+03
 Leave Link  601 at Sat Apr 30 08:33:32 2022, MaxMem=  6710886400 cpu:               0.8 elap:               0.1
 (Enter /sw/apps/gaussian-16.0/g16/l9999.exe)
 1\1\GINC-BP1-COMPUTE103\SP\RZINDO CIS\STO-3G\C55H74Mg1N4O6\OF15641\30-
 Apr-2022\0\\#p ZINDO=(nstates=5)\\step_651_chromophore_22 ZINDO\\0,1\M
 g,0,9.005,47.482,25.449\C,0,7.034,47.948,28.308\C,0,11.642,48.851,27.1
 38\C,0,10.847,47.588,22.516\C,0,5.982,47.182,23.499\N,0,9.268,48.359,2
 7.488\C,0,8.364,48.345,28.56\C,0,9.067,48.829,29.83\C,0,10.305,49.626,
 29.224\C,0,10.486,48.896,27.899\C,0,10.116,51.191,28.996\C,0,9.493,47.
 645,30.821\C,0,9.092,47.681,32.281\C,0,8.912,46.288,32.926\O,0,9.027,4

 Normal termination of Gaussian 16 at Sat Apr 30 08:33:32 2022.
