 Gaussian 16, Revision A.03,
 Gaussian 16:  ES64L-G16RevA.03 25-Dec-2016

 ------------------------------
 #p blyp/Def2SVP td=(nstates=5)
 ------------------------------

 --------------------------------------------------
 step_1501_chromophore_7 TDDFT with blyp functional
 --------------------------------------------------
 Symbolic Z-matrix:
 Charge =  0 Multiplicity = 1

                         Standard orientation:
 ---------------------------------------------------------------------
 Center     Atomic      Atomic             Coordinates (Angstroms)
 Number     Number       Type             X           Y           Z
 ---------------------------------------------------------------------
      1         12           0        6.072011    0.465138   -0.175921
      2          6           0        3.738352   -2.149809   -0.085976
      3          6           0        3.375783    2.490925   -0.999567
      4          6           0        8.013993    3.018746    0.266466
      5          6           0        8.561506   -1.817667    0.185884
      6          7           0        3.800363    0.132328   -0.507445
      7          6           0        3.117611   -1.004500   -0.338256
      8          6           0        1.642956   -0.763372   -0.378132
      9          6           0        1.571110    0.637209   -1.048164
     10          6           0        2.990663    1.143449   -0.794049
     11          6           0        1.142339    0.679886   -2.540385
     12          6           0        0.980985   -0.930300    1.030553
     13          6           0       -0.410367   -1.690629    1.022440
     14          6           0       -1.607390   -0.925255    1.701457
     15          8           0       -1.530443    0.020152    2.445785
     16          8           0       -2.774117   -1.505292    1.266185
     17          7           0        5.767078    2.457937   -0.460869
     18          6           0        4.624647    3.094453   -0.736026
     19          6           0        4.922308    4.498914   -0.817449
     20          6           0        6.289392    4.682055   -0.537250
     21          6           0        6.777426    3.333696   -0.224835
     22          6           0        3.808905    5.526104   -1.050088
     23          6           0        7.240563    5.985719   -0.602852
     24          8           0        8.444494    5.958729   -0.250862
     25          6           0        6.601712    7.343892   -1.010433
     26          7           0        8.098483    0.571587   -0.122099
     27          6           0        8.611915    1.744596    0.300610
     28          6           0       10.176431    1.575523    0.632496
     29          6           0       10.203051    0.061345    0.900191
     30          6           0        8.918840   -0.448869    0.165053
     31          6           0       11.140671    2.087774   -0.427329
     32          6           0       10.140486   -0.324873    2.486381
     33          6           0       11.071492   -1.453999    3.004419
     34          7           0        6.218033   -1.628248   -0.119958
     35          6           0        7.271991   -2.408984    0.085225
     36          6           0        6.914248   -3.727797    0.239226
     37          6           0        5.504164   -3.730823    0.173567
     38          6           0        5.125736   -2.410553   -0.044382
     39          6           0        7.891927   -4.848258    0.513501
     40          6           0        4.397106   -4.534607    0.301772
     41          8           0        4.318559   -5.729496    0.503884
     42          6           0        3.139740   -3.514842    0.173039
     43          6           0        2.260129   -4.119254   -0.889123
     44          8           0        2.365173   -3.866232   -2.060783
     45          8           0        1.310560   -4.824331   -0.275235
     46          6           0        0.154294   -5.102597   -1.098850
     47          6           0       -4.044603   -0.785706    1.507895
     48          6           0       -4.890491   -0.592559    0.243472
     49          6           0       -5.530363   -1.490211   -0.565017
     50          6           0       -5.634167   -2.995422   -0.312630
     51          6           0       -6.277599   -1.005270   -1.795948
     52          6           0       -7.780330   -0.991370   -1.707623
     53          6           0       -8.343577    0.356067   -2.283090
     54          6           0       -9.915646    0.183406   -2.679513
     55          6           0      -10.259758    1.132925   -3.785567
     56          6           0      -10.853165    0.327071   -1.530712
     57          6           0      -12.175935   -0.387427   -1.675941
     58          6           0      -13.325078    0.519780   -1.251364
     59          6           0      -14.214427   -0.085346   -0.166008
     60          6           0      -15.310223   -0.933247   -0.729506
     61          6           0      -14.707570    1.183992    0.629630
     62          6           0      -14.388918    1.158672    2.210478
     63          6           0      -13.406808    2.352051    2.637630
     64          6           0      -12.025699    1.902374    3.384645
     65          6           0      -11.768655    2.629173    4.733625
     66          6           0      -10.756893    2.224095    2.496046
     67          1           0        2.525576    3.108265   -1.298880
     68          1           0        8.809873    3.720134    0.526155
     69          1           0        9.332752   -2.556993    0.411878
     70          1           0        1.130570   -1.474570   -1.026335
     71          1           0        0.938178    1.256343   -0.412191
     72          1           0        0.681096   -0.241508   -2.896500
     73          1           0        2.045261    0.966779   -3.079971
     74          1           0        0.505011    1.550636   -2.692282
     75          1           0        0.883799    0.083156    1.422319
     76          1           0        1.587623   -1.436476    1.781526
     77          1           0       -0.312507   -2.627333    1.571445
     78          1           0       -0.792479   -1.859471    0.014814
     79          1           0        2.817110    5.109979   -0.877804
     80          1           0        3.876649    5.770527   -2.109932
     81          1           0        3.816334    6.430105   -0.440241
     82          1           0        7.293270    8.157196   -0.791998
     83          1           0        5.716451    7.342313   -0.374115
     84          1           0        6.385773    7.316873   -2.078500
     85          1           0       10.389502    2.080301    1.574725
     86          1           0       11.035950   -0.512936    0.495388
     87          1           0       10.681000    2.955224   -0.900771
     88          1           0       11.323855    1.393408   -1.248234
     89          1           0       11.963707    2.581518    0.088740
     90          1           0        9.139441   -0.714180    2.673095
     91          1           0       10.124974    0.538727    3.151684
     92          1           0       11.421359   -1.316053    4.027101
     93          1           0       11.971270   -1.473232    2.388227
     94          1           0       10.588434   -2.424828    2.905809
     95          1           0        7.498543   -5.346184    1.400041
     96          1           0        8.897642   -4.572975    0.832383
     97          1           0        7.968616   -5.618177   -0.255013
     98          1           0        2.544291   -3.525618    1.086230
     99          1           0        0.443306   -5.132947   -2.149299
    100          1           0       -0.380894   -4.159742   -0.988657
    101          1           0       -0.342221   -6.052231   -0.897535
    102          1           0       -3.751448    0.205858    1.855440
    103          1           0       -4.602565   -1.379903    2.230643
    104          1           0       -5.127430    0.442749    0.002227
    105          1           0       -6.713059   -3.140702   -0.353373
    106          1           0       -5.173895   -3.321504    0.620690
    107          1           0       -5.080087   -3.499335   -1.104130
    108          1           0       -5.974864   -1.799683   -2.477920
    109          1           0       -5.834206   -0.093960   -2.197369
    110          1           0       -7.984774   -1.190804   -0.655542
    111          1           0       -8.103001   -1.874678   -2.257806
    112          1           0       -7.599805    0.751122   -2.974838
    113          1           0       -8.404900    1.126359   -1.513249
    114          1           0       -9.934607   -0.804564   -3.141262
    115          1           0      -10.651464    0.515349   -4.592975
    116          1           0       -9.460220    1.815627   -4.072564
    117          1           0      -11.109897    1.721092   -3.436746
    118          1           0      -10.965688    1.398178   -1.367968
    119          1           0      -10.432949   -0.132376   -0.635713
    120          1           0      -12.222724   -1.284960   -1.059062
    121          1           0      -12.276853   -0.714617   -2.710479
    122          1           0      -13.935178    0.682704   -2.139463
    123          1           0      -12.906417    1.457087   -0.883654
    124          1           0      -13.640565   -0.684526    0.541445
    125          1           0      -15.316666   -1.859263   -0.154338
    126          1           0      -14.957636   -1.222916   -1.719843
    127          1           0      -16.304187   -0.486487   -0.700573
    128          1           0      -15.793208    1.202987    0.735459
    129          1           0      -14.394958    2.123282    0.173249
    130          1           0      -14.083876    0.209432    2.651841
    131          1           0      -15.346996    1.366640    2.686084
    132          1           0      -14.021665    2.941960    3.316698
    133          1           0      -13.166480    3.018462    1.809148
    134          1           0      -11.986849    0.845814    3.649005
    135          1           0      -11.152927    3.527367    4.699194
    136          1           0      -11.283220    1.883164    5.362263
    137          1           0      -12.732096    3.018315    5.063687
    138          1           0      -10.195198    3.057863    2.917101
    139          1           0      -11.123776    2.526625    1.515084
    140          1           0      -10.057285    1.389003    2.520356
 ---------------------------------------------------------------------

 SCF Done:  E(RB-LYP) =  -3007.33592519     A.U. after   21 cycles

 Excitation energies and oscillator strengths:

 Excited State   1:      Singlet-A      1.8066 eV  686.27 nm  f=0.0653  <S**2>=0.000
     244 -> 247        0.61226
     246 -> 247       -0.34348
 This state for optimization and/or second-order correction.
 Total Energy, E(TD-HF/TD-DFT) =  -3007.26953269
 Copying the excited state density for this state as the 1-particle RhoCI density.

 Excited State   2:      Singlet-A      1.8673 eV  663.98 nm  f=0.2192  <S**2>=0.000
     244 -> 247        0.35278
     245 -> 248       -0.14765
     245 -> 249       -0.10476
     246 -> 247        0.58811
     246 <- 247       -0.12265

 Excited State   3:      Singlet-A      2.0278 eV  611.42 nm  f=0.1132  <S**2>=0.000
     243 -> 247       -0.18278
     245 -> 247        0.63500
     246 -> 248        0.17996
     246 -> 249        0.11899

 Excited State   4:      Singlet-A      2.1623 eV  573.39 nm  f=0.0092  <S**2>=0.000
     243 -> 247        0.67975
     245 -> 247        0.16337

 Excited State   5:      Singlet-A      2.4973 eV  496.46 nm  f=0.0002  <S**2>=0.000
     241 -> 247        0.70659

 The electronic state is 1-A.
 Alpha  occ. eigenvalues --  -46.26654 -18.81943 -18.81527 -18.77284 -18.76709
 Alpha  occ. eigenvalues --  -18.75986 -18.74887 -14.03051 -14.02513 -14.01082
 Alpha  occ. eigenvalues --  -13.99855 -10.04249 -10.02936 -10.01489  -9.98280
 Alpha  occ. eigenvalues --   -9.97996  -9.97363  -9.96380  -9.96263  -9.96105
 Alpha  occ. eigenvalues --   -9.95754  -9.95704  -9.95023  -9.94088  -9.94018
 Alpha  occ. eigenvalues --   -9.93949  -9.93809  -9.93689  -9.93642  -9.93602
 Alpha  occ. eigenvalues --   -9.93588  -9.93460  -9.93345  -9.93276  -9.93264
 Alpha  occ. eigenvalues --   -9.92946  -9.92869  -9.92830  -9.92651  -9.92567
 Alpha  occ. eigenvalues --   -9.92565  -9.92477  -9.92465  -9.92401  -9.92229
 Alpha  occ. eigenvalues --   -9.92162  -9.92082  -9.92020  -9.91930  -9.91915
 Alpha  occ. eigenvalues --   -9.91903  -9.91896  -9.91886  -9.91779  -9.91772
 Alpha  occ. eigenvalues --   -9.91733  -9.91447  -9.91124  -9.90902  -9.90897
 Alpha  occ. eigenvalues --   -9.90788  -9.90776  -9.90624  -9.90618  -9.90593
 Alpha  occ. eigenvalues --   -9.89802  -2.91428  -1.71859  -1.71323  -1.71127
 Alpha  occ. eigenvalues --   -0.99008  -0.97603  -0.90974  -0.90551  -0.90513
 Alpha  occ. eigenvalues --   -0.90361  -0.87797  -0.87028  -0.86908  -0.86059
 Alpha  occ. eigenvalues --   -0.75593  -0.74319  -0.73552  -0.72267  -0.72098
 Alpha  occ. eigenvalues --   -0.71945  -0.71293  -0.70909  -0.70177  -0.70058
 Alpha  occ. eigenvalues --   -0.69704  -0.69106  -0.68161  -0.67383  -0.67241
 Alpha  occ. eigenvalues --   -0.66548  -0.65905  -0.65482  -0.65191  -0.64921
 Alpha  occ. eigenvalues --   -0.64657  -0.62614  -0.62331  -0.61621  -0.60600
 Alpha  occ. eigenvalues --   -0.60381  -0.59995  -0.59920  -0.59336  -0.58844
 Alpha  occ. eigenvalues --   -0.58431  -0.58078  -0.56622  -0.55648  -0.54345
 Alpha  occ. eigenvalues --   -0.53976  -0.53900  -0.52676  -0.52312  -0.51614
 Alpha  occ. eigenvalues --   -0.51350  -0.50897  -0.50820  -0.50648  -0.49889
 Alpha  occ. eigenvalues --   -0.49509  -0.49259  -0.48953  -0.48476  -0.46693
 Alpha  occ. eigenvalues --   -0.46302  -0.46132  -0.45164  -0.45042  -0.44515
 Alpha  occ. eigenvalues --   -0.43982  -0.43611  -0.43109  -0.43082  -0.42670
 Alpha  occ. eigenvalues --   -0.42109  -0.42047  -0.41437  -0.41248  -0.41082
 Alpha  occ. eigenvalues --   -0.40936  -0.40729  -0.40414  -0.40343  -0.40084
 Alpha  occ. eigenvalues --   -0.39806  -0.39783  -0.39533  -0.39393  -0.39085
 Alpha  occ. eigenvalues --   -0.38859  -0.38730  -0.38458  -0.38331  -0.38175
 Alpha  occ. eigenvalues --   -0.38103  -0.38006  -0.37871  -0.37645  -0.37500
 Alpha  occ. eigenvalues --   -0.37120  -0.37068  -0.36737  -0.36671  -0.36435
 Alpha  occ. eigenvalues --   -0.36319  -0.36181  -0.35966  -0.35745  -0.35699
 Alpha  occ. eigenvalues --   -0.35575  -0.35395  -0.35056  -0.34620  -0.34596
 Alpha  occ. eigenvalues --   -0.34578  -0.34460  -0.34238  -0.33945  -0.33780
 Alpha  occ. eigenvalues --   -0.33686  -0.33521  -0.33420  -0.33337  -0.33059
 Alpha  occ. eigenvalues --   -0.32984  -0.32878  -0.32437  -0.32375  -0.32209
 Alpha  occ. eigenvalues --   -0.32081  -0.31962  -0.31834  -0.31627  -0.31572
 Alpha  occ. eigenvalues --   -0.31366  -0.31334  -0.31196  -0.30957  -0.30684
 Alpha  occ. eigenvalues --   -0.30585  -0.30299  -0.30049  -0.29876  -0.29828
 Alpha  occ. eigenvalues --   -0.29672  -0.29615  -0.29063  -0.29034  -0.28968
 Alpha  occ. eigenvalues --   -0.28696  -0.28321  -0.28064  -0.27949  -0.27865
 Alpha  occ. eigenvalues --   -0.27571  -0.27439  -0.27184  -0.26919  -0.26453
 Alpha  occ. eigenvalues --   -0.26395  -0.26061  -0.25513  -0.25182  -0.24831
 Alpha  occ. eigenvalues --   -0.24737  -0.24585  -0.24176  -0.24036  -0.23736
 Alpha  occ. eigenvalues --   -0.23168  -0.22483  -0.22323  -0.21412  -0.21073
 Alpha  occ. eigenvalues --   -0.20646  -0.20190  -0.19280  -0.18068  -0.17157
 Alpha  occ. eigenvalues --   -0.15963
 Alpha virt. eigenvalues --   -0.11469  -0.06895  -0.05791  -0.04348  -0.03273
 Alpha virt. eigenvalues --   -0.01976  -0.01693  -0.01163  -0.00837   0.00186
 Alpha virt. eigenvalues --    0.01180   0.01696   0.02245   0.02457   0.02646

 Mulliken charges:
               1
     1  Mg   0.675820
     2  C    0.125045
     3  C   -0.074009
     4  C   -0.025219
     5  C   -0.062297
     6  N   -0.136743
     7  C   -0.135505
     8  C    0.001368
     9  C    0.018325
    10  C   -0.048530
    11  C    0.161594
    12  C    0.138987
    13  C    0.061130
    14  C    0.063761
    15  O   -0.163743
    16  O   -0.287126
    17  N   -0.280372
    18  C    0.162401
    19  C   -0.141276
    20  C    0.000655
    21  C    0.157236
    22  C    0.147569
    23  C   -0.032554
    24  O   -0.181349
    25  C    0.122449
    26  N   -0.228390
    27  C   -0.037410
    28  C    0.021230
    29  C    0.007038
    30  C    0.040603
    31  C    0.176077
    32  C    0.071770
    33  C    0.056323
    34  N   -0.205336
    35  C    0.079571
    36  C   -0.146610
    37  C    0.183917
    38  C    0.012430
    39  C    0.162664
    40  C   -0.122519
    41  O   -0.121762
    42  C   -0.027585
    43  C    0.090535
    44  O   -0.171096
    45  O   -0.238495
    46  C    0.217901
    47  C    0.333681
    48  C   -0.121643
    49  C   -0.190465
    50  C    0.150839
    51  C    0.130653
    52  C    0.087418
    53  C    0.075209
    54  C   -0.109189
    55  C    0.145270
    56  C    0.109833
    57  C    0.105861
    58  C    0.071136
    59  C   -0.085487
    60  C    0.156633
    61  C    0.092432
    62  C    0.044966
    63  C    0.093991
    64  C   -0.105299
    65  C    0.088126
    66  C    0.091659
    67  H   -0.069763
    68  H   -0.038215
    69  H   -0.074067
    70  H   -0.031029
    71  H   -0.035264
    72  H    0.014229
    73  H   -0.007858
    74  H   -0.012407
    75  H   -0.016254
    76  H   -0.015553
    77  H    0.022996
    78  H    0.018055
    79  H   -0.010389
    80  H    0.002685
    81  H    0.007450
    82  H    0.003009
    83  H    0.014602
    84  H    0.018566
    85  H   -0.032574
    86  H   -0.033550
    87  H   -0.021028
    88  H   -0.000866
    89  H   -0.008651
    90  H   -0.021483
    91  H   -0.022845
    92  H   -0.005649
    93  H   -0.013570
    94  H   -0.000030
    95  H   -0.002815
    96  H   -0.022416
    97  H    0.009796
    98  H   -0.008904
    99  H    0.009754
   100  H   -0.004189
   101  H    0.030227
   102  H   -0.003558
   103  H    0.003745
   104  H   -0.039892
   105  H    0.002080
   106  H   -0.007427
   107  H    0.002418
   108  H   -0.041609
   109  H   -0.026775
   110  H   -0.013158
   111  H   -0.026100
   112  H   -0.022477
   113  H   -0.031948
   114  H   -0.040908
   115  H   -0.017578
   116  H   -0.011235
   117  H   -0.034878
   118  H   -0.021011
   119  H   -0.036073
   120  H   -0.036064
   121  H   -0.040710
   122  H   -0.031406
   123  H   -0.020191
   124  H   -0.036342
   125  H   -0.028012
   126  H   -0.024135
   127  H   -0.005595
   128  H   -0.045476
   129  H   -0.021726
   130  H   -0.023641
   131  H   -0.036221
   132  H   -0.034643
   133  H   -0.028790
   134  H   -0.026423
   135  H   -0.015781
   136  H   -0.008407
   137  H   -0.022629
   138  H   -0.021696
   139  H   -0.009419
   140  H   -0.012409
 Sum of Mulliken charges =  -0.00000

 Dipole moment (field-independent basis, Debye):
    X=             -4.3845    Y=              2.6675    Z=             -0.4485  Tot=              5.1518
 Quadrupole moment (field-independent basis, Debye-Ang):
   XX=           -372.5652   YY=           -422.8642   ZZ=           -410.2167
   XY=             11.7597   XZ=             15.5098   YZ=             -8.0709

 Normal termination of Gaussian 16 at Thu Apr 28 09:11:25 2022.
