 Gaussian 16, Revision A.03,
 Gaussian 16:  ES64L-G16RevA.03 25-Dec-2016

 -----------------------------------
 #p cam-b3lyp/Def2SVP td=(nstates=5)
 -----------------------------------

 -------------------------------------------------------
 step_1501_chromophore_7 TDDFT with cam-b3lyp functional
 -------------------------------------------------------
 Symbolic Z-matrix:
 Charge =  0 Multiplicity = 1

                         Standard orientation:
 ---------------------------------------------------------------------
 Center     Atomic      Atomic             Coordinates (Angstroms)
 Number     Number       Type             X           Y           Z
 ---------------------------------------------------------------------
      1         12           0        6.072011    0.465138   -0.175921
      2          6           0        3.738352   -2.149809   -0.085976
      3          6           0        3.375783    2.490925   -0.999567
      4          6           0        8.013993    3.018746    0.266466
      5          6           0        8.561506   -1.817667    0.185884
      6          7           0        3.800363    0.132328   -0.507445
      7          6           0        3.117611   -1.004500   -0.338256
      8          6           0        1.642956   -0.763372   -0.378132
      9          6           0        1.571110    0.637209   -1.048164
     10          6           0        2.990663    1.143449   -0.794049
     11          6           0        1.142339    0.679886   -2.540385
     12          6           0        0.980985   -0.930300    1.030553
     13          6           0       -0.410367   -1.690629    1.022440
     14          6           0       -1.607390   -0.925255    1.701457
     15          8           0       -1.530443    0.020152    2.445785
     16          8           0       -2.774117   -1.505292    1.266185
     17          7           0        5.767078    2.457937   -0.460869
     18          6           0        4.624647    3.094453   -0.736026
     19          6           0        4.922308    4.498914   -0.817449
     20          6           0        6.289392    4.682055   -0.537250
     21          6           0        6.777426    3.333696   -0.224835
     22          6           0        3.808905    5.526104   -1.050088
     23          6           0        7.240563    5.985719   -0.602852
     24          8           0        8.444494    5.958729   -0.250862
     25          6           0        6.601712    7.343892   -1.010433
     26          7           0        8.098483    0.571587   -0.122099
     27          6           0        8.611915    1.744596    0.300610
     28          6           0       10.176431    1.575523    0.632496
     29          6           0       10.203051    0.061345    0.900191
     30          6           0        8.918840   -0.448869    0.165053
     31          6           0       11.140671    2.087774   -0.427329
     32          6           0       10.140486   -0.324873    2.486381
     33          6           0       11.071492   -1.453999    3.004419
     34          7           0        6.218033   -1.628248   -0.119958
     35          6           0        7.271991   -2.408984    0.085225
     36          6           0        6.914248   -3.727797    0.239226
     37          6           0        5.504164   -3.730823    0.173567
     38          6           0        5.125736   -2.410553   -0.044382
     39          6           0        7.891927   -4.848258    0.513501
     40          6           0        4.397106   -4.534607    0.301772
     41          8           0        4.318559   -5.729496    0.503884
     42          6           0        3.139740   -3.514842    0.173039
     43          6           0        2.260129   -4.119254   -0.889123
     44          8           0        2.365173   -3.866232   -2.060783
     45          8           0        1.310560   -4.824331   -0.275235
     46          6           0        0.154294   -5.102597   -1.098850
     47          6           0       -4.044603   -0.785706    1.507895
     48          6           0       -4.890491   -0.592559    0.243472
     49          6           0       -5.530363   -1.490211   -0.565017
     50          6           0       -5.634167   -2.995422   -0.312630
     51          6           0       -6.277599   -1.005270   -1.795948
     52          6           0       -7.780330   -0.991370   -1.707623
     53          6           0       -8.343577    0.356067   -2.283090
     54          6           0       -9.915646    0.183406   -2.679513
     55          6           0      -10.259758    1.132925   -3.785567
     56          6           0      -10.853165    0.327071   -1.530712
     57          6           0      -12.175935   -0.387427   -1.675941
     58          6           0      -13.325078    0.519780   -1.251364
     59          6           0      -14.214427   -0.085346   -0.166008
     60          6           0      -15.310223   -0.933247   -0.729506
     61          6           0      -14.707570    1.183992    0.629630
     62          6           0      -14.388918    1.158672    2.210478
     63          6           0      -13.406808    2.352051    2.637630
     64          6           0      -12.025699    1.902374    3.384645
     65          6           0      -11.768655    2.629173    4.733625
     66          6           0      -10.756893    2.224095    2.496046
     67          1           0        2.525576    3.108265   -1.298880
     68          1           0        8.809873    3.720134    0.526155
     69          1           0        9.332752   -2.556993    0.411878
     70          1           0        1.130570   -1.474570   -1.026335
     71          1           0        0.938178    1.256343   -0.412191
     72          1           0        0.681096   -0.241508   -2.896500
     73          1           0        2.045261    0.966779   -3.079971
     74          1           0        0.505011    1.550636   -2.692282
     75          1           0        0.883799    0.083156    1.422319
     76          1           0        1.587623   -1.436476    1.781526
     77          1           0       -0.312507   -2.627333    1.571445
     78          1           0       -0.792479   -1.859471    0.014814
     79          1           0        2.817110    5.109979   -0.877804
     80          1           0        3.876649    5.770527   -2.109932
     81          1           0        3.816334    6.430105   -0.440241
     82          1           0        7.293270    8.157196   -0.791998
     83          1           0        5.716451    7.342313   -0.374115
     84          1           0        6.385773    7.316873   -2.078500
     85          1           0       10.389502    2.080301    1.574725
     86          1           0       11.035950   -0.512936    0.495388
     87          1           0       10.681000    2.955224   -0.900771
     88          1           0       11.323855    1.393408   -1.248234
     89          1           0       11.963707    2.581518    0.088740
     90          1           0        9.139441   -0.714180    2.673095
     91          1           0       10.124974    0.538727    3.151684
     92          1           0       11.421359   -1.316053    4.027101
     93          1           0       11.971270   -1.473232    2.388227
     94          1           0       10.588434   -2.424828    2.905809
     95          1           0        7.498543   -5.346184    1.400041
     96          1           0        8.897642   -4.572975    0.832383
     97          1           0        7.968616   -5.618177   -0.255013
     98          1           0        2.544291   -3.525618    1.086230
     99          1           0        0.443306   -5.132947   -2.149299
    100          1           0       -0.380894   -4.159742   -0.988657
    101          1           0       -0.342221   -6.052231   -0.897535
    102          1           0       -3.751448    0.205858    1.855440
    103          1           0       -4.602565   -1.379903    2.230643
    104          1           0       -5.127430    0.442749    0.002227
    105          1           0       -6.713059   -3.140702   -0.353373
    106          1           0       -5.173895   -3.321504    0.620690
    107          1           0       -5.080087   -3.499335   -1.104130
    108          1           0       -5.974864   -1.799683   -2.477920
    109          1           0       -5.834206   -0.093960   -2.197369
    110          1           0       -7.984774   -1.190804   -0.655542
    111          1           0       -8.103001   -1.874678   -2.257806
    112          1           0       -7.599805    0.751122   -2.974838
    113          1           0       -8.404900    1.126359   -1.513249
    114          1           0       -9.934607   -0.804564   -3.141262
    115          1           0      -10.651464    0.515349   -4.592975
    116          1           0       -9.460220    1.815627   -4.072564
    117          1           0      -11.109897    1.721092   -3.436746
    118          1           0      -10.965688    1.398178   -1.367968
    119          1           0      -10.432949   -0.132376   -0.635713
    120          1           0      -12.222724   -1.284960   -1.059062
    121          1           0      -12.276853   -0.714617   -2.710479
    122          1           0      -13.935178    0.682704   -2.139463
    123          1           0      -12.906417    1.457087   -0.883654
    124          1           0      -13.640565   -0.684526    0.541445
    125          1           0      -15.316666   -1.859263   -0.154338
    126          1           0      -14.957636   -1.222916   -1.719843
    127          1           0      -16.304187   -0.486487   -0.700573
    128          1           0      -15.793208    1.202987    0.735459
    129          1           0      -14.394958    2.123282    0.173249
    130          1           0      -14.083876    0.209432    2.651841
    131          1           0      -15.346996    1.366640    2.686084
    132          1           0      -14.021665    2.941960    3.316698
    133          1           0      -13.166480    3.018462    1.809148
    134          1           0      -11.986849    0.845814    3.649005
    135          1           0      -11.152927    3.527367    4.699194
    136          1           0      -11.283220    1.883164    5.362263
    137          1           0      -12.732096    3.018315    5.063687
    138          1           0      -10.195198    3.057863    2.917101
    139          1           0      -11.123776    2.526625    1.515084
    140          1           0      -10.057285    1.389003    2.520356
 ---------------------------------------------------------------------

 SCF Done:  E(RCAM-B3LYP) =  -3007.13932546     A.U. after   18 cycles

 Excitation energies and oscillator strengths:

 Excited State   1:      Singlet-A      1.8219 eV  680.53 nm  f=0.3798  <S**2>=0.000
     245 -> 248       -0.16680
     246 -> 247        0.68619
 This state for optimization and/or second-order correction.
 Total Energy, E(TD-HF/TD-DFT) =  -3007.07237318
 Copying the excited state density for this state as the 1-particle RhoCI density.

 Excited State   2:      Singlet-A      2.2638 eV  547.68 nm  f=0.1497  <S**2>=0.000
     245 -> 247        0.65080
     246 -> 248        0.25469

 Excited State   3:      Singlet-A      3.4477 eV  359.61 nm  f=0.0004  <S**2>=0.000
     241 -> 247       -0.22287
     244 -> 247        0.65307

 Excited State   4:      Singlet-A      3.4901 eV  355.24 nm  f=0.0004  <S**2>=0.000
     243 -> 247        0.59910
     243 -> 249        0.24798
     243 -> 250        0.24134

 Excited State   5:      Singlet-A      3.6046 eV  343.96 nm  f=0.2632  <S**2>=0.000
     239 -> 247        0.18647
     241 -> 247       -0.38365
     245 -> 247       -0.16587
     246 -> 248        0.51397

 The electronic state is 1-A.
 Alpha  occ. eigenvalues --  -46.88174 -19.24779 -19.24376 -19.20369 -19.20240
 Alpha  occ. eigenvalues --  -19.18929 -19.17504 -14.41897 -14.41374 -14.39755
 Alpha  occ. eigenvalues --  -14.37928 -10.39538 -10.38156 -10.37289 -10.33170
 Alpha  occ. eigenvalues --  -10.32177 -10.31313 -10.31276 -10.30904 -10.30683
 Alpha  occ. eigenvalues --  -10.30618 -10.30273 -10.29241 -10.29059 -10.28428
 Alpha  occ. eigenvalues --  -10.28120 -10.27798 -10.27712 -10.27699 -10.27684
 Alpha  occ. eigenvalues --  -10.27594 -10.27498 -10.27414 -10.27411 -10.27330
 Alpha  occ. eigenvalues --  -10.27247 -10.27143 -10.26620 -10.26487 -10.26360
 Alpha  occ. eigenvalues --  -10.26344 -10.26290 -10.26274 -10.26272 -10.26238
 Alpha  occ. eigenvalues --  -10.26213 -10.25907 -10.25827 -10.25729 -10.25600
 Alpha  occ. eigenvalues --  -10.25598 -10.25523 -10.25515 -10.25488 -10.25431
 Alpha  occ. eigenvalues --  -10.25241 -10.25111 -10.24853 -10.24500 -10.24487
 Alpha  occ. eigenvalues --  -10.24397 -10.24321 -10.24244 -10.24194 -10.24160
 Alpha  occ. eigenvalues --  -10.23196  -3.16862  -1.91765  -1.91331  -1.91158
 Alpha  occ. eigenvalues --   -1.17498  -1.16081  -1.09263  -1.08903  -1.08453
 Alpha  occ. eigenvalues --   -1.08209  -1.05614  -1.04833  -1.04514  -1.03627
 Alpha  occ. eigenvalues --   -0.92498  -0.91201  -0.90376  -0.89084  -0.88978
 Alpha  occ. eigenvalues --   -0.88611  -0.87892  -0.87518  -0.86994  -0.86732
 Alpha  occ. eigenvalues --   -0.85962  -0.85419  -0.84435  -0.83462  -0.83318
 Alpha  occ. eigenvalues --   -0.82622  -0.82175  -0.81452  -0.81088  -0.80946
 Alpha  occ. eigenvalues --   -0.80432  -0.78436  -0.78093  -0.77052  -0.75925
 Alpha  occ. eigenvalues --   -0.75704  -0.75307  -0.75218  -0.74645  -0.74054
 Alpha  occ. eigenvalues --   -0.73487  -0.73026  -0.71527  -0.70434  -0.68810
 Alpha  occ. eigenvalues --   -0.68562  -0.68409  -0.67157  -0.66822  -0.65722
 Alpha  occ. eigenvalues --   -0.65465  -0.65133  -0.65024  -0.64632  -0.63900
 Alpha  occ. eigenvalues --   -0.63464  -0.63022  -0.62873  -0.62177  -0.60652
 Alpha  occ. eigenvalues --   -0.59934  -0.59629  -0.58570  -0.58431  -0.57836
 Alpha  occ. eigenvalues --   -0.57428  -0.57058  -0.56462  -0.56426  -0.55854
 Alpha  occ. eigenvalues --   -0.55307  -0.54808  -0.54538  -0.54381  -0.53993
 Alpha  occ. eigenvalues --   -0.53586  -0.53452  -0.53355  -0.53115  -0.53048
 Alpha  occ. eigenvalues --   -0.52761  -0.52553  -0.52322  -0.52020  -0.51639
 Alpha  occ. eigenvalues --   -0.51438  -0.51179  -0.50886  -0.50852  -0.50673
 Alpha  occ. eigenvalues --   -0.50541  -0.50344  -0.50128  -0.50039  -0.49923
 Alpha  occ. eigenvalues --   -0.49686  -0.49194  -0.49103  -0.48957  -0.48853
 Alpha  occ. eigenvalues --   -0.48637  -0.48489  -0.48231  -0.48135  -0.48055
 Alpha  occ. eigenvalues --   -0.47680  -0.47429  -0.47346  -0.46808  -0.46624
 Alpha  occ. eigenvalues --   -0.46340  -0.46159  -0.45928  -0.45740  -0.45510
 Alpha  occ. eigenvalues --   -0.45420  -0.45239  -0.45201  -0.45117  -0.44817
 Alpha  occ. eigenvalues --   -0.44700  -0.44386  -0.44251  -0.44079  -0.43986
 Alpha  occ. eigenvalues --   -0.43753  -0.43476  -0.43360  -0.43198  -0.42989
 Alpha  occ. eigenvalues --   -0.42942  -0.42811  -0.42680  -0.42517  -0.42209
 Alpha  occ. eigenvalues --   -0.41927  -0.41639  -0.41400  -0.41169  -0.41064
 Alpha  occ. eigenvalues --   -0.40996  -0.40831  -0.40687  -0.40359  -0.40101
 Alpha  occ. eigenvalues --   -0.40042  -0.39384  -0.39101  -0.38842  -0.38746
 Alpha  occ. eigenvalues --   -0.38636  -0.38395  -0.37973  -0.37732  -0.37385
 Alpha  occ. eigenvalues --   -0.37147  -0.37028  -0.36310  -0.36268  -0.36194
 Alpha  occ. eigenvalues --   -0.36010  -0.35190  -0.34631  -0.34422  -0.34242
 Alpha  occ. eigenvalues --   -0.34089  -0.33820  -0.32982  -0.31957  -0.31494
 Alpha  occ. eigenvalues --   -0.30800  -0.30272  -0.29537  -0.29050  -0.23941
 Alpha  occ. eigenvalues --   -0.21451
 Alpha virt. eigenvalues --   -0.08512  -0.01395   0.00476   0.02711   0.03107
 Alpha virt. eigenvalues --    0.04190   0.05714   0.06216   0.06815   0.07144
 Alpha virt. eigenvalues --    0.07787   0.08305   0.08386   0.08733   0.08794

 Mulliken charges:
               1
     1  Mg   0.812367
     2  C    0.091303
     3  C   -0.090215
     4  C   -0.049483
     5  C   -0.065779
     6  N   -0.206923
     7  C   -0.093239
     8  C   -0.042967
     9  C   -0.039037
    10  C   -0.024150
    11  C    0.102039
    12  C    0.085905
    13  C   -0.006989
    14  C    0.150754
    15  O   -0.207791
    16  O   -0.352371
    17  N   -0.375386
    18  C    0.176167
    19  C   -0.147092
    20  C   -0.056238
    21  C    0.180507
    22  C    0.089991
    23  C    0.046979
    24  O   -0.218991
    25  C    0.049845
    26  N   -0.302096
    27  C   -0.013477
    28  C   -0.032677
    29  C   -0.051906
    30  C    0.058835
    31  C    0.113186
    32  C    0.017742
    33  C   -0.002230
    34  N   -0.296833
    35  C    0.077692
    36  C   -0.146295
    37  C    0.099223
    38  C    0.051866
    39  C    0.116572
    40  C   -0.029645
    41  O   -0.165888
    42  C   -0.091378
    43  C    0.174872
    44  O   -0.209392
    45  O   -0.300123
    46  C    0.176906
    47  C    0.302491
    48  C   -0.148107
    49  C   -0.206822
    50  C    0.093064
    51  C    0.068829
    52  C    0.031981
    53  C    0.026589
    54  C   -0.163980
    55  C    0.083961
    56  C    0.054820
    57  C    0.053500
    58  C    0.015612
    59  C   -0.138321
    60  C    0.094797
    61  C    0.039539
    62  C   -0.007986
    63  C    0.042706
    64  C   -0.165050
    65  C    0.032123
    66  C    0.039419
    67  H   -0.033630
    68  H    0.002629
    69  H   -0.039281
    70  H    0.001469
    71  H    0.000991
    72  H    0.039517
    73  H    0.019056
    74  H    0.011840
    75  H    0.016397
    76  H    0.016300
    77  H    0.053039
    78  H    0.046180
    79  H    0.019074
    80  H    0.031584
    81  H    0.034911
    82  H    0.038056
    83  H    0.036240
    84  H    0.046131
    85  H    0.003975
    86  H    0.001742
    87  H    0.004735
    88  H    0.025414
    89  H    0.017948
    90  H    0.008710
    91  H    0.004059
    92  H    0.018802
    93  H    0.008019
    94  H    0.020670
    95  H    0.021335
    96  H   -0.000001
    97  H    0.034120
    98  H    0.031294
    99  H    0.038573
   100  H    0.015313
   101  H    0.053231
   102  H    0.030706
   103  H    0.030457
   104  H   -0.008586
   105  H    0.023551
   106  H    0.018617
   107  H    0.026607
   108  H   -0.010795
   109  H    0.003552
   110  H    0.012700
   111  H    0.002005
   112  H    0.005394
   113  H   -0.004803
   114  H   -0.008811
   115  H    0.006764
   116  H    0.013653
   117  H   -0.010452
   118  H    0.004530
   119  H   -0.007452
   120  H   -0.006690
   121  H   -0.011665
   122  H   -0.001539
   123  H    0.004776
   124  H   -0.005376
   125  H   -0.002407
   126  H   -0.000497
   127  H    0.018776
   128  H   -0.015683
   129  H    0.005452
   130  H    0.002835
   131  H   -0.006318
   132  H   -0.006110
   133  H   -0.003108
   134  H    0.003790
   135  H    0.007015
   136  H    0.015189
   137  H    0.000750
   138  H    0.001709
   139  H    0.008955
   140  H    0.010743
 Sum of Mulliken charges =  -0.00000

 Dipole moment (field-independent basis, Debye):
    X=             -4.5176    Y=              4.2774    Z=             -0.5841  Tot=              6.2486
 Quadrupole moment (field-independent basis, Debye-Ang):
   XX=           -373.4643   YY=           -417.7228   ZZ=           -410.5014
   XY=             20.7084   XZ=             15.1605   YZ=             -9.1534

 Normal termination of Gaussian 16 at Thu Apr 28 08:10:14 2022.
