 Gaussian 16, Revision A.03,
 Gaussian 16:  ES64L-G16RevA.03 25-Dec-2016

 ---------------------------------
 #p PBE1PBE/Def2SVP td=(nstates=5)
 ---------------------------------

 -----------------------------------------------------
 step_1501_chromophore_7 TDDFT with PBE1PBE functional
 -----------------------------------------------------
 Symbolic Z-matrix:
 Charge =  0 Multiplicity = 1

                         Standard orientation:
 ---------------------------------------------------------------------
 Center     Atomic      Atomic             Coordinates (Angstroms)
 Number     Number       Type             X           Y           Z
 ---------------------------------------------------------------------
      1         12           0        6.072011    0.465138   -0.175921
      2          6           0        3.738352   -2.149809   -0.085976
      3          6           0        3.375783    2.490925   -0.999567
      4          6           0        8.013993    3.018746    0.266466
      5          6           0        8.561506   -1.817667    0.185884
      6          7           0        3.800363    0.132328   -0.507445
      7          6           0        3.117611   -1.004500   -0.338256
      8          6           0        1.642956   -0.763372   -0.378132
      9          6           0        1.571110    0.637209   -1.048164
     10          6           0        2.990663    1.143449   -0.794049
     11          6           0        1.142339    0.679886   -2.540385
     12          6           0        0.980985   -0.930300    1.030553
     13          6           0       -0.410367   -1.690629    1.022440
     14          6           0       -1.607390   -0.925255    1.701457
     15          8           0       -1.530443    0.020152    2.445785
     16          8           0       -2.774117   -1.505292    1.266185
     17          7           0        5.767078    2.457937   -0.460869
     18          6           0        4.624647    3.094453   -0.736026
     19          6           0        4.922308    4.498914   -0.817449
     20          6           0        6.289392    4.682055   -0.537250
     21          6           0        6.777426    3.333696   -0.224835
     22          6           0        3.808905    5.526104   -1.050088
     23          6           0        7.240563    5.985719   -0.602852
     24          8           0        8.444494    5.958729   -0.250862
     25          6           0        6.601712    7.343892   -1.010433
     26          7           0        8.098483    0.571587   -0.122099
     27          6           0        8.611915    1.744596    0.300610
     28          6           0       10.176431    1.575523    0.632496
     29          6           0       10.203051    0.061345    0.900191
     30          6           0        8.918840   -0.448869    0.165053
     31          6           0       11.140671    2.087774   -0.427329
     32          6           0       10.140486   -0.324873    2.486381
     33          6           0       11.071492   -1.453999    3.004419
     34          7           0        6.218033   -1.628248   -0.119958
     35          6           0        7.271991   -2.408984    0.085225
     36          6           0        6.914248   -3.727797    0.239226
     37          6           0        5.504164   -3.730823    0.173567
     38          6           0        5.125736   -2.410553   -0.044382
     39          6           0        7.891927   -4.848258    0.513501
     40          6           0        4.397106   -4.534607    0.301772
     41          8           0        4.318559   -5.729496    0.503884
     42          6           0        3.139740   -3.514842    0.173039
     43          6           0        2.260129   -4.119254   -0.889123
     44          8           0        2.365173   -3.866232   -2.060783
     45          8           0        1.310560   -4.824331   -0.275235
     46          6           0        0.154294   -5.102597   -1.098850
     47          6           0       -4.044603   -0.785706    1.507895
     48          6           0       -4.890491   -0.592559    0.243472
     49          6           0       -5.530363   -1.490211   -0.565017
     50          6           0       -5.634167   -2.995422   -0.312630
     51          6           0       -6.277599   -1.005270   -1.795948
     52          6           0       -7.780330   -0.991370   -1.707623
     53          6           0       -8.343577    0.356067   -2.283090
     54          6           0       -9.915646    0.183406   -2.679513
     55          6           0      -10.259758    1.132925   -3.785567
     56          6           0      -10.853165    0.327071   -1.530712
     57          6           0      -12.175935   -0.387427   -1.675941
     58          6           0      -13.325078    0.519780   -1.251364
     59          6           0      -14.214427   -0.085346   -0.166008
     60          6           0      -15.310223   -0.933247   -0.729506
     61          6           0      -14.707570    1.183992    0.629630
     62          6           0      -14.388918    1.158672    2.210478
     63          6           0      -13.406808    2.352051    2.637630
     64          6           0      -12.025699    1.902374    3.384645
     65          6           0      -11.768655    2.629173    4.733625
     66          6           0      -10.756893    2.224095    2.496046
     67          1           0        2.525576    3.108265   -1.298880
     68          1           0        8.809873    3.720134    0.526155
     69          1           0        9.332752   -2.556993    0.411878
     70          1           0        1.130570   -1.474570   -1.026335
     71          1           0        0.938178    1.256343   -0.412191
     72          1           0        0.681096   -0.241508   -2.896500
     73          1           0        2.045261    0.966779   -3.079971
     74          1           0        0.505011    1.550636   -2.692282
     75          1           0        0.883799    0.083156    1.422319
     76          1           0        1.587623   -1.436476    1.781526
     77          1           0       -0.312507   -2.627333    1.571445
     78          1           0       -0.792479   -1.859471    0.014814
     79          1           0        2.817110    5.109979   -0.877804
     80          1           0        3.876649    5.770527   -2.109932
     81          1           0        3.816334    6.430105   -0.440241
     82          1           0        7.293270    8.157196   -0.791998
     83          1           0        5.716451    7.342313   -0.374115
     84          1           0        6.385773    7.316873   -2.078500
     85          1           0       10.389502    2.080301    1.574725
     86          1           0       11.035950   -0.512936    0.495388
     87          1           0       10.681000    2.955224   -0.900771
     88          1           0       11.323855    1.393408   -1.248234
     89          1           0       11.963707    2.581518    0.088740
     90          1           0        9.139441   -0.714180    2.673095
     91          1           0       10.124974    0.538727    3.151684
     92          1           0       11.421359   -1.316053    4.027101
     93          1           0       11.971270   -1.473232    2.388227
     94          1           0       10.588434   -2.424828    2.905809
     95          1           0        7.498543   -5.346184    1.400041
     96          1           0        8.897642   -4.572975    0.832383
     97          1           0        7.968616   -5.618177   -0.255013
     98          1           0        2.544291   -3.525618    1.086230
     99          1           0        0.443306   -5.132947   -2.149299
    100          1           0       -0.380894   -4.159742   -0.988657
    101          1           0       -0.342221   -6.052231   -0.897535
    102          1           0       -3.751448    0.205858    1.855440
    103          1           0       -4.602565   -1.379903    2.230643
    104          1           0       -5.127430    0.442749    0.002227
    105          1           0       -6.713059   -3.140702   -0.353373
    106          1           0       -5.173895   -3.321504    0.620690
    107          1           0       -5.080087   -3.499335   -1.104130
    108          1           0       -5.974864   -1.799683   -2.477920
    109          1           0       -5.834206   -0.093960   -2.197369
    110          1           0       -7.984774   -1.190804   -0.655542
    111          1           0       -8.103001   -1.874678   -2.257806
    112          1           0       -7.599805    0.751122   -2.974838
    113          1           0       -8.404900    1.126359   -1.513249
    114          1           0       -9.934607   -0.804564   -3.141262
    115          1           0      -10.651464    0.515349   -4.592975
    116          1           0       -9.460220    1.815627   -4.072564
    117          1           0      -11.109897    1.721092   -3.436746
    118          1           0      -10.965688    1.398178   -1.367968
    119          1           0      -10.432949   -0.132376   -0.635713
    120          1           0      -12.222724   -1.284960   -1.059062
    121          1           0      -12.276853   -0.714617   -2.710479
    122          1           0      -13.935178    0.682704   -2.139463
    123          1           0      -12.906417    1.457087   -0.883654
    124          1           0      -13.640565   -0.684526    0.541445
    125          1           0      -15.316666   -1.859263   -0.154338
    126          1           0      -14.957636   -1.222916   -1.719843
    127          1           0      -16.304187   -0.486487   -0.700573
    128          1           0      -15.793208    1.202987    0.735459
    129          1           0      -14.394958    2.123282    0.173249
    130          1           0      -14.083876    0.209432    2.651841
    131          1           0      -15.346996    1.366640    2.686084
    132          1           0      -14.021665    2.941960    3.316698
    133          1           0      -13.166480    3.018462    1.809148
    134          1           0      -11.986849    0.845814    3.649005
    135          1           0      -11.152927    3.527367    4.699194
    136          1           0      -11.283220    1.883164    5.362263
    137          1           0      -12.732096    3.018315    5.063687
    138          1           0      -10.195198    3.057863    2.917101
    139          1           0      -11.123776    2.526625    1.515084
    140          1           0      -10.057285    1.389003    2.520356
 ---------------------------------------------------------------------

 SCF Done:  E(RPBE1PBE) =  -3005.32705796     A.U. after   15 cycles

 Excitation energies and oscillator strengths:

 Excited State   1:      Singlet-A      1.9274 eV  643.26 nm  f=0.3609  <S**2>=0.000
     245 -> 248       -0.16018
     246 -> 247        0.69122
     246 <- 247       -0.10017
 This state for optimization and/or second-order correction.
 Total Energy, E(TD-HF/TD-DFT) =  -3005.25622602
 Copying the excited state density for this state as the 1-particle RhoCI density.

 Excited State   2:      Singlet-A      2.2578 eV  549.14 nm  f=0.1458  <S**2>=0.000
     245 -> 247        0.66153
     246 -> 248        0.22303

 Excited State   3:      Singlet-A      2.8708 eV  431.89 nm  f=0.0003  <S**2>=0.000
     244 -> 247        0.68363
     244 -> 249       -0.13095
     244 -> 250        0.10514

 Excited State   4:      Singlet-A      3.0703 eV  403.81 nm  f=0.0036  <S**2>=0.000
     243 -> 247        0.68937

 Excited State   5:      Singlet-A      3.2140 eV  385.76 nm  f=0.0060  <S**2>=0.000
     240 -> 247        0.39638
     240 -> 248       -0.11808
     240 -> 249        0.12165
     241 -> 247        0.52305

 The electronic state is 1-A.
 Alpha  occ. eigenvalues --  -46.91547 -19.25509 -19.25106 -19.20541 -19.20346
 Alpha  occ. eigenvalues --  -19.19253 -19.18080 -14.41390 -14.40824 -14.39247
 Alpha  occ. eigenvalues --  -14.37749 -10.36604 -10.35243 -10.34244 -10.30566
 Alpha  occ. eigenvalues --  -10.29568 -10.28779 -10.28596 -10.28360 -10.28287
 Alpha  occ. eigenvalues --  -10.27974 -10.27871 -10.26932 -10.26489 -10.25787
 Alpha  occ. eigenvalues --  -10.25679 -10.25619 -10.25491 -10.25486 -10.25484
 Alpha  occ. eigenvalues --  -10.25452 -10.25401 -10.25267 -10.24848 -10.24794
 Alpha  occ. eigenvalues --  -10.24764 -10.24428 -10.24397 -10.24378 -10.24113
 Alpha  occ. eigenvalues --  -10.24101 -10.24026 -10.23984 -10.23890 -10.23780
 Alpha  occ. eigenvalues --  -10.23754 -10.23544 -10.23422 -10.23308 -10.23192
 Alpha  occ. eigenvalues --  -10.23182 -10.23135 -10.23114 -10.23003 -10.22954
 Alpha  occ. eigenvalues --  -10.22918 -10.22802 -10.22488 -10.22039 -10.22026
 Alpha  occ. eigenvalues --  -10.21821 -10.21794 -10.21691 -10.21593 -10.21545
 Alpha  occ. eigenvalues --  -10.21282  -3.13814  -1.86659  -1.86203  -1.86033
 Alpha  occ. eigenvalues --   -1.12380  -1.10912  -1.03951  -1.03738  -1.03375
 Alpha  occ. eigenvalues --   -1.03117  -1.00234  -0.99355  -0.99337  -0.98342
 Alpha  occ. eigenvalues --   -0.87049  -0.85323  -0.84519  -0.83293  -0.83209
 Alpha  occ. eigenvalues --   -0.82745  -0.82157  -0.81861  -0.81056  -0.80815
 Alpha  occ. eigenvalues --   -0.80512  -0.79652  -0.78668  -0.77794  -0.77613
 Alpha  occ. eigenvalues --   -0.76800  -0.76265  -0.75663  -0.75381  -0.75166
 Alpha  occ. eigenvalues --   -0.74656  -0.72618  -0.72320  -0.71415  -0.70224
 Alpha  occ. eigenvalues --   -0.70000  -0.69655  -0.69380  -0.68727  -0.68251
 Alpha  occ. eigenvalues --   -0.67859  -0.67497  -0.65961  -0.64774  -0.63442
 Alpha  occ. eigenvalues --   -0.62797  -0.62736  -0.61434  -0.61071  -0.60168
 Alpha  occ. eigenvalues --   -0.59964  -0.59630  -0.59266  -0.59187  -0.58033
 Alpha  occ. eigenvalues --   -0.57652  -0.57527  -0.57076  -0.56822  -0.55012
 Alpha  occ. eigenvalues --   -0.54490  -0.54257  -0.53172  -0.52859  -0.52569
 Alpha  occ. eigenvalues --   -0.51821  -0.51548  -0.50975  -0.50918  -0.50266
 Alpha  occ. eigenvalues --   -0.49905  -0.49261  -0.49201  -0.49044  -0.48496
 Alpha  occ. eigenvalues --   -0.48086  -0.48053  -0.47724  -0.47714  -0.47481
 Alpha  occ. eigenvalues --   -0.47160  -0.47057  -0.46834  -0.46496  -0.46144
 Alpha  occ. eigenvalues --   -0.45916  -0.45758  -0.45526  -0.45264  -0.45210
 Alpha  occ. eigenvalues --   -0.45147  -0.44964  -0.44697  -0.44522  -0.44475
 Alpha  occ. eigenvalues --   -0.44202  -0.43813  -0.43742  -0.43527  -0.43371
 Alpha  occ. eigenvalues --   -0.43251  -0.43110  -0.42813  -0.42740  -0.42588
 Alpha  occ. eigenvalues --   -0.42339  -0.42050  -0.41989  -0.41432  -0.41361
 Alpha  occ. eigenvalues --   -0.40980  -0.40927  -0.40622  -0.40549  -0.40254
 Alpha  occ. eigenvalues --   -0.40122  -0.40026  -0.39973  -0.39821  -0.39584
 Alpha  occ. eigenvalues --   -0.39547  -0.39090  -0.38919  -0.38875  -0.38684
 Alpha  occ. eigenvalues --   -0.38585  -0.38250  -0.38108  -0.38025  -0.37921
 Alpha  occ. eigenvalues --   -0.37712  -0.37676  -0.37589  -0.37161  -0.36994
 Alpha  occ. eigenvalues --   -0.36682  -0.36492  -0.36258  -0.36057  -0.35923
 Alpha  occ. eigenvalues --   -0.35879  -0.35719  -0.35508  -0.35199  -0.34988
 Alpha  occ. eigenvalues --   -0.34829  -0.34326  -0.34053  -0.33661  -0.33550
 Alpha  occ. eigenvalues --   -0.33489  -0.33189  -0.32790  -0.32547  -0.32398
 Alpha  occ. eigenvalues --   -0.32117  -0.31919  -0.31304  -0.31208  -0.31087
 Alpha  occ. eigenvalues --   -0.31002  -0.30094  -0.29585  -0.29506  -0.29321
 Alpha  occ. eigenvalues --   -0.29113  -0.29061  -0.28265  -0.27243  -0.26381
 Alpha  occ. eigenvalues --   -0.26142  -0.25600  -0.24999  -0.24703  -0.20852
 Alpha  occ. eigenvalues --   -0.18986
 Alpha virt. eigenvalues --   -0.11047  -0.05032  -0.03652  -0.01752  -0.00318
 Alpha virt. eigenvalues --    0.00339   0.01552   0.01801   0.02207   0.03161
 Alpha virt. eigenvalues --    0.03767   0.04571   0.05121   0.05402   0.05495

 Mulliken charges:
               1
     1  Mg   0.965535
     2  C    0.062256
     3  C   -0.076442
     4  C   -0.038415
     5  C   -0.067122
     6  N   -0.314728
     7  C   -0.017406
     8  C   -0.110356
     9  C   -0.117970
    10  C    0.015479
    11  C    0.044343
    12  C    0.043940
    13  C   -0.088734
    14  C    0.221834
    15  O   -0.241796
    16  O   -0.381803
    17  N   -0.496688
    18  C    0.197363
    19  C   -0.184728
    20  C   -0.087571
    21  C    0.197975
    22  C    0.032699
    23  C    0.093665
    24  O   -0.255510
    25  C   -0.023974
    26  N   -0.408965
    27  C    0.014013
    28  C   -0.108509
    29  C   -0.129312
    30  C    0.107439
    31  C    0.055570
    32  C   -0.036661
    33  C   -0.075430
    34  N   -0.431106
    35  C    0.107718
    36  C   -0.160839
    37  C    0.042356
    38  C    0.118963
    39  C    0.069486
    40  C    0.060519
    41  O   -0.211328
    42  C   -0.185409
    43  C    0.266074
    44  O   -0.245063
    45  O   -0.333836
    46  C    0.116893
    47  C    0.259440
    48  C   -0.156883
    49  C   -0.249349
    50  C    0.029160
    51  C    0.006036
    52  C   -0.030262
    53  C   -0.026877
    54  C   -0.251779
    55  C    0.027074
    56  C   -0.007594
    57  C   -0.000978
    58  C   -0.047970
    59  C   -0.220873
    60  C    0.035375
    61  C   -0.012577
    62  C   -0.069537
    63  C   -0.009537
    64  C   -0.253598
    65  C   -0.028234
    66  C   -0.021007
    67  H   -0.001469
    68  H    0.033605
    69  H   -0.004971
    70  H    0.043066
    71  H    0.038496
    72  H    0.064369
    73  H    0.047487
    74  H    0.039405
    75  H    0.048700
    76  H    0.048015
    77  H    0.084119
    78  H    0.077079
    79  H    0.044032
    80  H    0.059261
    81  H    0.059591
    82  H    0.063997
    83  H    0.063228
    84  H    0.072081
    85  H    0.040486
    86  H    0.038015
    87  H    0.034337
    88  H    0.051478
    89  H    0.045742
    90  H    0.043433
    91  H    0.036545
    92  H    0.047053
    93  H    0.036018
    94  H    0.047091
    95  H    0.050631
    96  H    0.027123
    97  H    0.062784
    98  H    0.070129
    99  H    0.060198
   100  H    0.042455
   101  H    0.074425
   102  H    0.056563
   103  H    0.056397
   104  H    0.021715
   105  H    0.051825
   106  H    0.046203
   107  H    0.053963
   108  H    0.024849
   109  H    0.034015
   110  H    0.045108
   111  H    0.033408
   112  H    0.035942
   113  H    0.029348
   114  H    0.029944
   115  H    0.033978
   116  H    0.040566
   117  H    0.018805
   118  H    0.035741
   119  H    0.027897
   120  H    0.025768
   121  H    0.020783
   122  H    0.032147
   123  H    0.038258
   124  H    0.032188
   125  H    0.025882
   126  H    0.028091
   127  H    0.044696
   128  H    0.017643
   129  H    0.035134
   130  H    0.032465
   131  H    0.026880
   132  H    0.025823
   133  H    0.026843
   134  H    0.040241
   135  H    0.033629
   136  H    0.042614
   137  H    0.028402
   138  H    0.028739
   139  H    0.037158
   140  H    0.037867
 Sum of Mulliken charges =  -0.00000

 Dipole moment (field-independent basis, Debye):
    X=             -4.5015    Y=              3.4741    Z=             -0.4714  Tot=              5.7057
 Quadrupole moment (field-independent basis, Debye-Ang):
   XX=           -366.9537   YY=           -415.5932   ZZ=           -407.9932
   XY=             15.6615   XZ=             16.5752   YZ=             -9.1487

 Normal termination of Gaussian 16 at Thu Apr 28 08:27:41 2022.
