 Gaussian 16, Revision A.03,
 Gaussian 16:  ES64L-G16RevA.03 25-Dec-2016

 --------------------------------
 #p wB97XD/Def2SVP td=(nstates=5)
 --------------------------------

 ----------------------------------------------------
 step_1501_chromophore_7 TDDFT with wB97XD functional
 ----------------------------------------------------
 Symbolic Z-matrix:
 Charge =  0 Multiplicity = 1

                         Standard orientation:
 ---------------------------------------------------------------------
 Center     Atomic      Atomic             Coordinates (Angstroms)
 Number     Number       Type             X           Y           Z
 ---------------------------------------------------------------------
      1         12           0        6.072011    0.465138   -0.175921
      2          6           0        3.738352   -2.149809   -0.085976
      3          6           0        3.375783    2.490925   -0.999567
      4          6           0        8.013993    3.018746    0.266466
      5          6           0        8.561506   -1.817667    0.185884
      6          7           0        3.800363    0.132328   -0.507445
      7          6           0        3.117611   -1.004500   -0.338256
      8          6           0        1.642956   -0.763372   -0.378132
      9          6           0        1.571110    0.637209   -1.048164
     10          6           0        2.990663    1.143449   -0.794049
     11          6           0        1.142339    0.679886   -2.540385
     12          6           0        0.980985   -0.930300    1.030553
     13          6           0       -0.410367   -1.690629    1.022440
     14          6           0       -1.607390   -0.925255    1.701457
     15          8           0       -1.530443    0.020152    2.445785
     16          8           0       -2.774117   -1.505292    1.266185
     17          7           0        5.767078    2.457937   -0.460869
     18          6           0        4.624647    3.094453   -0.736026
     19          6           0        4.922308    4.498914   -0.817449
     20          6           0        6.289392    4.682055   -0.537250
     21          6           0        6.777426    3.333696   -0.224835
     22          6           0        3.808905    5.526104   -1.050088
     23          6           0        7.240563    5.985719   -0.602852
     24          8           0        8.444494    5.958729   -0.250862
     25          6           0        6.601712    7.343892   -1.010433
     26          7           0        8.098483    0.571587   -0.122099
     27          6           0        8.611915    1.744596    0.300610
     28          6           0       10.176431    1.575523    0.632496
     29          6           0       10.203051    0.061345    0.900191
     30          6           0        8.918840   -0.448869    0.165053
     31          6           0       11.140671    2.087774   -0.427329
     32          6           0       10.140486   -0.324873    2.486381
     33          6           0       11.071492   -1.453999    3.004419
     34          7           0        6.218033   -1.628248   -0.119958
     35          6           0        7.271991   -2.408984    0.085225
     36          6           0        6.914248   -3.727797    0.239226
     37          6           0        5.504164   -3.730823    0.173567
     38          6           0        5.125736   -2.410553   -0.044382
     39          6           0        7.891927   -4.848258    0.513501
     40          6           0        4.397106   -4.534607    0.301772
     41          8           0        4.318559   -5.729496    0.503884
     42          6           0        3.139740   -3.514842    0.173039
     43          6           0        2.260129   -4.119254   -0.889123
     44          8           0        2.365173   -3.866232   -2.060783
     45          8           0        1.310560   -4.824331   -0.275235
     46          6           0        0.154294   -5.102597   -1.098850
     47          6           0       -4.044603   -0.785706    1.507895
     48          6           0       -4.890491   -0.592559    0.243472
     49          6           0       -5.530363   -1.490211   -0.565017
     50          6           0       -5.634167   -2.995422   -0.312630
     51          6           0       -6.277599   -1.005270   -1.795948
     52          6           0       -7.780330   -0.991370   -1.707623
     53          6           0       -8.343577    0.356067   -2.283090
     54          6           0       -9.915646    0.183406   -2.679513
     55          6           0      -10.259758    1.132925   -3.785567
     56          6           0      -10.853165    0.327071   -1.530712
     57          6           0      -12.175935   -0.387427   -1.675941
     58          6           0      -13.325078    0.519780   -1.251364
     59          6           0      -14.214427   -0.085346   -0.166008
     60          6           0      -15.310223   -0.933247   -0.729506
     61          6           0      -14.707570    1.183992    0.629630
     62          6           0      -14.388918    1.158672    2.210478
     63          6           0      -13.406808    2.352051    2.637630
     64          6           0      -12.025699    1.902374    3.384645
     65          6           0      -11.768655    2.629173    4.733625
     66          6           0      -10.756893    2.224095    2.496046
     67          1           0        2.525576    3.108265   -1.298880
     68          1           0        8.809873    3.720134    0.526155
     69          1           0        9.332752   -2.556993    0.411878
     70          1           0        1.130570   -1.474570   -1.026335
     71          1           0        0.938178    1.256343   -0.412191
     72          1           0        0.681096   -0.241508   -2.896500
     73          1           0        2.045261    0.966779   -3.079971
     74          1           0        0.505011    1.550636   -2.692282
     75          1           0        0.883799    0.083156    1.422319
     76          1           0        1.587623   -1.436476    1.781526
     77          1           0       -0.312507   -2.627333    1.571445
     78          1           0       -0.792479   -1.859471    0.014814
     79          1           0        2.817110    5.109979   -0.877804
     80          1           0        3.876649    5.770527   -2.109932
     81          1           0        3.816334    6.430105   -0.440241
     82          1           0        7.293270    8.157196   -0.791998
     83          1           0        5.716451    7.342313   -0.374115
     84          1           0        6.385773    7.316873   -2.078500
     85          1           0       10.389502    2.080301    1.574725
     86          1           0       11.035950   -0.512936    0.495388
     87          1           0       10.681000    2.955224   -0.900771
     88          1           0       11.323855    1.393408   -1.248234
     89          1           0       11.963707    2.581518    0.088740
     90          1           0        9.139441   -0.714180    2.673095
     91          1           0       10.124974    0.538727    3.151684
     92          1           0       11.421359   -1.316053    4.027101
     93          1           0       11.971270   -1.473232    2.388227
     94          1           0       10.588434   -2.424828    2.905809
     95          1           0        7.498543   -5.346184    1.400041
     96          1           0        8.897642   -4.572975    0.832383
     97          1           0        7.968616   -5.618177   -0.255013
     98          1           0        2.544291   -3.525618    1.086230
     99          1           0        0.443306   -5.132947   -2.149299
    100          1           0       -0.380894   -4.159742   -0.988657
    101          1           0       -0.342221   -6.052231   -0.897535
    102          1           0       -3.751448    0.205858    1.855440
    103          1           0       -4.602565   -1.379903    2.230643
    104          1           0       -5.127430    0.442749    0.002227
    105          1           0       -6.713059   -3.140702   -0.353373
    106          1           0       -5.173895   -3.321504    0.620690
    107          1           0       -5.080087   -3.499335   -1.104130
    108          1           0       -5.974864   -1.799683   -2.477920
    109          1           0       -5.834206   -0.093960   -2.197369
    110          1           0       -7.984774   -1.190804   -0.655542
    111          1           0       -8.103001   -1.874678   -2.257806
    112          1           0       -7.599805    0.751122   -2.974838
    113          1           0       -8.404900    1.126359   -1.513249
    114          1           0       -9.934607   -0.804564   -3.141262
    115          1           0      -10.651464    0.515349   -4.592975
    116          1           0       -9.460220    1.815627   -4.072564
    117          1           0      -11.109897    1.721092   -3.436746
    118          1           0      -10.965688    1.398178   -1.367968
    119          1           0      -10.432949   -0.132376   -0.635713
    120          1           0      -12.222724   -1.284960   -1.059062
    121          1           0      -12.276853   -0.714617   -2.710479
    122          1           0      -13.935178    0.682704   -2.139463
    123          1           0      -12.906417    1.457087   -0.883654
    124          1           0      -13.640565   -0.684526    0.541445
    125          1           0      -15.316666   -1.859263   -0.154338
    126          1           0      -14.957636   -1.222916   -1.719843
    127          1           0      -16.304187   -0.486487   -0.700573
    128          1           0      -15.793208    1.202987    0.735459
    129          1           0      -14.394958    2.123282    0.173249
    130          1           0      -14.083876    0.209432    2.651841
    131          1           0      -15.346996    1.366640    2.686084
    132          1           0      -14.021665    2.941960    3.316698
    133          1           0      -13.166480    3.018462    1.809148
    134          1           0      -11.986849    0.845814    3.649005
    135          1           0      -11.152927    3.527367    4.699194
    136          1           0      -11.283220    1.883164    5.362263
    137          1           0      -12.732096    3.018315    5.063687
    138          1           0      -10.195198    3.057863    2.917101
    139          1           0      -11.123776    2.526625    1.515084
    140          1           0      -10.057285    1.389003    2.520356
 ---------------------------------------------------------------------

 SCF Done:  E(RwB97XD) =  -3007.83583692     A.U. after   19 cycles

 Excitation energies and oscillator strengths:

 Excited State   1:      Singlet-A      1.7885 eV  693.24 nm  f=0.3793  <S**2>=0.000
     245 -> 248       -0.17020
     246 -> 247        0.68441
     245 <- 248       -0.10363
 This state for optimization and/or second-order correction.
 Total Energy, E(TD-HF/TD-DFT) =  -3007.77011164
 Copying the excited state density for this state as the 1-particle RhoCI density.

 Excited State   2:      Singlet-A      2.2149 eV  559.78 nm  f=0.1456  <S**2>=0.000
     245 -> 247        0.64828
     246 -> 248        0.25760

 Excited State   3:      Singlet-A      3.4931 eV  354.94 nm  f=0.0005  <S**2>=0.000
     241 -> 247       -0.30591
     244 -> 247        0.61268

 Excited State   4:      Singlet-A      3.5613 eV  348.14 nm  f=0.0009  <S**2>=0.000
     243 -> 247        0.57337
     243 -> 249        0.27100
     243 -> 250        0.27432

 Excited State   5:      Singlet-A      3.6166 eV  342.82 nm  f=0.2481  <S**2>=0.000
     239 -> 247        0.20314
     241 -> 247       -0.37776
     244 -> 247       -0.14452
     245 -> 247       -0.15600
     246 -> 248        0.50139

 The electronic state is 1-A.
 Alpha  occ. eigenvalues --  -46.94522 -19.29973 -19.29635 -19.25473 -19.25180
 Alpha  occ. eigenvalues --  -19.23837 -19.22499 -14.46483 -14.45960 -14.44390
 Alpha  occ. eigenvalues --  -14.42470 -10.43349 -10.41959 -10.41368 -10.37113
 Alpha  occ. eigenvalues --  -10.36080 -10.35383 -10.35038 -10.34975 -10.34813
 Alpha  occ. eigenvalues --  -10.34747 -10.34238 -10.33479 -10.33004 -10.32627
 Alpha  occ. eigenvalues --  -10.32049 -10.31808 -10.31768 -10.31747 -10.31740
 Alpha  occ. eigenvalues --  -10.31594 -10.31480 -10.31424 -10.31345 -10.31301
 Alpha  occ. eigenvalues --  -10.31245 -10.31139 -10.30638 -10.30360 -10.30320
 Alpha  occ. eigenvalues --  -10.30309 -10.30291 -10.30270 -10.30234 -10.30228
 Alpha  occ. eigenvalues --  -10.30220 -10.29883 -10.29781 -10.29673 -10.29535
 Alpha  occ. eigenvalues --  -10.29469 -10.29468 -10.29461 -10.29444 -10.29233
 Alpha  occ. eigenvalues --  -10.29079 -10.29070 -10.28809 -10.28408 -10.28398
 Alpha  occ. eigenvalues --  -10.28199 -10.28173 -10.28126 -10.28006 -10.27970
 Alpha  occ. eigenvalues --  -10.27142  -3.20625  -1.94224  -1.93768  -1.93595
 Alpha  occ. eigenvalues --   -1.19655  -1.18262  -1.11546  -1.11079  -1.10611
 Alpha  occ. eigenvalues --   -1.10426  -1.07645  -1.06906  -1.06523  -1.05659
 Alpha  occ. eigenvalues --   -0.94437  -0.92977  -0.92172  -0.91077  -0.90839
 Alpha  occ. eigenvalues --   -0.90395  -0.89748  -0.89470  -0.88987  -0.88485
 Alpha  occ. eigenvalues --   -0.87866  -0.87292  -0.86302  -0.85370  -0.85181
 Alpha  occ. eigenvalues --   -0.84458  -0.84111  -0.83358  -0.83052  -0.82811
 Alpha  occ. eigenvalues --   -0.82290  -0.80437  -0.79990  -0.78952  -0.77810
 Alpha  occ. eigenvalues --   -0.77619  -0.77240  -0.77043  -0.76426  -0.75902
 Alpha  occ. eigenvalues --   -0.75406  -0.74977  -0.73503  -0.72371  -0.70787
 Alpha  occ. eigenvalues --   -0.70426  -0.70296  -0.69165  -0.68733  -0.67663
 Alpha  occ. eigenvalues --   -0.67421  -0.67151  -0.66891  -0.66604  -0.65706
 Alpha  occ. eigenvalues --   -0.65281  -0.65005  -0.64705  -0.64140  -0.62703
 Alpha  occ. eigenvalues --   -0.61880  -0.61617  -0.60542  -0.60354  -0.59830
 Alpha  occ. eigenvalues --   -0.59320  -0.58968  -0.58468  -0.58300  -0.57720
 Alpha  occ. eigenvalues --   -0.57305  -0.56658  -0.56494  -0.56363  -0.55888
 Alpha  occ. eigenvalues --   -0.55470  -0.55408  -0.55321  -0.55050  -0.54938
 Alpha  occ. eigenvalues --   -0.54707  -0.54505  -0.54211  -0.53932  -0.53533
 Alpha  occ. eigenvalues --   -0.53294  -0.53100  -0.52861  -0.52765  -0.52571
 Alpha  occ. eigenvalues --   -0.52458  -0.52265  -0.52044  -0.51977  -0.51814
 Alpha  occ. eigenvalues --   -0.51601  -0.51060  -0.51026  -0.50912  -0.50696
 Alpha  occ. eigenvalues --   -0.50528  -0.50449  -0.50161  -0.50017  -0.49992
 Alpha  occ. eigenvalues --   -0.49584  -0.49324  -0.49249  -0.48747  -0.48544
 Alpha  occ. eigenvalues --   -0.48184  -0.48060  -0.47803  -0.47646  -0.47432
 Alpha  occ. eigenvalues --   -0.47295  -0.47146  -0.47128  -0.46988  -0.46731
 Alpha  occ. eigenvalues --   -0.46647  -0.46257  -0.46217  -0.46008  -0.45915
 Alpha  occ. eigenvalues --   -0.45645  -0.45372  -0.45248  -0.45091  -0.44968
 Alpha  occ. eigenvalues --   -0.44814  -0.44769  -0.44574  -0.44522  -0.44130
 Alpha  occ. eigenvalues --   -0.43797  -0.43565  -0.43315  -0.43083  -0.42975
 Alpha  occ. eigenvalues --   -0.42872  -0.42732  -0.42548  -0.42265  -0.41990
 Alpha  occ. eigenvalues --   -0.41918  -0.41281  -0.40987  -0.40690  -0.40574
 Alpha  occ. eigenvalues --   -0.40569  -0.40266  -0.39821  -0.39583  -0.39285
 Alpha  occ. eigenvalues --   -0.39186  -0.38985  -0.38279  -0.38186  -0.38083
 Alpha  occ. eigenvalues --   -0.37965  -0.37053  -0.36508  -0.36341  -0.36273
 Alpha  occ. eigenvalues --   -0.35949  -0.35830  -0.35082  -0.34087  -0.33604
 Alpha  occ. eigenvalues --   -0.33043  -0.32308  -0.31472  -0.31172  -0.25888
 Alpha  occ. eigenvalues --   -0.23296
 Alpha virt. eigenvalues --   -0.06843   0.00530   0.02489   0.04819   0.06166
 Alpha virt. eigenvalues --    0.06398   0.08288   0.08601   0.09100   0.09639
 Alpha virt. eigenvalues --    0.10179   0.11344   0.11758   0.12107   0.12220

 Mulliken charges:
               1
     1  Mg   0.954968
     2  C    0.069077
     3  C   -0.099965
     4  C   -0.061095
     5  C   -0.072684
     6  N   -0.276238
     7  C   -0.053073
     8  C   -0.078078
     9  C   -0.092219
    10  C    0.002879
    11  C    0.054043
    12  C    0.049324
    13  C   -0.068549
    14  C    0.212196
    15  O   -0.240226
    16  O   -0.381551
    17  N   -0.464150
    18  C    0.195631
    19  C   -0.169029
    20  C   -0.087891
    21  C    0.199771
    22  C    0.043227
    23  C    0.090195
    24  O   -0.248185
    25  C   -0.009033
    26  N   -0.376996
    27  C    0.006051
    28  C   -0.081778
    29  C   -0.103040
    30  C    0.085212
    31  C    0.062810
    32  C   -0.024708
    33  C   -0.057342
    34  N   -0.389288
    35  C    0.093171
    36  C   -0.160801
    37  C    0.047866
    38  C    0.092938
    39  C    0.079006
    40  C    0.044410
    41  O   -0.204308
    42  C   -0.148121
    43  C    0.239768
    44  O   -0.239272
    45  O   -0.332184
    46  C    0.137550
    47  C    0.272813
    48  C   -0.168767
    49  C   -0.234099
    50  C    0.043125
    51  C    0.025409
    52  C   -0.016110
    53  C   -0.010578
    54  C   -0.219728
    55  C    0.036383
    56  C    0.015073
    57  C    0.008614
    58  C   -0.021110
    59  C   -0.193639
    60  C    0.044877
    61  C    0.002237
    62  C   -0.054028
    63  C    0.005051
    64  C   -0.229458
    65  C   -0.013783
    66  C   -0.004760
    67  H   -0.007661
    68  H    0.029468
    69  H   -0.015185
    70  H    0.022486
    71  H    0.028032
    72  H    0.061956
    73  H    0.040430
    74  H    0.034013
    75  H    0.039875
    76  H    0.041002
    77  H    0.079181
    78  H    0.068388
    79  H    0.041162
    80  H    0.055725
    81  H    0.057121
    82  H    0.064117
    83  H    0.054425
    84  H    0.068746
    85  H    0.030744
    86  H    0.027387
    87  H    0.026457
    88  H    0.048001
    89  H    0.041532
    90  H    0.032252
    91  H    0.028087
    92  H    0.041904
    93  H    0.028297
    94  H    0.041075
    95  H    0.043635
    96  H    0.020461
    97  H    0.057118
    98  H    0.059616
    99  H    0.055629
   100  H    0.033260
   101  H    0.071761
   102  H    0.053088
   103  H    0.052573
   104  H    0.017756
   105  H    0.044556
   106  H    0.042042
   107  H    0.048411
   108  H    0.014896
   109  H    0.025908
   110  H    0.034445
   111  H    0.025652
   112  H    0.027399
   113  H    0.018987
   114  H    0.015880
   115  H    0.028974
   116  H    0.035923
   117  H    0.010110
   118  H    0.023215
   119  H    0.017854
   120  H    0.017517
   121  H    0.012208
   122  H    0.023106
   123  H    0.021100
   124  H    0.018297
   125  H    0.020773
   126  H    0.020475
   127  H    0.039954
   128  H    0.008834
   129  H    0.026216
   130  H    0.024626
   131  H    0.019524
   132  H    0.017485
   133  H    0.016852
   134  H    0.029888
   135  H    0.026704
   136  H    0.037367
   137  H    0.021043
   138  H    0.021391
   139  H    0.028090
   140  H    0.032575
 Sum of Mulliken charges =  -0.00000

 Dipole moment (field-independent basis, Debye):
    X=             -4.5858    Y=              4.4898    Z=             -0.6071  Tot=              6.4464
 Quadrupole moment (field-independent basis, Debye-Ang):
   XX=           -368.9122   YY=           -413.0486   ZZ=           -407.6751
   XY=             22.1672   XZ=             15.7108   YZ=             -9.6491

 Normal termination of Gaussian 16 at Thu Apr 28 08:58:52 2022.
