 Gaussian 16, Revision A.03,
 Gaussian 16:  ES64L-G16RevA.03 25-Dec-2016

 --------------------
 #p ZINDO=(nstates=5)
 --------------------

 -----------------------------
 step_1501_chromophore_7 ZINDO
 -----------------------------
 Symbolic Z-matrix:
 Charge =  0 Multiplicity = 1

                         Standard orientation:
 ---------------------------------------------------------------------
 Center     Atomic      Atomic             Coordinates (Angstroms)
 Number     Number       Type             X           Y           Z
 ---------------------------------------------------------------------
      1         12           0        6.072011    0.465138   -0.175921
      2          6           0        3.738352   -2.149809   -0.085976
      3          6           0        3.375783    2.490925   -0.999567
      4          6           0        8.013993    3.018746    0.266466
      5          6           0        8.561506   -1.817667    0.185884
      6          7           0        3.800363    0.132328   -0.507445
      7          6           0        3.117611   -1.004500   -0.338256
      8          6           0        1.642956   -0.763372   -0.378132
      9          6           0        1.571110    0.637209   -1.048164
     10          6           0        2.990663    1.143449   -0.794049
     11          6           0        1.142339    0.679886   -2.540385
     12          6           0        0.980985   -0.930300    1.030553
     13          6           0       -0.410367   -1.690629    1.022440
     14          6           0       -1.607390   -0.925255    1.701457
     15          8           0       -1.530443    0.020152    2.445785
     16          8           0       -2.774117   -1.505292    1.266185
     17          7           0        5.767078    2.457937   -0.460869
     18          6           0        4.624647    3.094453   -0.736026
     19          6           0        4.922308    4.498914   -0.817449
     20          6           0        6.289392    4.682055   -0.537250
     21          6           0        6.777426    3.333696   -0.224835
     22          6           0        3.808905    5.526104   -1.050088
     23          6           0        7.240563    5.985719   -0.602852
     24          8           0        8.444494    5.958729   -0.250862
     25          6           0        6.601712    7.343892   -1.010433
     26          7           0        8.098483    0.571587   -0.122099
     27          6           0        8.611915    1.744596    0.300610
     28          6           0       10.176431    1.575523    0.632496
     29          6           0       10.203051    0.061345    0.900191
     30          6           0        8.918840   -0.448869    0.165053
     31          6           0       11.140671    2.087774   -0.427329
     32          6           0       10.140486   -0.324873    2.486381
     33          6           0       11.071492   -1.453999    3.004419
     34          7           0        6.218033   -1.628248   -0.119958
     35          6           0        7.271991   -2.408984    0.085225
     36          6           0        6.914248   -3.727797    0.239226
     37          6           0        5.504164   -3.730823    0.173567
     38          6           0        5.125736   -2.410553   -0.044382
     39          6           0        7.891927   -4.848258    0.513501
     40          6           0        4.397106   -4.534607    0.301772
     41          8           0        4.318559   -5.729496    0.503884
     42          6           0        3.139740   -3.514842    0.173039
     43          6           0        2.260129   -4.119254   -0.889123
     44          8           0        2.365173   -3.866232   -2.060783
     45          8           0        1.310560   -4.824331   -0.275235
     46          6           0        0.154294   -5.102597   -1.098850
     47          6           0       -4.044603   -0.785706    1.507895
     48          6           0       -4.890491   -0.592559    0.243472
     49          6           0       -5.530363   -1.490211   -0.565017
     50          6           0       -5.634167   -2.995422   -0.312630
     51          6           0       -6.277599   -1.005270   -1.795948
     52          6           0       -7.780330   -0.991370   -1.707623
     53          6           0       -8.343577    0.356067   -2.283090
     54          6           0       -9.915646    0.183406   -2.679513
     55          6           0      -10.259758    1.132925   -3.785567
     56          6           0      -10.853165    0.327071   -1.530712
     57          6           0      -12.175935   -0.387427   -1.675941
     58          6           0      -13.325078    0.519780   -1.251364
     59          6           0      -14.214427   -0.085346   -0.166008
     60          6           0      -15.310223   -0.933247   -0.729506
     61          6           0      -14.707570    1.183992    0.629630
     62          6           0      -14.388918    1.158672    2.210478
     63          6           0      -13.406808    2.352051    2.637630
     64          6           0      -12.025699    1.902374    3.384645
     65          6           0      -11.768655    2.629173    4.733625
     66          6           0      -10.756893    2.224095    2.496046
     67          1           0        2.525576    3.108265   -1.298880
     68          1           0        8.809873    3.720134    0.526155
     69          1           0        9.332752   -2.556993    0.411878
     70          1           0        1.130570   -1.474570   -1.026335
     71          1           0        0.938178    1.256343   -0.412191
     72          1           0        0.681096   -0.241508   -2.896500
     73          1           0        2.045261    0.966779   -3.079971
     74          1           0        0.505011    1.550636   -2.692282
     75          1           0        0.883799    0.083156    1.422319
     76          1           0        1.587623   -1.436476    1.781526
     77          1           0       -0.312507   -2.627333    1.571445
     78          1           0       -0.792479   -1.859471    0.014814
     79          1           0        2.817110    5.109979   -0.877804
     80          1           0        3.876649    5.770527   -2.109932
     81          1           0        3.816334    6.430105   -0.440241
     82          1           0        7.293270    8.157196   -0.791998
     83          1           0        5.716451    7.342313   -0.374115
     84          1           0        6.385773    7.316873   -2.078500
     85          1           0       10.389502    2.080301    1.574725
     86          1           0       11.035950   -0.512936    0.495388
     87          1           0       10.681000    2.955224   -0.900771
     88          1           0       11.323855    1.393408   -1.248234
     89          1           0       11.963707    2.581518    0.088740
     90          1           0        9.139441   -0.714180    2.673095
     91          1           0       10.124974    0.538727    3.151684
     92          1           0       11.421359   -1.316053    4.027101
     93          1           0       11.971270   -1.473232    2.388227
     94          1           0       10.588434   -2.424828    2.905809
     95          1           0        7.498543   -5.346184    1.400041
     96          1           0        8.897642   -4.572975    0.832383
     97          1           0        7.968616   -5.618177   -0.255013
     98          1           0        2.544291   -3.525618    1.086230
     99          1           0        0.443306   -5.132947   -2.149299
    100          1           0       -0.380894   -4.159742   -0.988657
    101          1           0       -0.342221   -6.052231   -0.897535
    102          1           0       -3.751448    0.205858    1.855440
    103          1           0       -4.602565   -1.379903    2.230643
    104          1           0       -5.127430    0.442749    0.002227
    105          1           0       -6.713059   -3.140702   -0.353373
    106          1           0       -5.173895   -3.321504    0.620690
    107          1           0       -5.080087   -3.499335   -1.104130
    108          1           0       -5.974864   -1.799683   -2.477920
    109          1           0       -5.834206   -0.093960   -2.197369
    110          1           0       -7.984774   -1.190804   -0.655542
    111          1           0       -8.103001   -1.874678   -2.257806
    112          1           0       -7.599805    0.751122   -2.974838
    113          1           0       -8.404900    1.126359   -1.513249
    114          1           0       -9.934607   -0.804564   -3.141262
    115          1           0      -10.651464    0.515349   -4.592975
    116          1           0       -9.460220    1.815627   -4.072564
    117          1           0      -11.109897    1.721092   -3.436746
    118          1           0      -10.965688    1.398178   -1.367968
    119          1           0      -10.432949   -0.132376   -0.635713
    120          1           0      -12.222724   -1.284960   -1.059062
    121          1           0      -12.276853   -0.714617   -2.710479
    122          1           0      -13.935178    0.682704   -2.139463
    123          1           0      -12.906417    1.457087   -0.883654
    124          1           0      -13.640565   -0.684526    0.541445
    125          1           0      -15.316666   -1.859263   -0.154338
    126          1           0      -14.957636   -1.222916   -1.719843
    127          1           0      -16.304187   -0.486487   -0.700573
    128          1           0      -15.793208    1.202987    0.735459
    129          1           0      -14.394958    2.123282    0.173249
    130          1           0      -14.083876    0.209432    2.651841
    131          1           0      -15.346996    1.366640    2.686084
    132          1           0      -14.021665    2.941960    3.316698
    133          1           0      -13.166480    3.018462    1.809148
    134          1           0      -11.986849    0.845814    3.649005
    135          1           0      -11.152927    3.527367    4.699194
    136          1           0      -11.283220    1.883164    5.362263
    137          1           0      -12.732096    3.018315    5.063687
    138          1           0      -10.195198    3.057863    2.917101
    139          1           0      -11.123776    2.526625    1.515084
    140          1           0      -10.057285    1.389003    2.520356
 ---------------------------------------------------------------------

 SCF Done:  E(RZINDO/S) =  -474.537364921     A.U. after   19 cycles

 Excitation energies and oscillator strengths:

 Excited State   1:      Singlet-A      1.3778 eV  899.86 nm  f=0.5440  <S**2>=0.000
     175 ->178         0.15411
     176 ->177         0.67118
 This state for optimization and/or second-order correction.
 Total Energy, E(CIS/TDA) =  -474.486730968
 Copying the excited state density for this state as the 1-particle RhoCI density.

 Excited State   2:      Singlet-A      1.9642 eV  631.21 nm  f=0.0706  <S**2>=0.000
     175 ->177         0.56234
     176 ->178        -0.37931
     176 ->179         0.10597

 Excited State   3:      Singlet-A      3.0075 eV  412.25 nm  f=0.4725  <S**2>=0.000
     167 ->177        -0.18780
     167 ->178         0.16328
     167 ->179         0.28842
     167 ->180        -0.16816
     175 ->177         0.25095
     176 ->178         0.40803
     176 ->179         0.10266

 Excited State   4:      Singlet-A      3.0667 eV  404.29 nm  f=0.0358  <S**2>=0.000
     167 ->179        -0.12152
     171 ->177         0.27936
     171 ->179         0.27581
     171 ->180         0.37957
     171 ->185        -0.15855
     171 ->189         0.17137

 Excited State   5:      Singlet-A      3.0683 eV  404.08 nm  f=0.4912  <S**2>=0.000
     167 ->177         0.17456
     167 ->178        -0.15149
     167 ->179        -0.27271
     167 ->180         0.16175
     167 ->185         0.10010
     171 ->177        -0.10884
     171 ->180        -0.13634
     175 ->177         0.25728
     176 ->178         0.38191

 The electronic state is 1-A.
 Alpha  occ. eigenvalues --   -1.87534  -1.84633  -1.82977  -1.75815  -1.73878
 Alpha  occ. eigenvalues --   -1.71452  -1.67382  -1.60238  -1.58985  -1.55946
 Alpha  occ. eigenvalues --   -1.54889  -1.51777  -1.49536  -1.48736  -1.45111
 Alpha  occ. eigenvalues --   -1.44764  -1.43103  -1.40415  -1.39339  -1.38248
 Alpha  occ. eigenvalues --   -1.36284  -1.33316  -1.32519  -1.32275  -1.29286
 Alpha  occ. eigenvalues --   -1.28183  -1.25650  -1.22949  -1.21777  -1.18744
 Alpha  occ. eigenvalues --   -1.18018  -1.15345  -1.14146  -1.13581  -1.12985
 Alpha  occ. eigenvalues --   -1.12483  -1.11063  -1.10181  -1.05192  -1.03639
 Alpha  occ. eigenvalues --   -1.02710  -1.01907  -0.99315  -0.98050  -0.97238
 Alpha  occ. eigenvalues --   -0.95724  -0.94392  -0.92859  -0.92463  -0.91818
 Alpha  occ. eigenvalues --   -0.90901  -0.90244  -0.89137  -0.88855  -0.87696
 Alpha  occ. eigenvalues --   -0.86230  -0.84174  -0.83407  -0.82083  -0.80963
 Alpha  occ. eigenvalues --   -0.79561  -0.78663  -0.77205  -0.76710  -0.75774
 Alpha  occ. eigenvalues --   -0.75311  -0.75142  -0.73665  -0.73419  -0.73253
 Alpha  occ. eigenvalues --   -0.72805  -0.72477  -0.71046  -0.70542  -0.70258
 Alpha  occ. eigenvalues --   -0.69811  -0.69586  -0.68462  -0.68290  -0.67893
 Alpha  occ. eigenvalues --   -0.67777  -0.67067  -0.67046  -0.66986  -0.65955
 Alpha  occ. eigenvalues --   -0.65599  -0.65334  -0.65247  -0.64648  -0.63763
 Alpha  occ. eigenvalues --   -0.63086  -0.62715  -0.62502  -0.62221  -0.61862
 Alpha  occ. eigenvalues --   -0.61656  -0.61575  -0.61037  -0.60821  -0.60328
 Alpha  occ. eigenvalues --   -0.59356  -0.59000  -0.58832  -0.58534  -0.58242
 Alpha  occ. eigenvalues --   -0.58027  -0.57585  -0.57227  -0.56901  -0.56450
 Alpha  occ. eigenvalues --   -0.56017  -0.55769  -0.55244  -0.55015  -0.54370
 Alpha  occ. eigenvalues --   -0.54346  -0.53811  -0.53478  -0.52847  -0.52791
 Alpha  occ. eigenvalues --   -0.52714  -0.52329  -0.52211  -0.51544  -0.51404
 Alpha  occ. eigenvalues --   -0.51211  -0.51097  -0.50890  -0.50460  -0.50303
 Alpha  occ. eigenvalues --   -0.49779  -0.49706  -0.49620  -0.48958  -0.48711
 Alpha  occ. eigenvalues --   -0.48461  -0.48087  -0.47693  -0.47601  -0.47395
 Alpha  occ. eigenvalues --   -0.47258  -0.46909  -0.46792  -0.46439  -0.46385
 Alpha  occ. eigenvalues --   -0.46034  -0.45764  -0.45500  -0.45483  -0.45064
 Alpha  occ. eigenvalues --   -0.44989  -0.44750  -0.44679  -0.44265  -0.43860
 Alpha  occ. eigenvalues --   -0.43281  -0.43238  -0.42381  -0.42012  -0.41809
 Alpha  occ. eigenvalues --   -0.41578  -0.41251  -0.40938  -0.39194  -0.39082
 Alpha  occ. eigenvalues --   -0.37473  -0.37204  -0.36086  -0.34834  -0.34306
 Alpha  occ. eigenvalues --   -0.33107  -0.32621  -0.32296  -0.31233  -0.26540
 Alpha  occ. eigenvalues --   -0.22056
 Alpha virt. eigenvalues --   -0.08128  -0.01780  -0.00605   0.01494   0.02360
 Alpha virt. eigenvalues --    0.03004   0.03295   0.03756   0.04444   0.04539
 Alpha virt. eigenvalues --    0.05291   0.07027   0.07102   0.07972   0.08080

 Mulliken charges:
               1
     1  Mg   0.428082
     2  C   -0.029966
     3  C   -0.106131
     4  C   -0.065397
     5  C   -0.057507
     6  N   -0.287543
     7  C    0.119001
     8  C    0.003445
     9  C    0.004817
    10  C    0.175323
    11  C   -0.046323
    12  C   -0.026844
    13  C   -0.001895
    14  C    0.463522
    15  O   -0.509301
    16  O   -0.282608
    17  N   -0.327621
    18  C    0.152678
    19  C    0.028342
    20  C   -0.041462
    21  C    0.164034
    22  C   -0.046957
    23  C    0.319111
    24  O   -0.511747
    25  C   -0.027798
    26  N   -0.245128
    27  C    0.153684
    28  C    0.008704
    29  C   -0.000421
    30  C    0.074685
    31  C   -0.050216
    32  C   -0.041613
    33  C   -0.054451
    34  N   -0.319164
    35  C    0.080188
    36  C    0.009997
    37  C   -0.058234
    38  C    0.099278
    39  C   -0.044879
    40  C    0.328667
    41  O   -0.541022
    42  C    0.036032
    43  C    0.495282
    44  O   -0.533500
    45  O   -0.258108
    46  C    0.066591
    47  C    0.104403
    48  C   -0.114029
    49  C    0.004378
    50  C   -0.043825
    51  C   -0.023974
    52  C   -0.030494
    53  C   -0.050378
    54  C   -0.009612
    55  C   -0.058483
    56  C   -0.019986
    57  C   -0.037211
    58  C   -0.034816
    59  C   -0.007811
    60  C   -0.053210
    61  C   -0.050466
    62  C   -0.049082
    63  C   -0.043695
    64  C   -0.025012
    65  C   -0.061307
    66  C   -0.064710
    67  H    0.024507
    68  H    0.051119
    69  H    0.024648
    70  H    0.028278
    71  H    0.025572
    72  H    0.039180
    73  H    0.025783
    74  H    0.017792
    75  H    0.030099
    76  H    0.028895
    77  H    0.049783
    78  H    0.042481
    79  H    0.025624
    80  H    0.031823
    81  H    0.031427
    82  H    0.045724
    83  H    0.041519
    84  H    0.044530
    85  H    0.027662
    86  H    0.029095
    87  H    0.014666
    88  H    0.036625
    89  H    0.029936
    90  H    0.014613
    91  H    0.022049
    92  H    0.022366
    93  H    0.013202
    94  H    0.024545
    95  H    0.022027
    96  H    0.019215
    97  H    0.035262
    98  H    0.046198
    99  H    0.044355
   100  H    0.034532
   101  H    0.048408
   102  H    0.052476
   103  H    0.046571
   104  H    0.022270
   105  H    0.035790
   106  H    0.026095
   107  H    0.030032
   108  H    0.012317
   109  H    0.024969
   110  H    0.025170
   111  H    0.021795
   112  H    0.033910
   113  H    0.013196
   114  H    0.015053
   115  H    0.017324
   116  H    0.025739
   117  H    0.012360
   118  H    0.025004
   119  H    0.008138
   120  H    0.018418
   121  H    0.015534
   122  H    0.018530
   123  H    0.022136
   124  H    0.024599
   125  H    0.011133
   126  H    0.019132
   127  H    0.030346
   128  H    0.011524
   129  H    0.031473
   130  H    0.030168
   131  H    0.011297
   132  H    0.016087
   133  H    0.026403
   134  H    0.026680
   135  H    0.019666
   136  H    0.022729
   137  H    0.015915
   138  H    0.017839
   139  H    0.021884
   140  H    0.020451
 Sum of Mulliken charges =  -0.00000

 Dipole moment (field-independent basis, Debye):
    X=             -5.9638    Y=              8.6477    Z=             -0.3694  Tot=             10.5112
 N-N= 4.262485517197D+03 E-N= 0.000000000000D+00  KE=-9.199638889030D+03
 Leave Link  601 at Thu Apr 28 09:11:33 2022, MaxMem=  6710886400 cpu:               0.8 elap:               0.1
 (Enter /sw/apps/gaussian-16.0/g16/l9999.exe)
 1\1\GINC-BP1-COMPUTE154\SP\RZINDO CIS\STO-3G\C55H74Mg1N4O6\OF15641\28-
 Apr-2022\0\\#p ZINDO=(nstates=5)\\step_1501_chromophore_7 ZINDO\\0,1\M
 g,0,25.855,-0.668,29.151\C,0,27.887,-0.691,32.008\C,0,23.197,-0.384,31
 .366\C,0,23.953,-0.07,26.599\C,0,28.586,-1.405,27.27\N,0,25.635,-0.566
 ,31.458\C,0,26.619,-0.525,32.362\C,0,26.095,-0.185,33.72\C,0,24.577,-0
 .474,33.553\C,0,24.447,-0.423,32.031\C,0,24.038,-1.784,34.19\C,0,26.51
 6,1.254,34.17\C,0,26.959,1.37,35.688\C,0,26.196,2.454,36.538\O,0,25.52

 Normal termination of Gaussian 16 at Thu Apr 28 09:11:33 2022.
