 Gaussian 16, Revision A.03,
 Gaussian 16:  ES64L-G16RevA.03 25-Dec-2016

 ------------------------------
 #p blyp/Def2SVP td=(nstates=5)
 ------------------------------

 -------------------------------------------------
 step_851_chromophore_9 TDDFT with blyp functional
 -------------------------------------------------
 Symbolic Z-matrix:
 Charge =  0 Multiplicity = 1

                         Standard orientation:
 ---------------------------------------------------------------------
 Center     Atomic      Atomic             Coordinates (Angstroms)
 Number     Number       Type             X           Y           Z
 ---------------------------------------------------------------------
      1         12           0       -5.300193    0.671678   -0.361519
      2          6           0       -4.023990   -2.501844    0.010129
      3          6           0       -1.969507    1.814852   -0.437040
      4          6           0       -6.433017    3.910095   -0.150111
      5          6           0       -8.472494   -0.505632    0.440911
      6          7           0       -3.235381   -0.214073   -0.153047
      7          6           0       -2.990520   -1.575417   -0.017661
      8          6           0       -1.506145   -1.888533   -0.157088
      9          6           0       -0.839243   -0.447330   -0.077568
     10          6           0       -2.067983    0.454630   -0.219610
     11          6           0        0.020936   -0.029045    1.139716
     12          6           0       -1.087209   -2.808587   -1.374472
     13          6           0        0.386986   -3.300305   -1.429030
     14          6           0        1.355446   -2.964205   -0.291833
     15          8           0        1.134043   -3.213596    0.866351
     16          8           0        2.611848   -2.538058   -0.799335
     17          7           0       -4.352484    2.575378   -0.543149
     18          6           0       -2.992203    2.782197   -0.523328
     19          6           0       -2.681991    4.204398   -0.509878
     20          6           0       -3.923442    4.866930   -0.359240
     21          6           0       -4.986818    3.773901   -0.375294
     22          6           0       -1.295084    4.783796   -0.636961
     23          6           0       -4.292939    6.366938   -0.336844
     24          8           0       -5.418793    6.745496   -0.323457
     25          6           0       -3.255174    7.440994   -0.391339
     26          7           0       -7.050864    1.513523    0.191323
     27          6           0       -7.344674    2.896183    0.049406
     28          6           0       -8.822307    3.214894    0.404601
     29          6           0       -9.445763    1.811032    0.416690
     30          6           0       -8.265926    0.875387    0.323824
     31          6           0       -8.983175    4.049006    1.660257
     32          6           0      -10.493367    1.567492   -0.684833
     33          6           0       -9.940180    0.906010   -1.982561
     34          7           0       -6.121386   -1.200409    0.082555
     35          6           0       -7.462389   -1.460902    0.367924
     36          6           0       -7.543710   -2.860121    0.615666
     37          6           0       -6.231226   -3.333271    0.494251
     38          6           0       -5.421592   -2.229382    0.185842
     39          6           0       -8.775105   -3.618462    0.931473
     40          6           0       -5.429880   -4.503953    0.446957
     41          8           0       -5.674777   -5.679213    0.669699
     42          6           0       -4.022283   -4.074590    0.172906
     43          6           0       -3.109838   -4.489513    1.312735
     44          8           0       -3.414046   -4.297454    2.457003
     45          8           0       -1.954316   -5.056739    0.815407
     46          6           0       -0.994864   -5.494628    1.826244
     47          6           0        3.676671   -2.246563    0.181436
     48          6           0        4.981758   -1.961235   -0.451883
     49          6           0        5.824559   -2.720112   -1.211479
     50          6           0        5.677895   -4.242069   -1.231791
     51          6           0        7.131549   -2.154944   -1.823537
     52          6           0        6.994939   -1.061700   -2.852392
     53          6           0        8.029589   -1.237201   -3.991795
     54          6           0        8.965303    0.002515   -4.012999
     55          6           0        9.745108    0.003006   -5.360984
     56          6           0       10.111880   -0.234075   -2.856811
     57          6           0        9.960286    0.744693   -1.713149
     58          6           0       11.135637    1.717213   -1.495879
     59          6           0       10.991997    2.510765   -0.111739
     60          6           0       11.347337    3.967094   -0.362480
     61          6           0       11.756083    1.932307    1.077566
     62          6           0       10.837902    1.962543    2.273244
     63          6           0       11.377768    1.049557    3.442882
     64          6           0       11.128974    1.519579    4.839856
     65          6           0       12.123484    0.962163    5.925590
     66          6           0        9.706482    1.276042    5.279591
     67          1           0       -0.951680    2.173395   -0.604040
     68          1           0       -6.699306    4.886961    0.258561
     69          1           0       -9.423437   -0.943164    0.755875
     70          1           0       -1.271280   -2.427939    0.760618
     71          1           0       -0.271406   -0.217143   -0.978047
     72          1           0       -0.018197   -0.712793    1.987769
     73          1           0       -0.309340    0.984370    1.369126
     74          1           0        1.096346   -0.037940    0.961100
     75          1           0       -1.133576   -2.143191   -2.236771
     76          1           0       -1.772200   -3.654234   -1.424411
     77          1           0        0.812913   -3.031432   -2.396732
     78          1           0        0.244531   -4.380253   -1.451680
     79          1           0       -0.783837    4.815263    0.324692
     80          1           0       -1.335717    5.753664   -1.132967
     81          1           0       -0.663309    4.191091   -1.299250
     82          1           0       -2.898747    7.512158   -1.418814
     83          1           0       -2.424451    7.187741    0.266704
     84          1           0       -3.571488    8.420074   -0.031836
     85          1           0       -9.188423    3.809910   -0.431510
     86          1           0       -9.922197    1.561400    1.365320
     87          1           0       -9.677499    3.716353    2.432011
     88          1           0       -9.447759    4.965885    1.298279
     89          1           0       -8.049257    4.371036    2.120540
     90          1           0      -11.096223    2.437238   -0.943683
     91          1           0      -11.194223    0.879236   -0.212447
     92          1           0      -10.048881   -0.177271   -1.922576
     93          1           0       -8.867649    1.010565   -2.143540
     94          1           0      -10.569579    1.094581   -2.853167
     95          1           0       -9.084195   -3.174745    1.877796
     96          1           0       -8.546172   -4.683750    0.963099
     97          1           0       -9.569672   -3.544973    0.189581
     98          1           0       -3.738797   -4.536343   -0.772993
     99          1           0       -1.339471   -6.462306    2.190837
    100          1           0       -0.844098   -4.899390    2.726708
    101          1           0       -0.001316   -5.733191    1.446520
    102          1           0        3.646514   -3.129036    0.820902
    103          1           0        3.339474   -1.418922    0.804772
    104          1           0        5.164021   -0.890012   -0.530979
    105          1           0        5.557546   -4.570286   -2.264563
    106          1           0        4.818471   -4.651028   -0.701202
    107          1           0        6.616146   -4.589961   -0.799839
    108          1           0        7.869771   -2.938163   -1.995165
    109          1           0        7.576971   -1.607965   -0.992387
    110          1           0        6.991112   -0.076454   -2.387305
    111          1           0        6.009154   -1.142688   -3.311325
    112          1           0        7.424452   -1.299881   -4.896426
    113          1           0        8.675260   -2.115256   -3.963196
    114          1           0        8.449479    0.958057   -3.921278
    115          1           0        9.341166    0.764989   -6.027354
    116          1           0        9.561976   -0.940388   -5.875139
    117          1           0       10.823541    0.144331   -5.285568
    118          1           0       11.160005   -0.240789   -3.153921
    119          1           0        9.941679   -1.234429   -2.459374
    120          1           0        9.711402    0.267565   -0.765067
    121          1           0        9.126153    1.433829   -1.844484
    122          1           0       11.184569    2.479620   -2.274113
    123          1           0       12.055141    1.136007   -1.424902
    124          1           0        9.919916    2.569458    0.077365
    125          1           0       12.378240    4.086757   -0.696212
    126          1           0       11.233389    4.593596    0.522498
    127          1           0       10.722273    4.379231   -1.154497
    128          1           0       12.513810    2.679177    1.312940
    129          1           0       12.141723    0.918355    0.975008
    130          1           0        9.859734    1.582323    1.976883
    131          1           0       10.645356    2.959845    2.669210
    132          1           0       12.451223    0.974982    3.272022
    133          1           0       10.893768    0.082520    3.304627
    134          1           0       11.156100    2.608893    4.834624
    135          1           0       12.915706    0.390818    5.442844
    136          1           0       11.684151    0.257005    6.631087
    137          1           0       12.532224    1.791907    6.501945
    138          1           0        9.690731    0.868982    6.290449
    139          1           0        9.213573    0.654465    4.532547
    140          1           0        9.227953    2.251551    5.194482
 ---------------------------------------------------------------------

 SCF Done:  E(RB-LYP) =  -3007.37279675     A.U. after   20 cycles

 Excitation energies and oscillator strengths:

 Excited State   1:      Singlet-A      1.6765 eV  739.53 nm  f=0.0174  <S**2>=0.000
     244 -> 247        0.57689
     245 -> 247       -0.35766
     246 -> 247        0.19477
 This state for optimization and/or second-order correction.
 Total Energy, E(TD-HF/TD-DFT) =  -3007.31118593
 Copying the excited state density for this state as the 1-particle RhoCI density.

 Excited State   2:      Singlet-A      1.7562 eV  705.97 nm  f=0.2869  <S**2>=0.000
     244 -> 247       -0.17062
     245 -> 248       -0.14318
     246 -> 247        0.67514
     246 <- 247       -0.16596

 Excited State   3:      Singlet-A      1.9350 eV  640.75 nm  f=0.0134  <S**2>=0.000
     243 -> 247        0.60539
     244 -> 247        0.20252
     245 -> 247        0.28602

 Excited State   4:      Singlet-A      2.0828 eV  595.27 nm  f=0.0752  <S**2>=0.000
     243 -> 247       -0.35799
     244 -> 247        0.28290
     245 -> 247        0.46564
     246 -> 248        0.23646

 Excited State   5:      Singlet-A      2.5111 eV  493.75 nm  f=0.0036  <S**2>=0.000
     241 -> 247       -0.10572
     242 -> 247        0.68017

 The electronic state is 1-A.
 Alpha  occ. eigenvalues --  -46.26773 -18.82311 -18.81603 -18.78222 -18.76379
 Alpha  occ. eigenvalues --  -18.75435 -18.73973 -14.03268 -14.03025 -14.01376
 Alpha  occ. eigenvalues --  -13.99876 -10.04892 -10.03378  -9.99689  -9.97880
 Alpha  occ. eigenvalues --   -9.97524  -9.96636  -9.96316  -9.96308  -9.96177
 Alpha  occ. eigenvalues --   -9.96082  -9.95881  -9.95519  -9.94497  -9.94376
 Alpha  occ. eigenvalues --   -9.93987  -9.93947  -9.93742  -9.93732  -9.93692
 Alpha  occ. eigenvalues --   -9.93383  -9.93349  -9.93229  -9.93204  -9.93024
 Alpha  occ. eigenvalues --   -9.93015  -9.92882  -9.92861  -9.92770  -9.92765
 Alpha  occ. eigenvalues --   -9.92620  -9.92453  -9.92400  -9.92349  -9.92190
 Alpha  occ. eigenvalues --   -9.92108  -9.92053  -9.92002  -9.91931  -9.91734
 Alpha  occ. eigenvalues --   -9.91725  -9.91669  -9.91635  -9.91628  -9.91487
 Alpha  occ. eigenvalues --   -9.91363  -9.91304  -9.91296  -9.91245  -9.91135
 Alpha  occ. eigenvalues --   -9.90893  -9.90867  -9.90818  -9.90785  -9.90311
 Alpha  occ. eigenvalues --   -9.89437  -2.91479  -1.71896  -1.71356  -1.71199
 Alpha  occ. eigenvalues --   -0.97450  -0.97376  -0.93498  -0.90678  -0.90557
 Alpha  occ. eigenvalues --   -0.89924  -0.87644  -0.85617  -0.84900  -0.84210
 Alpha  occ. eigenvalues --   -0.74659  -0.74122  -0.73550  -0.72363  -0.72260
 Alpha  occ. eigenvalues --   -0.72044  -0.71647  -0.71410  -0.70982  -0.70522
 Alpha  occ. eigenvalues --   -0.69763  -0.69095  -0.68421  -0.67177  -0.67061
 Alpha  occ. eigenvalues --   -0.66419  -0.65581  -0.65398  -0.64894  -0.64663
 Alpha  occ. eigenvalues --   -0.64265  -0.62504  -0.62186  -0.61688  -0.60705
 Alpha  occ. eigenvalues --   -0.60345  -0.60046  -0.59834  -0.59493  -0.59261
 Alpha  occ. eigenvalues --   -0.58399  -0.57693  -0.56443  -0.55643  -0.55040
 Alpha  occ. eigenvalues --   -0.53736  -0.53472  -0.52749  -0.52340  -0.51193
 Alpha  occ. eigenvalues --   -0.51054  -0.50648  -0.50560  -0.50301  -0.50111
 Alpha  occ. eigenvalues --   -0.49763  -0.49327  -0.48596  -0.48554  -0.46329
 Alpha  occ. eigenvalues --   -0.46135  -0.45550  -0.45166  -0.44833  -0.44127
 Alpha  occ. eigenvalues --   -0.43676  -0.43618  -0.43152  -0.42720  -0.42361
 Alpha  occ. eigenvalues --   -0.42220  -0.41845  -0.41484  -0.41439  -0.41329
 Alpha  occ. eigenvalues --   -0.41146  -0.40776  -0.40553  -0.40284  -0.40011
 Alpha  occ. eigenvalues --   -0.39863  -0.39756  -0.39522  -0.39514  -0.39297
 Alpha  occ. eigenvalues --   -0.39177  -0.38793  -0.38677  -0.38538  -0.38397
 Alpha  occ. eigenvalues --   -0.38153  -0.38021  -0.37949  -0.37471  -0.37235
 Alpha  occ. eigenvalues --   -0.37071  -0.37041  -0.36925  -0.36778  -0.36407
 Alpha  occ. eigenvalues --   -0.36079  -0.36012  -0.35944  -0.35825  -0.35434
 Alpha  occ. eigenvalues --   -0.35341  -0.35291  -0.34902  -0.34700  -0.34623
 Alpha  occ. eigenvalues --   -0.34549  -0.34386  -0.34279  -0.34037  -0.34001
 Alpha  occ. eigenvalues --   -0.33843  -0.33729  -0.33605  -0.33280  -0.33210
 Alpha  occ. eigenvalues --   -0.33025  -0.32436  -0.32286  -0.32130  -0.32055
 Alpha  occ. eigenvalues --   -0.31991  -0.31873  -0.31695  -0.31487  -0.31403
 Alpha  occ. eigenvalues --   -0.31321  -0.31177  -0.30945  -0.30841  -0.30572
 Alpha  occ. eigenvalues --   -0.30549  -0.30231  -0.30034  -0.29756  -0.29668
 Alpha  occ. eigenvalues --   -0.29564  -0.29468  -0.29347  -0.29198  -0.28932
 Alpha  occ. eigenvalues --   -0.28906  -0.28511  -0.28250  -0.28210  -0.27856
 Alpha  occ. eigenvalues --   -0.27500  -0.27213  -0.27134  -0.26764  -0.26317
 Alpha  occ. eigenvalues --   -0.26222  -0.26144  -0.25727  -0.25520  -0.25417
 Alpha  occ. eigenvalues --   -0.25079  -0.25028  -0.24729  -0.23938  -0.23458
 Alpha  occ. eigenvalues --   -0.23280  -0.23074  -0.22143  -0.21420  -0.20851
 Alpha  occ. eigenvalues --   -0.20708  -0.20041  -0.18526  -0.17564  -0.17117
 Alpha  occ. eigenvalues --   -0.15296
 Alpha virt. eigenvalues --   -0.11389  -0.06368  -0.05082  -0.04189  -0.04140
 Alpha virt. eigenvalues --   -0.03881  -0.02620  -0.01482  -0.01291   0.00565
 Alpha virt. eigenvalues --    0.01509   0.01980   0.02234   0.02540   0.02968

 Mulliken charges:
               1
     1  Mg   0.705823
     2  C   -0.034824
     3  C   -0.088471
     4  C   -0.041245
     5  C   -0.094493
     6  N   -0.203464
     7  C   -0.068084
     8  C    0.069243
     9  C   -0.002733
    10  C   -0.008318
    11  C    0.136347
    12  C    0.120516
    13  C    0.144512
    14  C    0.086758
    15  O   -0.181674
    16  O   -0.303736
    17  N   -0.255370
    18  C    0.151316
    19  C   -0.149244
    20  C    0.007204
    21  C    0.035564
    22  C    0.179232
    23  C   -0.074890
    24  O   -0.131640
    25  C    0.122282
    26  N   -0.297916
    27  C    0.050613
    28  C    0.052121
    29  C    0.068561
    30  C    0.047631
    31  C    0.125729
    32  C    0.067371
    33  C    0.087775
    34  N   -0.191851
    35  C    0.091390
    36  C   -0.179713
    37  C    0.104410
    38  C    0.015665
    39  C    0.171953
    40  C   -0.090930
    41  O   -0.137573
    42  C    0.091893
    43  C    0.115561
    44  O   -0.147983
    45  O   -0.277951
    46  C    0.230345
    47  C    0.314997
    48  C   -0.083940
    49  C   -0.136975
    50  C    0.129871
    51  C    0.117697
    52  C    0.095474
    53  C    0.096047
    54  C   -0.103413
    55  C    0.113145
    56  C    0.146867
    57  C    0.012357
    58  C    0.111752
    59  C   -0.082416
    60  C    0.083763
    61  C    0.173805
    62  C    0.003295
    63  C    0.114070
    64  C   -0.113027
    65  C    0.108902
    66  C    0.124686
    67  H   -0.068032
    68  H   -0.018336
    69  H   -0.061046
    70  H   -0.010287
    71  H   -0.028803
    72  H    0.003136
    73  H   -0.009304
    74  H   -0.018293
    75  H   -0.021888
    76  H   -0.008141
    77  H   -0.011350
    78  H    0.003531
    79  H    0.008622
    80  H   -0.013064
    81  H   -0.008925
    82  H    0.021163
    83  H   -0.007700
    84  H   -0.007967
    85  H   -0.019475
    86  H   -0.033105
    87  H   -0.010470
    88  H   -0.016367
    89  H    0.004186
    90  H   -0.016989
    91  H   -0.029125
    92  H   -0.024182
    93  H    0.007141
    94  H   -0.015484
    95  H    0.008448
    96  H    0.006527
    97  H   -0.006554
    98  H   -0.007421
    99  H   -0.005366
   100  H    0.018804
   101  H    0.006741
   102  H   -0.016998
   103  H   -0.012955
   104  H   -0.041342
   105  H   -0.000491
   106  H   -0.008279
   107  H    0.008124
   108  H   -0.027774
   109  H   -0.013831
   110  H   -0.016482
   111  H   -0.028420
   112  H   -0.031089
   113  H   -0.018383
   114  H   -0.021592
   115  H   -0.024021
   116  H   -0.027398
   117  H   -0.014079
   118  H   -0.027335
   119  H   -0.044392
   120  H   -0.032242
   121  H   -0.029745
   122  H   -0.038907
   123  H   -0.034495
   124  H   -0.039760
   125  H   -0.019599
   126  H   -0.024440
   127  H   -0.019343
   128  H   -0.034993
   129  H   -0.025058
   130  H   -0.033391
   131  H   -0.034606
   132  H   -0.035018
   133  H   -0.031835
   134  H   -0.041496
   135  H   -0.024941
   136  H   -0.019242
   137  H   -0.008800
   138  H   -0.011323
   139  H   -0.026007
   140  H   -0.023314
 Sum of Mulliken charges =  -0.00000

 Dipole moment (field-independent basis, Debye):
    X=              5.0927    Y=              2.8230    Z=             -3.4047  Tot=              6.7451
 Quadrupole moment (field-independent basis, Debye-Ang):
   XX=           -376.6597   YY=           -434.6262   ZZ=           -408.7020
   XY=            -21.5007   XZ=              4.9172   YZ=             14.7670

 Normal termination of Gaussian 16 at Sat Apr 30 21:13:55 2022.
