 Gaussian 16, Revision A.03,
 Gaussian 16:  ES64L-G16RevA.03 25-Dec-2016

 -----------------------------------
 #p cam-b3lyp/Def2SVP td=(nstates=5)
 -----------------------------------

 ------------------------------------------------------
 step_851_chromophore_9 TDDFT with cam-b3lyp functional
 ------------------------------------------------------
 Symbolic Z-matrix:
 Charge =  0 Multiplicity = 1

                         Standard orientation:
 ---------------------------------------------------------------------
 Center     Atomic      Atomic             Coordinates (Angstroms)
 Number     Number       Type             X           Y           Z
 ---------------------------------------------------------------------
      1         12           0       -5.300193    0.671678   -0.361519
      2          6           0       -4.023990   -2.501844    0.010129
      3          6           0       -1.969507    1.814852   -0.437040
      4          6           0       -6.433017    3.910095   -0.150111
      5          6           0       -8.472494   -0.505632    0.440911
      6          7           0       -3.235381   -0.214073   -0.153047
      7          6           0       -2.990520   -1.575417   -0.017661
      8          6           0       -1.506145   -1.888533   -0.157088
      9          6           0       -0.839243   -0.447330   -0.077568
     10          6           0       -2.067983    0.454630   -0.219610
     11          6           0        0.020936   -0.029045    1.139716
     12          6           0       -1.087209   -2.808587   -1.374472
     13          6           0        0.386986   -3.300305   -1.429030
     14          6           0        1.355446   -2.964205   -0.291833
     15          8           0        1.134043   -3.213596    0.866351
     16          8           0        2.611848   -2.538058   -0.799335
     17          7           0       -4.352484    2.575378   -0.543149
     18          6           0       -2.992203    2.782197   -0.523328
     19          6           0       -2.681991    4.204398   -0.509878
     20          6           0       -3.923442    4.866930   -0.359240
     21          6           0       -4.986818    3.773901   -0.375294
     22          6           0       -1.295084    4.783796   -0.636961
     23          6           0       -4.292939    6.366938   -0.336844
     24          8           0       -5.418793    6.745496   -0.323457
     25          6           0       -3.255174    7.440994   -0.391339
     26          7           0       -7.050864    1.513523    0.191323
     27          6           0       -7.344674    2.896183    0.049406
     28          6           0       -8.822307    3.214894    0.404601
     29          6           0       -9.445763    1.811032    0.416690
     30          6           0       -8.265926    0.875387    0.323824
     31          6           0       -8.983175    4.049006    1.660257
     32          6           0      -10.493367    1.567492   -0.684833
     33          6           0       -9.940180    0.906010   -1.982561
     34          7           0       -6.121386   -1.200409    0.082555
     35          6           0       -7.462389   -1.460902    0.367924
     36          6           0       -7.543710   -2.860121    0.615666
     37          6           0       -6.231226   -3.333271    0.494251
     38          6           0       -5.421592   -2.229382    0.185842
     39          6           0       -8.775105   -3.618462    0.931473
     40          6           0       -5.429880   -4.503953    0.446957
     41          8           0       -5.674777   -5.679213    0.669699
     42          6           0       -4.022283   -4.074590    0.172906
     43          6           0       -3.109838   -4.489513    1.312735
     44          8           0       -3.414046   -4.297454    2.457003
     45          8           0       -1.954316   -5.056739    0.815407
     46          6           0       -0.994864   -5.494628    1.826244
     47          6           0        3.676671   -2.246563    0.181436
     48          6           0        4.981758   -1.961235   -0.451883
     49          6           0        5.824559   -2.720112   -1.211479
     50          6           0        5.677895   -4.242069   -1.231791
     51          6           0        7.131549   -2.154944   -1.823537
     52          6           0        6.994939   -1.061700   -2.852392
     53          6           0        8.029589   -1.237201   -3.991795
     54          6           0        8.965303    0.002515   -4.012999
     55          6           0        9.745108    0.003006   -5.360984
     56          6           0       10.111880   -0.234075   -2.856811
     57          6           0        9.960286    0.744693   -1.713149
     58          6           0       11.135637    1.717213   -1.495879
     59          6           0       10.991997    2.510765   -0.111739
     60          6           0       11.347337    3.967094   -0.362480
     61          6           0       11.756083    1.932307    1.077566
     62          6           0       10.837902    1.962543    2.273244
     63          6           0       11.377768    1.049557    3.442882
     64          6           0       11.128974    1.519579    4.839856
     65          6           0       12.123484    0.962163    5.925590
     66          6           0        9.706482    1.276042    5.279591
     67          1           0       -0.951680    2.173395   -0.604040
     68          1           0       -6.699306    4.886961    0.258561
     69          1           0       -9.423437   -0.943164    0.755875
     70          1           0       -1.271280   -2.427939    0.760618
     71          1           0       -0.271406   -0.217143   -0.978047
     72          1           0       -0.018197   -0.712793    1.987769
     73          1           0       -0.309340    0.984370    1.369126
     74          1           0        1.096346   -0.037940    0.961100
     75          1           0       -1.133576   -2.143191   -2.236771
     76          1           0       -1.772200   -3.654234   -1.424411
     77          1           0        0.812913   -3.031432   -2.396732
     78          1           0        0.244531   -4.380253   -1.451680
     79          1           0       -0.783837    4.815263    0.324692
     80          1           0       -1.335717    5.753664   -1.132967
     81          1           0       -0.663309    4.191091   -1.299250
     82          1           0       -2.898747    7.512158   -1.418814
     83          1           0       -2.424451    7.187741    0.266704
     84          1           0       -3.571488    8.420074   -0.031836
     85          1           0       -9.188423    3.809910   -0.431510
     86          1           0       -9.922197    1.561400    1.365320
     87          1           0       -9.677499    3.716353    2.432011
     88          1           0       -9.447759    4.965885    1.298279
     89          1           0       -8.049257    4.371036    2.120540
     90          1           0      -11.096223    2.437238   -0.943683
     91          1           0      -11.194223    0.879236   -0.212447
     92          1           0      -10.048881   -0.177271   -1.922576
     93          1           0       -8.867649    1.010565   -2.143540
     94          1           0      -10.569579    1.094581   -2.853167
     95          1           0       -9.084195   -3.174745    1.877796
     96          1           0       -8.546172   -4.683750    0.963099
     97          1           0       -9.569672   -3.544973    0.189581
     98          1           0       -3.738797   -4.536343   -0.772993
     99          1           0       -1.339471   -6.462306    2.190837
    100          1           0       -0.844098   -4.899390    2.726708
    101          1           0       -0.001316   -5.733191    1.446520
    102          1           0        3.646514   -3.129036    0.820902
    103          1           0        3.339474   -1.418922    0.804772
    104          1           0        5.164021   -0.890012   -0.530979
    105          1           0        5.557546   -4.570286   -2.264563
    106          1           0        4.818471   -4.651028   -0.701202
    107          1           0        6.616146   -4.589961   -0.799839
    108          1           0        7.869771   -2.938163   -1.995165
    109          1           0        7.576971   -1.607965   -0.992387
    110          1           0        6.991112   -0.076454   -2.387305
    111          1           0        6.009154   -1.142688   -3.311325
    112          1           0        7.424452   -1.299881   -4.896426
    113          1           0        8.675260   -2.115256   -3.963196
    114          1           0        8.449479    0.958057   -3.921278
    115          1           0        9.341166    0.764989   -6.027354
    116          1           0        9.561976   -0.940388   -5.875139
    117          1           0       10.823541    0.144331   -5.285568
    118          1           0       11.160005   -0.240789   -3.153921
    119          1           0        9.941679   -1.234429   -2.459374
    120          1           0        9.711402    0.267565   -0.765067
    121          1           0        9.126153    1.433829   -1.844484
    122          1           0       11.184569    2.479620   -2.274113
    123          1           0       12.055141    1.136007   -1.424902
    124          1           0        9.919916    2.569458    0.077365
    125          1           0       12.378240    4.086757   -0.696212
    126          1           0       11.233389    4.593596    0.522498
    127          1           0       10.722273    4.379231   -1.154497
    128          1           0       12.513810    2.679177    1.312940
    129          1           0       12.141723    0.918355    0.975008
    130          1           0        9.859734    1.582323    1.976883
    131          1           0       10.645356    2.959845    2.669210
    132          1           0       12.451223    0.974982    3.272022
    133          1           0       10.893768    0.082520    3.304627
    134          1           0       11.156100    2.608893    4.834624
    135          1           0       12.915706    0.390818    5.442844
    136          1           0       11.684151    0.257005    6.631087
    137          1           0       12.532224    1.791907    6.501945
    138          1           0        9.690731    0.868982    6.290449
    139          1           0        9.213573    0.654465    4.532547
    140          1           0        9.227953    2.251551    5.194482
 ---------------------------------------------------------------------

 SCF Done:  E(RCAM-B3LYP) =  -3007.17687224     A.U. after   18 cycles

 Excitation energies and oscillator strengths:

 Excited State   1:      Singlet-A      1.6121 eV  769.09 nm  f=0.3778  <S**2>=0.000
     245 -> 248       -0.14908
     246 -> 247        0.69391
     245 <- 248       -0.10272
 This state for optimization and/or second-order correction.
 Total Energy, E(TD-HF/TD-DFT) =  -3007.11762884
 Copying the excited state density for this state as the 1-particle RhoCI density.

 Excited State   2:      Singlet-A      2.2507 eV  550.87 nm  f=0.1213  <S**2>=0.000
     245 -> 247        0.63710
     246 -> 248        0.29169

 Excited State   3:      Singlet-A      3.3291 eV  372.42 nm  f=0.0027  <S**2>=0.000
     242 -> 247       -0.10233
     243 -> 247        0.17763
     243 -> 249       -0.10983
     243 -> 251        0.11549
     244 -> 247        0.62834

 Excited State   4:      Singlet-A      3.4503 eV  359.35 nm  f=0.0409  <S**2>=0.000
     242 -> 247        0.37045
     243 -> 247        0.46403
     243 -> 249       -0.16650
     243 -> 251        0.14217
     244 -> 247       -0.16524
     246 -> 248       -0.17822

 Excited State   5:      Singlet-A      3.5018 eV  354.05 nm  f=0.1502  <S**2>=0.000
     239 -> 247        0.11328
     240 -> 247       -0.15546
     242 -> 247       -0.32349
     243 -> 247        0.35117
     243 -> 249       -0.10288
     244 -> 247       -0.14413
     245 -> 247       -0.13295
     246 -> 248        0.39844

 The electronic state is 1-A.
 Alpha  occ. eigenvalues --  -46.88325 -19.25174 -19.24455 -19.21276 -19.19365
 Alpha  occ. eigenvalues --  -19.18874 -19.16921 -14.42074 -14.42009 -14.40061
 Alpha  occ. eigenvalues --  -14.38100 -10.40339 -10.38686 -10.35011 -10.32550
 Alpha  occ. eigenvalues --  -10.32011 -10.31158 -10.30734 -10.30725 -10.30556
 Alpha  occ. eigenvalues --  -10.30542 -10.30389 -10.30190 -10.28756 -10.28697
 Alpha  occ. eigenvalues --  -10.28265 -10.28092 -10.27886 -10.27750 -10.27663
 Alpha  occ. eigenvalues --  -10.27627 -10.27623 -10.27394 -10.27369 -10.27113
 Alpha  occ. eigenvalues --  -10.27081 -10.26821 -10.26773 -10.26761 -10.26478
 Alpha  occ. eigenvalues --  -10.26472 -10.26387 -10.26311 -10.26243 -10.26033
 Alpha  occ. eigenvalues --  -10.25866 -10.25864 -10.25854 -10.25839 -10.25773
 Alpha  occ. eigenvalues --  -10.25487 -10.25453 -10.25261 -10.25135 -10.25080
 Alpha  occ. eigenvalues --  -10.24999 -10.24968 -10.24929 -10.24890 -10.24834
 Alpha  occ. eigenvalues --  -10.24516 -10.24490 -10.24489 -10.24382 -10.23879
 Alpha  occ. eigenvalues --  -10.23201  -3.16936  -1.91828  -1.91392  -1.91240
 Alpha  occ. eigenvalues --   -1.15921  -1.15868  -1.12220  -1.08700  -1.08390
 Alpha  occ. eigenvalues --   -1.07968  -1.05178  -1.03410  -1.02600  -1.01785
 Alpha  occ. eigenvalues --   -0.91677  -0.90974  -0.90392  -0.89087  -0.88896
 Alpha  occ. eigenvalues --   -0.88761  -0.88367  -0.88031  -0.87590  -0.87213
 Alpha  occ. eigenvalues --   -0.86392  -0.85431  -0.84758  -0.83333  -0.83114
 Alpha  occ. eigenvalues --   -0.82568  -0.81779  -0.81404  -0.80796  -0.80437
 Alpha  occ. eigenvalues --   -0.80060  -0.78245  -0.77981  -0.77157  -0.76034
 Alpha  occ. eigenvalues --   -0.75735  -0.75411  -0.75130  -0.74793  -0.74520
 Alpha  occ. eigenvalues --   -0.73447  -0.72713  -0.71349  -0.70457  -0.69610
 Alpha  occ. eigenvalues --   -0.68284  -0.68042  -0.67175  -0.66853  -0.65420
 Alpha  occ. eigenvalues --   -0.65272  -0.64712  -0.64569  -0.64247  -0.64050
 Alpha  occ. eigenvalues --   -0.63800  -0.63010  -0.62498  -0.62217  -0.59892
 Alpha  occ. eigenvalues --   -0.59842  -0.59135  -0.58616  -0.58289  -0.57698
 Alpha  occ. eigenvalues --   -0.57062  -0.56937  -0.56484  -0.55745  -0.55506
 Alpha  occ. eigenvalues --   -0.55136  -0.54838  -0.54763  -0.54280  -0.54189
 Alpha  occ. eigenvalues --   -0.53995  -0.53877  -0.53310  -0.53070  -0.52894
 Alpha  occ. eigenvalues --   -0.52783  -0.52560  -0.52272  -0.52134  -0.51873
 Alpha  occ. eigenvalues --   -0.51800  -0.51199  -0.51117  -0.51098  -0.50907
 Alpha  occ. eigenvalues --   -0.50625  -0.50557  -0.50406  -0.50073  -0.49580
 Alpha  occ. eigenvalues --   -0.49420  -0.49159  -0.49090  -0.49066  -0.48999
 Alpha  occ. eigenvalues --   -0.48493  -0.48218  -0.48011  -0.47905  -0.47829
 Alpha  occ. eigenvalues --   -0.47428  -0.47352  -0.47041  -0.46766  -0.46744
 Alpha  occ. eigenvalues --   -0.46505  -0.46244  -0.46078  -0.45961  -0.45841
 Alpha  occ. eigenvalues --   -0.45609  -0.45508  -0.45254  -0.45164  -0.44813
 Alpha  occ. eigenvalues --   -0.44737  -0.44202  -0.43940  -0.43823  -0.43622
 Alpha  occ. eigenvalues --   -0.43415  -0.43328  -0.43222  -0.43212  -0.43054
 Alpha  occ. eigenvalues --   -0.42798  -0.42754  -0.42510  -0.42355  -0.42272
 Alpha  occ. eigenvalues --   -0.41998  -0.41548  -0.41431  -0.41422  -0.40920
 Alpha  occ. eigenvalues --   -0.40879  -0.40778  -0.40549  -0.40327  -0.40154
 Alpha  occ. eigenvalues --   -0.39964  -0.39659  -0.39286  -0.39190  -0.38845
 Alpha  occ. eigenvalues --   -0.38370  -0.38190  -0.38011  -0.37488  -0.37091
 Alpha  occ. eigenvalues --   -0.37028  -0.36878  -0.36805  -0.36593  -0.36439
 Alpha  occ. eigenvalues --   -0.36066  -0.36036  -0.35557  -0.34983  -0.34217
 Alpha  occ. eigenvalues --   -0.34164  -0.33935  -0.32637  -0.31262  -0.30981
 Alpha  occ. eigenvalues --   -0.30513  -0.30111  -0.29693  -0.29056  -0.24164
 Alpha  occ. eigenvalues --   -0.20487
 Alpha virt. eigenvalues --   -0.08640  -0.00984   0.01353   0.02392   0.02911
 Alpha virt. eigenvalues --    0.03167   0.03818   0.05594   0.06651   0.07210
 Alpha virt. eigenvalues --    0.08195   0.08485   0.08812   0.09092   0.09345

 Mulliken charges:
               1
     1  Mg   0.836749
     2  C   -0.050821
     3  C   -0.103015
     4  C   -0.054986
     5  C   -0.095930
     6  N   -0.273044
     7  C   -0.026235
     8  C    0.010447
     9  C   -0.055322
    10  C    0.013025
    11  C    0.080720
    12  C    0.077643
    13  C    0.075796
    14  C    0.161982
    15  O   -0.219900
    16  O   -0.368941
    17  N   -0.341925
    18  C    0.164302
    19  C   -0.153809
    20  C   -0.060142
    21  C    0.065387
    22  C    0.118483
    23  C    0.002108
    24  O   -0.170336
    25  C    0.040897
    26  N   -0.368872
    27  C    0.068931
    28  C   -0.003414
    29  C    0.012122
    30  C    0.057310
    31  C    0.062233
    32  C    0.014825
    33  C    0.023144
    34  N   -0.286842
    35  C    0.091325
    36  C   -0.171645
    37  C    0.017935
    38  C    0.056966
    39  C    0.116770
    40  C    0.011375
    41  O   -0.178927
    42  C    0.014135
    43  C    0.199985
    44  O   -0.184245
    45  O   -0.342046
    46  C    0.186546
    47  C    0.286218
    48  C   -0.112102
    49  C   -0.150025
    50  C    0.069800
    51  C    0.057711
    52  C    0.040813
    53  C    0.039291
    54  C   -0.157156
    55  C    0.056037
    56  C    0.090216
    57  C   -0.034029
    58  C    0.063175
    59  C   -0.141682
    60  C    0.029073
    61  C    0.108858
    62  C   -0.039510
    63  C    0.057395
    64  C   -0.172274
    65  C    0.049226
    66  C    0.064379
    67  H   -0.031104
    68  H    0.016685
    69  H   -0.024392
    70  H    0.023921
    71  H    0.006360
    72  H    0.030499
    73  H    0.016491
    74  H    0.003203
    75  H    0.006207
    76  H    0.019950
    77  H    0.024410
    78  H    0.036184
    79  H    0.037718
    80  H    0.015303
    81  H    0.019451
    82  H    0.047271
    83  H    0.020290
    84  H    0.027530
    85  H    0.016326
    86  H    0.004388
    87  H    0.016151
    88  H    0.008346
    89  H    0.029291
    90  H    0.010843
    91  H   -0.000544
    92  H    0.000979
    93  H    0.027481
    94  H    0.010591
    95  H    0.031963
    96  H    0.034973
    97  H    0.018577
    98  H    0.035403
    99  H    0.019011
   100  H    0.043372
   101  H    0.029602
   102  H    0.013207
   103  H    0.012646
   104  H   -0.012226
   105  H    0.023343
   106  H    0.016396
   107  H    0.029802
   108  H    0.002563
   109  H    0.015076
   110  H    0.009320
   111  H    0.002934
   112  H   -0.000242
   113  H    0.009183
   114  H    0.008670
   115  H    0.000742
   116  H   -0.002916
   117  H    0.009752
   118  H    0.001435
   119  H   -0.016311
   120  H   -0.006954
   121  H   -0.005471
   122  H   -0.009680
   123  H   -0.007827
   124  H   -0.008445
   125  H    0.004601
   126  H    0.000222
   127  H    0.004935
   128  H   -0.004677
   129  H    0.004653
   130  H   -0.007220
   131  H   -0.008628
   132  H   -0.006038
   133  H   -0.003764
   134  H   -0.009016
   135  H   -0.000349
   136  H    0.004545
   137  H    0.015255
   138  H    0.013170
   139  H   -0.002040
   140  H    0.000467
 Sum of Mulliken charges =  -0.00000

 Dipole moment (field-independent basis, Debye):
    X=              5.5925    Y=              3.7273    Z=             -3.5927  Tot=              7.6208
 Quadrupole moment (field-independent basis, Debye-Ang):
   XX=           -379.1901   YY=           -430.1735   ZZ=           -408.9448
   XY=            -24.1199   XZ=              5.6123   YZ=             15.2928

 Normal termination of Gaussian 16 at Sat Apr 30 19:50:45 2022.
