 Gaussian 16, Revision A.03,
 Gaussian 16:  ES64L-G16RevA.03 25-Dec-2016

 ---------------------------------
 #p PBE1PBE/Def2SVP td=(nstates=5)
 ---------------------------------

 ----------------------------------------------------
 step_851_chromophore_9 TDDFT with PBE1PBE functional
 ----------------------------------------------------
 Symbolic Z-matrix:
 Charge =  0 Multiplicity = 1

                         Standard orientation:
 ---------------------------------------------------------------------
 Center     Atomic      Atomic             Coordinates (Angstroms)
 Number     Number       Type             X           Y           Z
 ---------------------------------------------------------------------
      1         12           0       -5.300193    0.671678   -0.361519
      2          6           0       -4.023990   -2.501844    0.010129
      3          6           0       -1.969507    1.814852   -0.437040
      4          6           0       -6.433017    3.910095   -0.150111
      5          6           0       -8.472494   -0.505632    0.440911
      6          7           0       -3.235381   -0.214073   -0.153047
      7          6           0       -2.990520   -1.575417   -0.017661
      8          6           0       -1.506145   -1.888533   -0.157088
      9          6           0       -0.839243   -0.447330   -0.077568
     10          6           0       -2.067983    0.454630   -0.219610
     11          6           0        0.020936   -0.029045    1.139716
     12          6           0       -1.087209   -2.808587   -1.374472
     13          6           0        0.386986   -3.300305   -1.429030
     14          6           0        1.355446   -2.964205   -0.291833
     15          8           0        1.134043   -3.213596    0.866351
     16          8           0        2.611848   -2.538058   -0.799335
     17          7           0       -4.352484    2.575378   -0.543149
     18          6           0       -2.992203    2.782197   -0.523328
     19          6           0       -2.681991    4.204398   -0.509878
     20          6           0       -3.923442    4.866930   -0.359240
     21          6           0       -4.986818    3.773901   -0.375294
     22          6           0       -1.295084    4.783796   -0.636961
     23          6           0       -4.292939    6.366938   -0.336844
     24          8           0       -5.418793    6.745496   -0.323457
     25          6           0       -3.255174    7.440994   -0.391339
     26          7           0       -7.050864    1.513523    0.191323
     27          6           0       -7.344674    2.896183    0.049406
     28          6           0       -8.822307    3.214894    0.404601
     29          6           0       -9.445763    1.811032    0.416690
     30          6           0       -8.265926    0.875387    0.323824
     31          6           0       -8.983175    4.049006    1.660257
     32          6           0      -10.493367    1.567492   -0.684833
     33          6           0       -9.940180    0.906010   -1.982561
     34          7           0       -6.121386   -1.200409    0.082555
     35          6           0       -7.462389   -1.460902    0.367924
     36          6           0       -7.543710   -2.860121    0.615666
     37          6           0       -6.231226   -3.333271    0.494251
     38          6           0       -5.421592   -2.229382    0.185842
     39          6           0       -8.775105   -3.618462    0.931473
     40          6           0       -5.429880   -4.503953    0.446957
     41          8           0       -5.674777   -5.679213    0.669699
     42          6           0       -4.022283   -4.074590    0.172906
     43          6           0       -3.109838   -4.489513    1.312735
     44          8           0       -3.414046   -4.297454    2.457003
     45          8           0       -1.954316   -5.056739    0.815407
     46          6           0       -0.994864   -5.494628    1.826244
     47          6           0        3.676671   -2.246563    0.181436
     48          6           0        4.981758   -1.961235   -0.451883
     49          6           0        5.824559   -2.720112   -1.211479
     50          6           0        5.677895   -4.242069   -1.231791
     51          6           0        7.131549   -2.154944   -1.823537
     52          6           0        6.994939   -1.061700   -2.852392
     53          6           0        8.029589   -1.237201   -3.991795
     54          6           0        8.965303    0.002515   -4.012999
     55          6           0        9.745108    0.003006   -5.360984
     56          6           0       10.111880   -0.234075   -2.856811
     57          6           0        9.960286    0.744693   -1.713149
     58          6           0       11.135637    1.717213   -1.495879
     59          6           0       10.991997    2.510765   -0.111739
     60          6           0       11.347337    3.967094   -0.362480
     61          6           0       11.756083    1.932307    1.077566
     62          6           0       10.837902    1.962543    2.273244
     63          6           0       11.377768    1.049557    3.442882
     64          6           0       11.128974    1.519579    4.839856
     65          6           0       12.123484    0.962163    5.925590
     66          6           0        9.706482    1.276042    5.279591
     67          1           0       -0.951680    2.173395   -0.604040
     68          1           0       -6.699306    4.886961    0.258561
     69          1           0       -9.423437   -0.943164    0.755875
     70          1           0       -1.271280   -2.427939    0.760618
     71          1           0       -0.271406   -0.217143   -0.978047
     72          1           0       -0.018197   -0.712793    1.987769
     73          1           0       -0.309340    0.984370    1.369126
     74          1           0        1.096346   -0.037940    0.961100
     75          1           0       -1.133576   -2.143191   -2.236771
     76          1           0       -1.772200   -3.654234   -1.424411
     77          1           0        0.812913   -3.031432   -2.396732
     78          1           0        0.244531   -4.380253   -1.451680
     79          1           0       -0.783837    4.815263    0.324692
     80          1           0       -1.335717    5.753664   -1.132967
     81          1           0       -0.663309    4.191091   -1.299250
     82          1           0       -2.898747    7.512158   -1.418814
     83          1           0       -2.424451    7.187741    0.266704
     84          1           0       -3.571488    8.420074   -0.031836
     85          1           0       -9.188423    3.809910   -0.431510
     86          1           0       -9.922197    1.561400    1.365320
     87          1           0       -9.677499    3.716353    2.432011
     88          1           0       -9.447759    4.965885    1.298279
     89          1           0       -8.049257    4.371036    2.120540
     90          1           0      -11.096223    2.437238   -0.943683
     91          1           0      -11.194223    0.879236   -0.212447
     92          1           0      -10.048881   -0.177271   -1.922576
     93          1           0       -8.867649    1.010565   -2.143540
     94          1           0      -10.569579    1.094581   -2.853167
     95          1           0       -9.084195   -3.174745    1.877796
     96          1           0       -8.546172   -4.683750    0.963099
     97          1           0       -9.569672   -3.544973    0.189581
     98          1           0       -3.738797   -4.536343   -0.772993
     99          1           0       -1.339471   -6.462306    2.190837
    100          1           0       -0.844098   -4.899390    2.726708
    101          1           0       -0.001316   -5.733191    1.446520
    102          1           0        3.646514   -3.129036    0.820902
    103          1           0        3.339474   -1.418922    0.804772
    104          1           0        5.164021   -0.890012   -0.530979
    105          1           0        5.557546   -4.570286   -2.264563
    106          1           0        4.818471   -4.651028   -0.701202
    107          1           0        6.616146   -4.589961   -0.799839
    108          1           0        7.869771   -2.938163   -1.995165
    109          1           0        7.576971   -1.607965   -0.992387
    110          1           0        6.991112   -0.076454   -2.387305
    111          1           0        6.009154   -1.142688   -3.311325
    112          1           0        7.424452   -1.299881   -4.896426
    113          1           0        8.675260   -2.115256   -3.963196
    114          1           0        8.449479    0.958057   -3.921278
    115          1           0        9.341166    0.764989   -6.027354
    116          1           0        9.561976   -0.940388   -5.875139
    117          1           0       10.823541    0.144331   -5.285568
    118          1           0       11.160005   -0.240789   -3.153921
    119          1           0        9.941679   -1.234429   -2.459374
    120          1           0        9.711402    0.267565   -0.765067
    121          1           0        9.126153    1.433829   -1.844484
    122          1           0       11.184569    2.479620   -2.274113
    123          1           0       12.055141    1.136007   -1.424902
    124          1           0        9.919916    2.569458    0.077365
    125          1           0       12.378240    4.086757   -0.696212
    126          1           0       11.233389    4.593596    0.522498
    127          1           0       10.722273    4.379231   -1.154497
    128          1           0       12.513810    2.679177    1.312940
    129          1           0       12.141723    0.918355    0.975008
    130          1           0        9.859734    1.582323    1.976883
    131          1           0       10.645356    2.959845    2.669210
    132          1           0       12.451223    0.974982    3.272022
    133          1           0       10.893768    0.082520    3.304627
    134          1           0       11.156100    2.608893    4.834624
    135          1           0       12.915706    0.390818    5.442844
    136          1           0       11.684151    0.257005    6.631087
    137          1           0       12.532224    1.791907    6.501945
    138          1           0        9.690731    0.868982    6.290449
    139          1           0        9.213573    0.654465    4.532547
    140          1           0        9.227953    2.251551    5.194482
 ---------------------------------------------------------------------

 SCF Done:  E(RPBE1PBE) =  -3005.36395715     A.U. after   15 cycles

 Excitation energies and oscillator strengths:

 Excited State   1:      Singlet-A      1.7755 eV  698.30 nm  f=0.3616  <S**2>=0.000
     245 -> 248        0.14322
     246 -> 247        0.70244
     246 <- 247       -0.12868
 This state for optimization and/or second-order correction.
 Total Energy, E(TD-HF/TD-DFT) =  -3005.29870864
 Copying the excited state density for this state as the 1-particle RhoCI density.

 Excited State   2:      Singlet-A      2.2563 eV  549.49 nm  f=0.1189  <S**2>=0.000
     245 -> 247        0.64703
     246 -> 248       -0.26620

 Excited State   3:      Singlet-A      2.7865 eV  444.94 nm  f=0.0012  <S**2>=0.000
     243 -> 247       -0.10115
     244 -> 247        0.67659
     244 -> 249        0.11255

 Excited State   4:      Singlet-A      3.0270 eV  409.59 nm  f=0.0020  <S**2>=0.000
     242 -> 247        0.28650
     243 -> 247        0.62806

 Excited State   5:      Singlet-A      3.0990 eV  400.08 nm  f=0.0012  <S**2>=0.000
     240 -> 247        0.14182
     242 -> 247        0.59779
     243 -> 247       -0.27764
     246 -> 248       -0.10985

 The electronic state is 1-A.
 Alpha  occ. eigenvalues --  -46.91721 -19.25845 -19.25133 -19.21462 -19.19600
 Alpha  occ. eigenvalues --  -19.18919 -19.17293 -14.41697 -14.41453 -14.39600
 Alpha  occ. eigenvalues --  -14.37792 -10.37328 -10.35736 -10.31994 -10.29774
 Alpha  occ. eigenvalues --  -10.29348 -10.28695 -10.28526 -10.28395 -10.28314
 Alpha  occ. eigenvalues --  -10.28079 -10.27799 -10.27662 -10.26421 -10.26195
 Alpha  occ. eigenvalues --  -10.26133 -10.25818 -10.25576 -10.25486 -10.25389
 Alpha  occ. eigenvalues --  -10.25299 -10.25172 -10.25144 -10.24877 -10.24807
 Alpha  occ. eigenvalues --  -10.24661 -10.24652 -10.24583 -10.24323 -10.24266
 Alpha  occ. eigenvalues --  -10.24061 -10.24032 -10.23934 -10.23759 -10.23697
 Alpha  occ. eigenvalues --  -10.23411 -10.23397 -10.23380 -10.23259 -10.23196
 Alpha  occ. eigenvalues --  -10.23052 -10.23024 -10.22737 -10.22687 -10.22646
 Alpha  occ. eigenvalues --  -10.22606 -10.22483 -10.22454 -10.22410 -10.22360
 Alpha  occ. eigenvalues --  -10.22029 -10.21902 -10.21888 -10.21794 -10.21242
 Alpha  occ. eigenvalues --  -10.21084  -3.13910  -1.86743  -1.86287  -1.86135
 Alpha  occ. eigenvalues --   -1.10695  -1.10609  -1.06840  -1.03544  -1.03227
 Alpha  occ. eigenvalues --   -1.02845  -1.00040  -0.97941  -0.97152  -0.96383
 Alpha  occ. eigenvalues --   -0.86089  -0.85084  -0.84484  -0.83237  -0.83209
 Alpha  occ. eigenvalues --   -0.82919  -0.82677  -0.82154  -0.81912  -0.81500
 Alpha  occ. eigenvalues --   -0.80669  -0.79617  -0.78934  -0.77540  -0.77440
 Alpha  occ. eigenvalues --   -0.76835  -0.75887  -0.75559  -0.74981  -0.74689
 Alpha  occ. eigenvalues --   -0.74396  -0.72500  -0.72189  -0.71470  -0.70236
 Alpha  occ. eigenvalues --   -0.70054  -0.69492  -0.69491  -0.68943  -0.68675
 Alpha  occ. eigenvalues --   -0.67771  -0.67166  -0.65724  -0.64781  -0.64005
 Alpha  occ. eigenvalues --   -0.62642  -0.62358  -0.61399  -0.61233  -0.59744
 Alpha  occ. eigenvalues --   -0.59604  -0.59084  -0.58840  -0.58811  -0.58629
 Alpha  occ. eigenvalues --   -0.57936  -0.57525  -0.56830  -0.56661  -0.54349
 Alpha  occ. eigenvalues --   -0.54266  -0.53672  -0.53184  -0.52887  -0.52185
 Alpha  occ. eigenvalues --   -0.51672  -0.51324  -0.50883  -0.50334  -0.49977
 Alpha  occ. eigenvalues --   -0.49671  -0.49365  -0.49273  -0.48772  -0.48571
 Alpha  occ. eigenvalues --   -0.48466  -0.48303  -0.47792  -0.47674  -0.47460
 Alpha  occ. eigenvalues --   -0.47046  -0.46991  -0.46757  -0.46729  -0.46399
 Alpha  occ. eigenvalues --   -0.46354  -0.45836  -0.45687  -0.45609  -0.45440
 Alpha  occ. eigenvalues --   -0.45125  -0.45064  -0.44984  -0.44588  -0.44103
 Alpha  occ. eigenvalues --   -0.44011  -0.43768  -0.43684  -0.43663  -0.43617
 Alpha  occ. eigenvalues --   -0.42989  -0.42833  -0.42598  -0.42557  -0.42410
 Alpha  occ. eigenvalues --   -0.42186  -0.42011  -0.41709  -0.41472  -0.41398
 Alpha  occ. eigenvalues --   -0.41172  -0.40901  -0.40848  -0.40592  -0.40529
 Alpha  occ. eigenvalues --   -0.40299  -0.40138  -0.39932  -0.39867  -0.39527
 Alpha  occ. eigenvalues --   -0.39453  -0.38959  -0.38722  -0.38623  -0.38399
 Alpha  occ. eigenvalues --   -0.38148  -0.38109  -0.37990  -0.37912  -0.37761
 Alpha  occ. eigenvalues --   -0.37689  -0.37480  -0.37287  -0.37170  -0.37085
 Alpha  occ. eigenvalues --   -0.36905  -0.36362  -0.36298  -0.36198  -0.35767
 Alpha  occ. eigenvalues --   -0.35677  -0.35643  -0.35281  -0.35116  -0.35015
 Alpha  occ. eigenvalues --   -0.34720  -0.34587  -0.34177  -0.33936  -0.33784
 Alpha  occ. eigenvalues --   -0.33174  -0.33117  -0.32775  -0.32346  -0.32077
 Alpha  occ. eigenvalues --   -0.31880  -0.31791  -0.31632  -0.31557  -0.31365
 Alpha  occ. eigenvalues --   -0.31024  -0.30947  -0.30504  -0.29853  -0.29343
 Alpha  occ. eigenvalues --   -0.29228  -0.28904  -0.28199  -0.26701  -0.26004
 Alpha  occ. eigenvalues --   -0.25826  -0.25340  -0.25015  -0.24412  -0.20990
 Alpha  occ. eigenvalues --   -0.18180
 Alpha virt. eigenvalues --   -0.11044  -0.04583  -0.02795  -0.01546  -0.01272
 Alpha virt. eigenvalues --   -0.00728  -0.00313   0.01383   0.01878   0.03569
 Alpha virt. eigenvalues --    0.04485   0.04867   0.05149   0.05382   0.05931

 Mulliken charges:
               1
     1  Mg   0.982358
     2  C   -0.046839
     3  C   -0.088917
     4  C   -0.044054
     5  C   -0.076378
     6  N   -0.377626
     7  C    0.039075
     8  C   -0.066250
     9  C   -0.124695
    10  C    0.049982
    11  C    0.021180
    12  C    0.025366
    13  C    0.001767
    14  C    0.225605
    15  O   -0.252789
    16  O   -0.398867
    17  N   -0.456452
    18  C    0.180498
    19  C   -0.176384
    20  C   -0.110964
    21  C    0.101025
    22  C    0.055816
    23  C    0.051806
    24  O   -0.208229
    25  C   -0.032412
    26  N   -0.468093
    27  C    0.088944
    28  C   -0.079234
    29  C   -0.058551
    30  C    0.083809
    31  C    0.006002
    32  C   -0.044385
    33  C   -0.054238
    34  N   -0.428283
    35  C    0.113386
    36  C   -0.187718
    37  C   -0.041166
    38  C    0.128187
    39  C    0.063256
    40  C    0.112291
    41  O   -0.225650
    42  C   -0.099452
    43  C    0.291212
    44  O   -0.219093
    45  O   -0.374511
    46  C    0.129706
    47  C    0.241620
    48  C   -0.126478
    49  C   -0.187540
    50  C    0.005496
    51  C   -0.006855
    52  C   -0.016435
    53  C   -0.019852
    54  C   -0.246624
    55  C    0.000157
    56  C    0.039359
    57  C   -0.096908
    58  C    0.009689
    59  C   -0.226187
    60  C   -0.033279
    61  C    0.047643
    62  C   -0.094603
    63  C   -0.003895
    64  C   -0.263800
    65  C   -0.011962
    66  C    0.006545
    67  H   -0.000492
    68  H    0.046422
    69  H    0.006424
    70  H    0.067381
    71  H    0.043982
    72  H    0.056518
    73  H    0.045230
    74  H    0.032911
    75  H    0.040389
    76  H    0.055044
    77  H    0.055634
    78  H    0.068648
    79  H    0.064897
    80  H    0.043319
    81  H    0.045905
    82  H    0.073165
    83  H    0.047430
    84  H    0.054433
    85  H    0.053522
    86  H    0.042027
    87  H    0.043019
    88  H    0.035889
    89  H    0.056630
    90  H    0.043153
    91  H    0.032302
    92  H    0.029821
    93  H    0.059680
    94  H    0.039834
    95  H    0.059983
    96  H    0.063283
    97  H    0.046606
    98  H    0.071933
    99  H    0.042444
   100  H    0.064299
   101  H    0.052032
   102  H    0.039058
   103  H    0.040643
   104  H    0.018434
   105  H    0.052014
   106  H    0.043635
   107  H    0.057238
   108  H    0.031335
   109  H    0.051201
   110  H    0.039608
   111  H    0.036862
   112  H    0.033609
   113  H    0.040241
   114  H    0.043770
   115  H    0.029195
   116  H    0.024465
   117  H    0.036538
   118  H    0.031661
   119  H    0.017911
   120  H    0.026905
   121  H    0.026930
   122  H    0.023173
   123  H    0.025284
   124  H    0.029084
   125  H    0.033379
   126  H    0.029031
   127  H    0.033501
   128  H    0.030161
   129  H    0.035757
   130  H    0.025675
   131  H    0.023062
   132  H    0.027179
   133  H    0.029896
   134  H    0.029750
   135  H    0.026948
   136  H    0.031121
   137  H    0.042597
   138  H    0.039779
   139  H    0.025610
   140  H    0.027930
 Sum of Mulliken charges =  -0.00000

 Dipole moment (field-independent basis, Debye):
    X=              5.3424    Y=              3.4089    Z=             -3.5665  Tot=              7.2720
 Quadrupole moment (field-independent basis, Debye-Ang):
   XX=           -370.6511   YY=           -427.9662   ZZ=           -406.3537
   XY=            -22.9485   XZ=              4.8088   YZ=             15.4364

 Normal termination of Gaussian 16 at Sat Apr 30 20:16:10 2022.
