 Gaussian 16, Revision A.03,
 Gaussian 16:  ES64L-G16RevA.03 25-Dec-2016

 --------------------------------
 #p wB97XD/Def2SVP td=(nstates=5)
 --------------------------------

 ---------------------------------------------------
 step_851_chromophore_9 TDDFT with wB97XD functional
 ---------------------------------------------------
 Symbolic Z-matrix:
 Charge =  0 Multiplicity = 1

                         Standard orientation:
 ---------------------------------------------------------------------
 Center     Atomic      Atomic             Coordinates (Angstroms)
 Number     Number       Type             X           Y           Z
 ---------------------------------------------------------------------
      1         12           0       -5.300193    0.671678   -0.361519
      2          6           0       -4.023990   -2.501844    0.010129
      3          6           0       -1.969507    1.814852   -0.437040
      4          6           0       -6.433017    3.910095   -0.150111
      5          6           0       -8.472494   -0.505632    0.440911
      6          7           0       -3.235381   -0.214073   -0.153047
      7          6           0       -2.990520   -1.575417   -0.017661
      8          6           0       -1.506145   -1.888533   -0.157088
      9          6           0       -0.839243   -0.447330   -0.077568
     10          6           0       -2.067983    0.454630   -0.219610
     11          6           0        0.020936   -0.029045    1.139716
     12          6           0       -1.087209   -2.808587   -1.374472
     13          6           0        0.386986   -3.300305   -1.429030
     14          6           0        1.355446   -2.964205   -0.291833
     15          8           0        1.134043   -3.213596    0.866351
     16          8           0        2.611848   -2.538058   -0.799335
     17          7           0       -4.352484    2.575378   -0.543149
     18          6           0       -2.992203    2.782197   -0.523328
     19          6           0       -2.681991    4.204398   -0.509878
     20          6           0       -3.923442    4.866930   -0.359240
     21          6           0       -4.986818    3.773901   -0.375294
     22          6           0       -1.295084    4.783796   -0.636961
     23          6           0       -4.292939    6.366938   -0.336844
     24          8           0       -5.418793    6.745496   -0.323457
     25          6           0       -3.255174    7.440994   -0.391339
     26          7           0       -7.050864    1.513523    0.191323
     27          6           0       -7.344674    2.896183    0.049406
     28          6           0       -8.822307    3.214894    0.404601
     29          6           0       -9.445763    1.811032    0.416690
     30          6           0       -8.265926    0.875387    0.323824
     31          6           0       -8.983175    4.049006    1.660257
     32          6           0      -10.493367    1.567492   -0.684833
     33          6           0       -9.940180    0.906010   -1.982561
     34          7           0       -6.121386   -1.200409    0.082555
     35          6           0       -7.462389   -1.460902    0.367924
     36          6           0       -7.543710   -2.860121    0.615666
     37          6           0       -6.231226   -3.333271    0.494251
     38          6           0       -5.421592   -2.229382    0.185842
     39          6           0       -8.775105   -3.618462    0.931473
     40          6           0       -5.429880   -4.503953    0.446957
     41          8           0       -5.674777   -5.679213    0.669699
     42          6           0       -4.022283   -4.074590    0.172906
     43          6           0       -3.109838   -4.489513    1.312735
     44          8           0       -3.414046   -4.297454    2.457003
     45          8           0       -1.954316   -5.056739    0.815407
     46          6           0       -0.994864   -5.494628    1.826244
     47          6           0        3.676671   -2.246563    0.181436
     48          6           0        4.981758   -1.961235   -0.451883
     49          6           0        5.824559   -2.720112   -1.211479
     50          6           0        5.677895   -4.242069   -1.231791
     51          6           0        7.131549   -2.154944   -1.823537
     52          6           0        6.994939   -1.061700   -2.852392
     53          6           0        8.029589   -1.237201   -3.991795
     54          6           0        8.965303    0.002515   -4.012999
     55          6           0        9.745108    0.003006   -5.360984
     56          6           0       10.111880   -0.234075   -2.856811
     57          6           0        9.960286    0.744693   -1.713149
     58          6           0       11.135637    1.717213   -1.495879
     59          6           0       10.991997    2.510765   -0.111739
     60          6           0       11.347337    3.967094   -0.362480
     61          6           0       11.756083    1.932307    1.077566
     62          6           0       10.837902    1.962543    2.273244
     63          6           0       11.377768    1.049557    3.442882
     64          6           0       11.128974    1.519579    4.839856
     65          6           0       12.123484    0.962163    5.925590
     66          6           0        9.706482    1.276042    5.279591
     67          1           0       -0.951680    2.173395   -0.604040
     68          1           0       -6.699306    4.886961    0.258561
     69          1           0       -9.423437   -0.943164    0.755875
     70          1           0       -1.271280   -2.427939    0.760618
     71          1           0       -0.271406   -0.217143   -0.978047
     72          1           0       -0.018197   -0.712793    1.987769
     73          1           0       -0.309340    0.984370    1.369126
     74          1           0        1.096346   -0.037940    0.961100
     75          1           0       -1.133576   -2.143191   -2.236771
     76          1           0       -1.772200   -3.654234   -1.424411
     77          1           0        0.812913   -3.031432   -2.396732
     78          1           0        0.244531   -4.380253   -1.451680
     79          1           0       -0.783837    4.815263    0.324692
     80          1           0       -1.335717    5.753664   -1.132967
     81          1           0       -0.663309    4.191091   -1.299250
     82          1           0       -2.898747    7.512158   -1.418814
     83          1           0       -2.424451    7.187741    0.266704
     84          1           0       -3.571488    8.420074   -0.031836
     85          1           0       -9.188423    3.809910   -0.431510
     86          1           0       -9.922197    1.561400    1.365320
     87          1           0       -9.677499    3.716353    2.432011
     88          1           0       -9.447759    4.965885    1.298279
     89          1           0       -8.049257    4.371036    2.120540
     90          1           0      -11.096223    2.437238   -0.943683
     91          1           0      -11.194223    0.879236   -0.212447
     92          1           0      -10.048881   -0.177271   -1.922576
     93          1           0       -8.867649    1.010565   -2.143540
     94          1           0      -10.569579    1.094581   -2.853167
     95          1           0       -9.084195   -3.174745    1.877796
     96          1           0       -8.546172   -4.683750    0.963099
     97          1           0       -9.569672   -3.544973    0.189581
     98          1           0       -3.738797   -4.536343   -0.772993
     99          1           0       -1.339471   -6.462306    2.190837
    100          1           0       -0.844098   -4.899390    2.726708
    101          1           0       -0.001316   -5.733191    1.446520
    102          1           0        3.646514   -3.129036    0.820902
    103          1           0        3.339474   -1.418922    0.804772
    104          1           0        5.164021   -0.890012   -0.530979
    105          1           0        5.557546   -4.570286   -2.264563
    106          1           0        4.818471   -4.651028   -0.701202
    107          1           0        6.616146   -4.589961   -0.799839
    108          1           0        7.869771   -2.938163   -1.995165
    109          1           0        7.576971   -1.607965   -0.992387
    110          1           0        6.991112   -0.076454   -2.387305
    111          1           0        6.009154   -1.142688   -3.311325
    112          1           0        7.424452   -1.299881   -4.896426
    113          1           0        8.675260   -2.115256   -3.963196
    114          1           0        8.449479    0.958057   -3.921278
    115          1           0        9.341166    0.764989   -6.027354
    116          1           0        9.561976   -0.940388   -5.875139
    117          1           0       10.823541    0.144331   -5.285568
    118          1           0       11.160005   -0.240789   -3.153921
    119          1           0        9.941679   -1.234429   -2.459374
    120          1           0        9.711402    0.267565   -0.765067
    121          1           0        9.126153    1.433829   -1.844484
    122          1           0       11.184569    2.479620   -2.274113
    123          1           0       12.055141    1.136007   -1.424902
    124          1           0        9.919916    2.569458    0.077365
    125          1           0       12.378240    4.086757   -0.696212
    126          1           0       11.233389    4.593596    0.522498
    127          1           0       10.722273    4.379231   -1.154497
    128          1           0       12.513810    2.679177    1.312940
    129          1           0       12.141723    0.918355    0.975008
    130          1           0        9.859734    1.582323    1.976883
    131          1           0       10.645356    2.959845    2.669210
    132          1           0       12.451223    0.974982    3.272022
    133          1           0       10.893768    0.082520    3.304627
    134          1           0       11.156100    2.608893    4.834624
    135          1           0       12.915706    0.390818    5.442844
    136          1           0       11.684151    0.257005    6.631087
    137          1           0       12.532224    1.791907    6.501945
    138          1           0        9.690731    0.868982    6.290449
    139          1           0        9.213573    0.654465    4.532547
    140          1           0        9.227953    2.251551    5.194482
 ---------------------------------------------------------------------

 SCF Done:  E(RwB97XD) =  -3007.87621064     A.U. after   17 cycles

 Excitation energies and oscillator strengths:

 Excited State   1:      Singlet-A      1.5571 eV  796.25 nm  f=0.3778  <S**2>=0.000
     245 -> 248        0.15447
     246 -> 247        0.69140
     245 <- 248        0.11160
 This state for optimization and/or second-order correction.
 Total Energy, E(TD-HF/TD-DFT) =  -3007.81898836
 Copying the excited state density for this state as the 1-particle RhoCI density.

 Excited State   2:      Singlet-A      2.1957 eV  564.67 nm  f=0.1187  <S**2>=0.000
     245 -> 247        0.63551
     246 -> 248       -0.29393

 Excited State   3:      Singlet-A      3.3687 eV  368.05 nm  f=0.0039  <S**2>=0.000
     242 -> 247        0.13970
     243 -> 250        0.10784
     244 -> 247        0.63227
     244 -> 249        0.12802
     246 -> 248        0.10186

 Excited State   4:      Singlet-A      3.4818 eV  356.09 nm  f=0.1099  <S**2>=0.000
     240 -> 247       -0.18063
     242 -> 247        0.42536
     243 -> 247       -0.33184
     243 -> 249       -0.12617
     243 -> 250       -0.10004
     245 -> 247       -0.11140
     246 -> 248       -0.30777

 Excited State   5:      Singlet-A      3.5343 eV  350.80 nm  f=0.1232  <S**2>=0.000
     239 -> 247        0.11280
     242 -> 247        0.15693
     243 -> 247        0.49031
     243 -> 249        0.17511
     243 -> 250        0.13462
     244 -> 247       -0.10853
     245 -> 247       -0.11479
     246 -> 248       -0.33898

 The electronic state is 1-A.
 Alpha  occ. eigenvalues --  -46.94662 -19.30384 -19.29693 -19.26168 -19.24270
 Alpha  occ. eigenvalues --  -19.23902 -19.21938 -14.46686 -14.46629 -14.44681
 Alpha  occ. eigenvalues --  -14.42621 -10.44154 -10.42520 -10.38984 -10.36509
 Alpha  occ. eigenvalues --  -10.35898 -10.35285 -10.34806 -10.34749 -10.34575
 Alpha  occ. eigenvalues --  -10.34344 -10.34309 -10.34288 -10.32896 -10.32781
 Alpha  occ. eigenvalues --  -10.32215 -10.32154 -10.31834 -10.31795 -10.31784
 Alpha  occ. eigenvalues --  -10.31774 -10.31660 -10.31370 -10.31273 -10.31151
 Alpha  occ. eigenvalues --  -10.31112 -10.30844 -10.30840 -10.30781 -10.30522
 Alpha  occ. eigenvalues --  -10.30419 -10.30292 -10.30205 -10.30160 -10.30107
 Alpha  occ. eigenvalues --  -10.29794 -10.29778 -10.29744 -10.29743 -10.29733
 Alpha  occ. eigenvalues --  -10.29479 -10.29410 -10.29115 -10.29018 -10.28972
 Alpha  occ. eigenvalues --  -10.28891 -10.28838 -10.28820 -10.28800 -10.28744
 Alpha  occ. eigenvalues --  -10.28403 -10.28355 -10.28308 -10.28217 -10.27672
 Alpha  occ. eigenvalues --  -10.27181  -3.20706  -1.94289  -1.93832  -1.93680
 Alpha  occ. eigenvalues --   -1.18061  -1.18003  -1.14456  -1.10878  -1.10588
 Alpha  occ. eigenvalues --   -1.10160  -1.07173  -1.05432  -1.04629  -1.03803
 Alpha  occ. eigenvalues --   -0.93629  -0.92767  -0.92154  -0.90899  -0.90775
 Alpha  occ. eigenvalues --   -0.90581  -0.90295  -0.89819  -0.89507  -0.89157
 Alpha  occ. eigenvalues --   -0.88323  -0.87292  -0.86613  -0.85198  -0.84991
 Alpha  occ. eigenvalues --   -0.84488  -0.83698  -0.83256  -0.82659  -0.82327
 Alpha  occ. eigenvalues --   -0.82011  -0.80217  -0.79893  -0.79040  -0.77890
 Alpha  occ. eigenvalues --   -0.77654  -0.77196  -0.77064  -0.76616  -0.76357
 Alpha  occ. eigenvalues --   -0.75377  -0.74682  -0.73300  -0.72397  -0.71506
 Alpha  occ. eigenvalues --   -0.70208  -0.69967  -0.69040  -0.68858  -0.67291
 Alpha  occ. eigenvalues --   -0.67234  -0.66539  -0.66535  -0.66242  -0.66029
 Alpha  occ. eigenvalues --   -0.65617  -0.64994  -0.64313  -0.64181  -0.61865
 Alpha  occ. eigenvalues --   -0.61792  -0.61085  -0.60586  -0.60281  -0.59650
 Alpha  occ. eigenvalues --   -0.59046  -0.58840  -0.58382  -0.57696  -0.57449
 Alpha  occ. eigenvalues --   -0.57056  -0.56793  -0.56678  -0.56164  -0.56039
 Alpha  occ. eigenvalues --   -0.55884  -0.55738  -0.55239  -0.54994  -0.54808
 Alpha  occ. eigenvalues --   -0.54733  -0.54451  -0.54173  -0.54051  -0.53765
 Alpha  occ. eigenvalues --   -0.53699  -0.53130  -0.53014  -0.52992  -0.52825
 Alpha  occ. eigenvalues --   -0.52590  -0.52425  -0.52303  -0.52028  -0.51438
 Alpha  occ. eigenvalues --   -0.51332  -0.51048  -0.50974  -0.50945  -0.50911
 Alpha  occ. eigenvalues --   -0.50458  -0.50121  -0.49881  -0.49840  -0.49697
 Alpha  occ. eigenvalues --   -0.49333  -0.49264  -0.48979  -0.48727  -0.48667
 Alpha  occ. eigenvalues --   -0.48434  -0.48119  -0.47973  -0.47815  -0.47726
 Alpha  occ. eigenvalues --   -0.47515  -0.47365  -0.47129  -0.47076  -0.46673
 Alpha  occ. eigenvalues --   -0.46641  -0.46107  -0.45837  -0.45745  -0.45520
 Alpha  occ. eigenvalues --   -0.45289  -0.45240  -0.45210  -0.45128  -0.44996
 Alpha  occ. eigenvalues --   -0.44701  -0.44633  -0.44434  -0.44277  -0.44179
 Alpha  occ. eigenvalues --   -0.43982  -0.43453  -0.43392  -0.43300  -0.42801
 Alpha  occ. eigenvalues --   -0.42778  -0.42681  -0.42395  -0.42195  -0.42036
 Alpha  occ. eigenvalues --   -0.41816  -0.41583  -0.41188  -0.41037  -0.40721
 Alpha  occ. eigenvalues --   -0.40246  -0.40076  -0.39845  -0.39337  -0.39028
 Alpha  occ. eigenvalues --   -0.38911  -0.38743  -0.38703  -0.38579  -0.38419
 Alpha  occ. eigenvalues --   -0.38080  -0.37894  -0.37401  -0.36912  -0.36126
 Alpha  occ. eigenvalues --   -0.36066  -0.35909  -0.34873  -0.33400  -0.33061
 Alpha  occ. eigenvalues --   -0.32553  -0.32270  -0.31661  -0.31146  -0.26085
 Alpha  occ. eigenvalues --   -0.22288
 Alpha virt. eigenvalues --   -0.06991   0.00947   0.03428   0.05004   0.05387
 Alpha virt. eigenvalues --    0.05547   0.06166   0.08007   0.08792   0.10107
 Alpha virt. eigenvalues --    0.11129   0.11553   0.11909   0.12082   0.12675

 Mulliken charges:
               1
     1  Mg   0.971275
     2  C   -0.054652
     3  C   -0.111060
     4  C   -0.062079
     5  C   -0.100731
     6  N   -0.342080
     7  C    0.009853
     8  C   -0.031062
     9  C   -0.105688
    10  C    0.042884
    11  C    0.033347
    12  C    0.038166
    13  C    0.017079
    14  C    0.210460
    15  O   -0.246621
    16  O   -0.397209
    17  N   -0.424344
    18  C    0.177193
    19  C   -0.166919
    20  C   -0.104389
    21  C    0.092935
    22  C    0.068275
    23  C    0.050482
    24  O   -0.202120
    25  C   -0.023560
    26  N   -0.440276
    27  C    0.085723
    28  C   -0.054489
    29  C   -0.038161
    30  C    0.080411
    31  C    0.013178
    32  C   -0.032765
    33  C   -0.031629
    34  N   -0.383574
    35  C    0.102310
    36  C   -0.181541
    37  C   -0.035266
    38  C    0.102281
    39  C    0.070314
    40  C    0.092056
    41  O   -0.216426
    42  C   -0.059425
    43  C    0.267373
    44  O   -0.214167
    45  O   -0.371228
    46  C    0.141698
    47  C    0.256520
    48  C   -0.134393
    49  C   -0.175370
    50  C    0.019749
    51  C    0.012182
    52  C   -0.003454
    53  C   -0.002061
    54  C   -0.217089
    55  C    0.010979
    56  C    0.052234
    57  C   -0.074303
    58  C    0.023346
    59  C   -0.195041
    60  C   -0.019014
    61  C    0.060407
    62  C   -0.077295
    63  C    0.015058
    64  C   -0.234474
    65  C    0.001025
    66  C    0.016986
    67  H   -0.006972
    68  H    0.040451
    69  H    0.001460
    70  H    0.045756
    71  H    0.033168
    72  H    0.053552
    73  H    0.037594
    74  H    0.025584
    75  H    0.031191
    76  H    0.042877
    77  H    0.051697
    78  H    0.063389
    79  H    0.062173
    80  H    0.037882
    81  H    0.041949
    82  H    0.069267
    83  H    0.041727
    84  H    0.054209
    85  H    0.043322
    86  H    0.032085
    87  H    0.038969
    88  H    0.030299
    89  H    0.050298
    90  H    0.035842
    91  H    0.024669
    92  H    0.021825
    93  H    0.047512
    94  H    0.034917
    95  H    0.053905
    96  H    0.059960
    97  H    0.041200
    98  H    0.065743
    99  H    0.038718
   100  H    0.061699
   101  H    0.048757
   102  H    0.034014
   103  H    0.035418
   104  H    0.013689
   105  H    0.046134
   106  H    0.038769
   107  H    0.050962
   108  H    0.024342
   109  H    0.039896
   110  H    0.030914
   111  H    0.028427
   112  H    0.026006
   113  H    0.029893
   114  H    0.033386
   115  H    0.023758
   116  H    0.017737
   117  H    0.030632
   118  H    0.023398
   119  H    0.006409
   120  H    0.016079
   121  H    0.013818
   122  H    0.014600
   123  H    0.015634
   124  H    0.013891
   125  H    0.026118
   126  H    0.022819
   127  H    0.026885
   128  H    0.020607
   129  H    0.028308
   130  H    0.014384
   131  H    0.013115
   132  H    0.016402
   133  H    0.020057
   134  H    0.017314
   135  H    0.020763
   136  H    0.024765
   137  H    0.037403
   138  H    0.034148
   139  H    0.018278
   140  H    0.022330
 Sum of Mulliken charges =  -0.00000

 Dipole moment (field-independent basis, Debye):
    X=              5.7034    Y=              3.8729    Z=             -3.6707  Tot=              7.8104
 Quadrupole moment (field-independent basis, Debye-Ang):
   XX=           -374.7429   YY=           -425.7564   ZZ=           -405.9451
   XY=            -24.4881   XZ=              5.4958   YZ=             15.4413

 Normal termination of Gaussian 16 at Sat Apr 30 20:54:56 2022.
