 Gaussian 16, Revision A.03,
 Gaussian 16:  ES64L-G16RevA.03 25-Dec-2016

 --------------------
 #p ZINDO=(nstates=5)
 --------------------

 ----------------------------
 step_851_chromophore_9 ZINDO
 ----------------------------
 Symbolic Z-matrix:
 Charge =  0 Multiplicity = 1

                         Standard orientation:
 ---------------------------------------------------------------------
 Center     Atomic      Atomic             Coordinates (Angstroms)
 Number     Number       Type             X           Y           Z
 ---------------------------------------------------------------------
      1         12           0       -5.300193    0.671678   -0.361519
      2          6           0       -4.023990   -2.501844    0.010129
      3          6           0       -1.969507    1.814852   -0.437040
      4          6           0       -6.433017    3.910095   -0.150111
      5          6           0       -8.472494   -0.505632    0.440911
      6          7           0       -3.235381   -0.214073   -0.153047
      7          6           0       -2.990520   -1.575417   -0.017661
      8          6           0       -1.506145   -1.888533   -0.157088
      9          6           0       -0.839243   -0.447330   -0.077568
     10          6           0       -2.067983    0.454630   -0.219610
     11          6           0        0.020936   -0.029045    1.139716
     12          6           0       -1.087209   -2.808587   -1.374472
     13          6           0        0.386986   -3.300305   -1.429030
     14          6           0        1.355446   -2.964205   -0.291833
     15          8           0        1.134043   -3.213596    0.866351
     16          8           0        2.611848   -2.538058   -0.799335
     17          7           0       -4.352484    2.575378   -0.543149
     18          6           0       -2.992203    2.782197   -0.523328
     19          6           0       -2.681991    4.204398   -0.509878
     20          6           0       -3.923442    4.866930   -0.359240
     21          6           0       -4.986818    3.773901   -0.375294
     22          6           0       -1.295084    4.783796   -0.636961
     23          6           0       -4.292939    6.366938   -0.336844
     24          8           0       -5.418793    6.745496   -0.323457
     25          6           0       -3.255174    7.440994   -0.391339
     26          7           0       -7.050864    1.513523    0.191323
     27          6           0       -7.344674    2.896183    0.049406
     28          6           0       -8.822307    3.214894    0.404601
     29          6           0       -9.445763    1.811032    0.416690
     30          6           0       -8.265926    0.875387    0.323824
     31          6           0       -8.983175    4.049006    1.660257
     32          6           0      -10.493367    1.567492   -0.684833
     33          6           0       -9.940180    0.906010   -1.982561
     34          7           0       -6.121386   -1.200409    0.082555
     35          6           0       -7.462389   -1.460902    0.367924
     36          6           0       -7.543710   -2.860121    0.615666
     37          6           0       -6.231226   -3.333271    0.494251
     38          6           0       -5.421592   -2.229382    0.185842
     39          6           0       -8.775105   -3.618462    0.931473
     40          6           0       -5.429880   -4.503953    0.446957
     41          8           0       -5.674777   -5.679213    0.669699
     42          6           0       -4.022283   -4.074590    0.172906
     43          6           0       -3.109838   -4.489513    1.312735
     44          8           0       -3.414046   -4.297454    2.457003
     45          8           0       -1.954316   -5.056739    0.815407
     46          6           0       -0.994864   -5.494628    1.826244
     47          6           0        3.676671   -2.246563    0.181436
     48          6           0        4.981758   -1.961235   -0.451883
     49          6           0        5.824559   -2.720112   -1.211479
     50          6           0        5.677895   -4.242069   -1.231791
     51          6           0        7.131549   -2.154944   -1.823537
     52          6           0        6.994939   -1.061700   -2.852392
     53          6           0        8.029589   -1.237201   -3.991795
     54          6           0        8.965303    0.002515   -4.012999
     55          6           0        9.745108    0.003006   -5.360984
     56          6           0       10.111880   -0.234075   -2.856811
     57          6           0        9.960286    0.744693   -1.713149
     58          6           0       11.135637    1.717213   -1.495879
     59          6           0       10.991997    2.510765   -0.111739
     60          6           0       11.347337    3.967094   -0.362480
     61          6           0       11.756083    1.932307    1.077566
     62          6           0       10.837902    1.962543    2.273244
     63          6           0       11.377768    1.049557    3.442882
     64          6           0       11.128974    1.519579    4.839856
     65          6           0       12.123484    0.962163    5.925590
     66          6           0        9.706482    1.276042    5.279591
     67          1           0       -0.951680    2.173395   -0.604040
     68          1           0       -6.699306    4.886961    0.258561
     69          1           0       -9.423437   -0.943164    0.755875
     70          1           0       -1.271280   -2.427939    0.760618
     71          1           0       -0.271406   -0.217143   -0.978047
     72          1           0       -0.018197   -0.712793    1.987769
     73          1           0       -0.309340    0.984370    1.369126
     74          1           0        1.096346   -0.037940    0.961100
     75          1           0       -1.133576   -2.143191   -2.236771
     76          1           0       -1.772200   -3.654234   -1.424411
     77          1           0        0.812913   -3.031432   -2.396732
     78          1           0        0.244531   -4.380253   -1.451680
     79          1           0       -0.783837    4.815263    0.324692
     80          1           0       -1.335717    5.753664   -1.132967
     81          1           0       -0.663309    4.191091   -1.299250
     82          1           0       -2.898747    7.512158   -1.418814
     83          1           0       -2.424451    7.187741    0.266704
     84          1           0       -3.571488    8.420074   -0.031836
     85          1           0       -9.188423    3.809910   -0.431510
     86          1           0       -9.922197    1.561400    1.365320
     87          1           0       -9.677499    3.716353    2.432011
     88          1           0       -9.447759    4.965885    1.298279
     89          1           0       -8.049257    4.371036    2.120540
     90          1           0      -11.096223    2.437238   -0.943683
     91          1           0      -11.194223    0.879236   -0.212447
     92          1           0      -10.048881   -0.177271   -1.922576
     93          1           0       -8.867649    1.010565   -2.143540
     94          1           0      -10.569579    1.094581   -2.853167
     95          1           0       -9.084195   -3.174745    1.877796
     96          1           0       -8.546172   -4.683750    0.963099
     97          1           0       -9.569672   -3.544973    0.189581
     98          1           0       -3.738797   -4.536343   -0.772993
     99          1           0       -1.339471   -6.462306    2.190837
    100          1           0       -0.844098   -4.899390    2.726708
    101          1           0       -0.001316   -5.733191    1.446520
    102          1           0        3.646514   -3.129036    0.820902
    103          1           0        3.339474   -1.418922    0.804772
    104          1           0        5.164021   -0.890012   -0.530979
    105          1           0        5.557546   -4.570286   -2.264563
    106          1           0        4.818471   -4.651028   -0.701202
    107          1           0        6.616146   -4.589961   -0.799839
    108          1           0        7.869771   -2.938163   -1.995165
    109          1           0        7.576971   -1.607965   -0.992387
    110          1           0        6.991112   -0.076454   -2.387305
    111          1           0        6.009154   -1.142688   -3.311325
    112          1           0        7.424452   -1.299881   -4.896426
    113          1           0        8.675260   -2.115256   -3.963196
    114          1           0        8.449479    0.958057   -3.921278
    115          1           0        9.341166    0.764989   -6.027354
    116          1           0        9.561976   -0.940388   -5.875139
    117          1           0       10.823541    0.144331   -5.285568
    118          1           0       11.160005   -0.240789   -3.153921
    119          1           0        9.941679   -1.234429   -2.459374
    120          1           0        9.711402    0.267565   -0.765067
    121          1           0        9.126153    1.433829   -1.844484
    122          1           0       11.184569    2.479620   -2.274113
    123          1           0       12.055141    1.136007   -1.424902
    124          1           0        9.919916    2.569458    0.077365
    125          1           0       12.378240    4.086757   -0.696212
    126          1           0       11.233389    4.593596    0.522498
    127          1           0       10.722273    4.379231   -1.154497
    128          1           0       12.513810    2.679177    1.312940
    129          1           0       12.141723    0.918355    0.975008
    130          1           0        9.859734    1.582323    1.976883
    131          1           0       10.645356    2.959845    2.669210
    132          1           0       12.451223    0.974982    3.272022
    133          1           0       10.893768    0.082520    3.304627
    134          1           0       11.156100    2.608893    4.834624
    135          1           0       12.915706    0.390818    5.442844
    136          1           0       11.684151    0.257005    6.631087
    137          1           0       12.532224    1.791907    6.501945
    138          1           0        9.690731    0.868982    6.290449
    139          1           0        9.213573    0.654465    4.532547
    140          1           0        9.227953    2.251551    5.194482
 ---------------------------------------------------------------------

 SCF Done:  E(RZINDO/S) =  -474.508468541     A.U. after   19 cycles

 Excitation energies and oscillator strengths:

 Excited State   1:      Singlet-A      1.1756 eV 1054.69 nm  f=0.6179  <S**2>=0.000
     175 ->178        -0.16644
     176 ->177         0.66947
 This state for optimization and/or second-order correction.
 Total Energy, E(CIS/TDA) =  -474.465267860
 Copying the excited state density for this state as the 1-particle RhoCI density.

 Excited State   2:      Singlet-A      1.9422 eV  638.36 nm  f=0.0436  <S**2>=0.000
     175 ->177         0.54644
     176 ->178         0.42134

 Excited State   3:      Singlet-A      2.9468 eV  420.74 nm  f=0.3506  <S**2>=0.000
     170 ->179         0.10036
     171 ->177        -0.27168
     171 ->179        -0.20240
     171 ->181        -0.13263
     171 ->182         0.21691
     171 ->186        -0.10139
     171 ->187        -0.14549
     174 ->177        -0.16544
     175 ->177        -0.23161
     176 ->178         0.33729

 Excited State   4:      Singlet-A      2.9800 eV  416.06 nm  f=0.2082  <S**2>=0.000
     168 ->177         0.19212
     168 ->178        -0.10371
     168 ->179        -0.28509
     168 ->181         0.11272
     168 ->182        -0.16827
     168 ->186        -0.18179
     168 ->189         0.10020
     170 ->177        -0.13669
     171 ->177         0.12000
     171 ->179         0.14929
     171 ->182        -0.13070
     175 ->177        -0.17420
     176 ->178         0.24687
     176 ->179         0.15845

 Excited State   5:      Singlet-A      3.0039 eV  412.74 nm  f=0.3642  <S**2>=0.000
     168 ->177         0.21560
     168 ->178        -0.10597
     168 ->179        -0.26426
     168 ->181         0.11855
     168 ->182        -0.17613
     168 ->186        -0.16305
     168 ->189         0.10390
     171 ->177        -0.12358
     171 ->179        -0.13001
     171 ->182         0.12752
     175 ->177         0.22828
     176 ->178        -0.31055

 The electronic state is 1-A.
 Alpha  occ. eigenvalues --   -1.87303  -1.79896  -1.79620  -1.72077  -1.71466
 Alpha  occ. eigenvalues --   -1.69734  -1.66038  -1.62344  -1.61829  -1.59481
 Alpha  occ. eigenvalues --   -1.56409  -1.52821  -1.48180  -1.47037  -1.45960
 Alpha  occ. eigenvalues --   -1.44955  -1.42559  -1.40650  -1.39757  -1.39669
 Alpha  occ. eigenvalues --   -1.36577  -1.34277  -1.33137  -1.31704  -1.29858
 Alpha  occ. eigenvalues --   -1.27720  -1.24782  -1.22556  -1.21322  -1.18135
 Alpha  occ. eigenvalues --   -1.17271  -1.15756  -1.14424  -1.13830  -1.13164
 Alpha  occ. eigenvalues --   -1.11900  -1.11782  -1.10481  -1.04819  -1.03959
 Alpha  occ. eigenvalues --   -1.02430  -1.01083  -0.98401  -0.97847  -0.97597
 Alpha  occ. eigenvalues --   -0.96231  -0.94949  -0.93821  -0.92668  -0.92250
 Alpha  occ. eigenvalues --   -0.90365  -0.90155  -0.90006  -0.87982  -0.87319
 Alpha  occ. eigenvalues --   -0.84819  -0.83946  -0.83122  -0.81232  -0.80000
 Alpha  occ. eigenvalues --   -0.79726  -0.79331  -0.76993  -0.76430  -0.76166
 Alpha  occ. eigenvalues --   -0.75692  -0.75531  -0.74935  -0.74056  -0.73857
 Alpha  occ. eigenvalues --   -0.73336  -0.72719  -0.72432  -0.71813  -0.71056
 Alpha  occ. eigenvalues --   -0.71026  -0.70411  -0.68861  -0.68152  -0.67750
 Alpha  occ. eigenvalues --   -0.67324  -0.66981  -0.66261  -0.66026  -0.65299
 Alpha  occ. eigenvalues --   -0.64932  -0.64499  -0.64157  -0.63711  -0.63613
 Alpha  occ. eigenvalues --   -0.63308  -0.63032  -0.62531  -0.62396  -0.61739
 Alpha  occ. eigenvalues --   -0.61505  -0.61251  -0.60839  -0.60739  -0.60312
 Alpha  occ. eigenvalues --   -0.59875  -0.59700  -0.59197  -0.58231  -0.58175
 Alpha  occ. eigenvalues --   -0.57317  -0.57054  -0.56933  -0.56569  -0.56483
 Alpha  occ. eigenvalues --   -0.56102  -0.55657  -0.55408  -0.54693  -0.54609
 Alpha  occ. eigenvalues --   -0.54564  -0.53838  -0.53334  -0.53169  -0.52963
 Alpha  occ. eigenvalues --   -0.52526  -0.52384  -0.52289  -0.51732  -0.51539
 Alpha  occ. eigenvalues --   -0.51402  -0.50701  -0.50355  -0.50314  -0.49830
 Alpha  occ. eigenvalues --   -0.49721  -0.49337  -0.49296  -0.49126  -0.48901
 Alpha  occ. eigenvalues --   -0.48795  -0.48620  -0.48348  -0.47904  -0.47439
 Alpha  occ. eigenvalues --   -0.47251  -0.46842  -0.46709  -0.46511  -0.46430
 Alpha  occ. eigenvalues --   -0.46067  -0.45856  -0.45458  -0.45279  -0.44990
 Alpha  occ. eigenvalues --   -0.44745  -0.44708  -0.44561  -0.44354  -0.43724
 Alpha  occ. eigenvalues --   -0.43380  -0.43144  -0.42949  -0.42631  -0.42406
 Alpha  occ. eigenvalues --   -0.42059  -0.41318  -0.41016  -0.39620  -0.38378
 Alpha  occ. eigenvalues --   -0.37331  -0.36514  -0.35219  -0.34450  -0.33690
 Alpha  occ. eigenvalues --   -0.33335  -0.32903  -0.32222  -0.31533  -0.26807
 Alpha  occ. eigenvalues --   -0.21113
 Alpha virt. eigenvalues --   -0.08457  -0.01333   0.00264   0.01270   0.01919
 Alpha virt. eigenvalues --    0.02146   0.03215   0.03597   0.03977   0.04862
 Alpha virt. eigenvalues --    0.06495   0.07097   0.07547   0.07853   0.08450

 Mulliken charges:
               1
     1  Mg   0.421145
     2  C   -0.057227
     3  C   -0.084503
     4  C   -0.084150
     5  C   -0.065871
     6  N   -0.291768
     7  C    0.109645
     8  C    0.003846
     9  C    0.004323
    10  C    0.158991
    11  C   -0.048925
    12  C   -0.019134
    13  C    0.003469
    14  C    0.467522
    15  O   -0.498710
    16  O   -0.291136
    17  N   -0.313891
    18  C    0.125070
    19  C    0.017808
    20  C   -0.055947
    21  C    0.141611
    22  C   -0.038744
    23  C    0.334540
    24  O   -0.504367
    25  C   -0.025620
    26  N   -0.282127
    27  C    0.139481
    28  C    0.012576
    29  C    0.008967
    30  C    0.117981
    31  C   -0.049408
    32  C   -0.025267
    33  C   -0.059640
    34  N   -0.294583
    35  C    0.057128
    36  C    0.032105
    37  C   -0.071679
    38  C    0.137672
    39  C   -0.040348
    40  C    0.338910
    41  O   -0.543418
    42  C    0.051927
    43  C    0.492811
    44  O   -0.502356
    45  O   -0.269308
    46  C    0.071738
    47  C    0.114097
    48  C   -0.095726
    49  C    0.009739
    50  C   -0.044381
    51  C   -0.021495
    52  C   -0.023992
    53  C   -0.029531
    54  C   -0.016956
    55  C   -0.065762
    56  C   -0.040206
    57  C   -0.036676
    58  C   -0.041961
    59  C   -0.019550
    60  C   -0.053465
    61  C   -0.025576
    62  C   -0.040525
    63  C   -0.034155
    64  C   -0.010891
    65  C   -0.060458
    66  C   -0.060423
    67  H    0.022971
    68  H    0.051397
    69  H    0.033631
    70  H    0.042622
    71  H    0.025095
    72  H    0.034739
    73  H    0.025308
    74  H    0.018316
    75  H    0.020226
    76  H    0.039507
    77  H    0.030689
    78  H    0.046470
    79  H    0.038411
    80  H    0.025415
    81  H    0.022947
    82  H    0.041878
    83  H    0.019876
    84  H    0.039052
    85  H    0.030900
    86  H    0.027240
    87  H    0.024486
    88  H    0.010897
    89  H    0.029470
    90  H    0.021752
    91  H    0.012700
    92  H    0.011190
    93  H    0.034578
    94  H    0.017018
    95  H    0.035582
    96  H    0.032901
    97  H    0.026258
    98  H    0.046392
    99  H    0.029835
   100  H    0.053278
   101  H    0.033425
   102  H    0.045056
   103  H    0.038328
   104  H    0.013610
   105  H    0.026667
   106  H    0.027974
   107  H    0.029563
   108  H    0.029870
   109  H    0.015793
   110  H    0.028407
   111  H    0.012087
   112  H    0.012277
   113  H    0.031166
   114  H    0.037121
   115  H    0.010781
   116  H    0.014701
   117  H    0.022103
   118  H    0.029558
   119  H    0.013438
   120  H    0.016615
   121  H    0.011353
   122  H    0.024962
   123  H    0.017613
   124  H    0.017794
   125  H    0.013726
   126  H    0.012446
   127  H    0.010970
   128  H    0.022550
   129  H    0.030455
   130  H    0.012196
   131  H    0.020707
   132  H    0.012166
   133  H    0.018455
   134  H    0.016026
   135  H    0.014957
   136  H    0.020084
   137  H    0.019788
   138  H    0.027232
   139  H    0.018353
   140  H    0.013350
 Sum of Mulliken charges =  -0.00000

 Dipole moment (field-independent basis, Debye):
    X=              7.6598    Y=              5.8992    Z=             -5.1965  Tot=             10.9762
 N-N= 4.352961399749D+03 E-N= 0.000000000000D+00  KE=-9.380697279822D+03
 Leave Link  601 at Sat Apr 30 21:14:01 2022, MaxMem=  6710886400 cpu:               0.9 elap:               0.1
 (Enter /sw/apps/gaussian-16.0/g16/l9999.exe)
 1\1\GINC-BP1-COMPUTE154\SP\RZINDO CIS\STO-3G\C55H74Mg1N4O6\OF15641\30-
 Apr-2022\0\\#p ZINDO=(nstates=5)\\step_851_chromophore_9 ZINDO\\0,1\Mg
 ,0,35.73,0.817,29.219\C,0,33.64,1.935,31.713\C,0,38.327,0.899,31.597\C
 ,0,38.013,0.271,26.708\C,0,33.264,1.468,26.855\N,0,35.987,1.424,31.377
 \C,0,34.941,1.846,32.189\C,0,35.373,1.938,33.647\C,0,36.955,1.813,33.5
 48\C,0,37.125,1.362,32.095\C,0,37.875,3.016,33.869\C,0,34.638,0.976,34
 .666\C,0,34.92,1.184,36.181\C,0,35.812,2.337,36.649\O,0,35.622,3.489,3

 Normal termination of Gaussian 16 at Sat Apr 30 21:14:01 2022.
