 Gaussian 16, Revision A.03,
 Gaussian 16:  ES64L-G16RevA.03 25-Dec-2016

 ------------------------------
 #p blyp/Def2SVP td=(nstates=5)
 ------------------------------

 --------------------------------------------------
 step_1301_chromophore_4 TDDFT with blyp functional
 --------------------------------------------------
 Symbolic Z-matrix:
 Charge =  0 Multiplicity = 1

                         Standard orientation:
 ---------------------------------------------------------------------
 Center     Atomic      Atomic             Coordinates (Angstroms)
 Number     Number       Type             X           Y           Z
 ---------------------------------------------------------------------
      1         12           0        6.007412    0.531068    0.214245
      2          6           0        3.797500   -2.148458    0.058695
      3          6           0        3.407451    2.677124   -0.366811
      4          6           0        8.203894    3.116281   -0.073487
      5          6           0        8.651838   -1.717804    0.525930
      6          7           0        3.898515    0.255242   -0.174194
      7          6           0        3.159447   -0.887849   -0.140093
      8          6           0        1.664956   -0.648322   -0.530055
      9          6           0        1.668437    0.906462   -0.797701
     10          6           0        3.067647    1.332252   -0.308267
     11          6           0        1.362471    1.266165   -2.240198
     12          6           0        0.713926   -1.144573    0.557376
     13          6           0       -0.736198   -0.718148    0.564145
     14          6           0       -1.756779   -1.625075    1.137696
     15          8           0       -2.103270   -1.685080    2.288279
     16          8           0       -2.463852   -2.283210    0.138301
     17          7           0        5.822977    2.649341   -0.191290
     18          6           0        4.709292    3.315354   -0.386826
     19          6           0        4.957263    4.671373   -0.486119
     20          6           0        6.324679    4.845077   -0.292508
     21          6           0        6.853024    3.523901   -0.182515
     22          6           0        3.862808    5.621764   -0.696008
     23          6           0        7.081589    6.094492   -0.121848
     24          8           0        8.260523    6.071493   -0.028480
     25          6           0        6.427665    7.412865   -0.164056
     26          7           0        8.161490    0.581864   -0.095566
     27          6           0        8.815631    1.788408   -0.044696
     28          6           0       10.361198    1.647699    0.098680
     29          6           0       10.542791    0.105554    0.294569
     30          6           0        9.007956   -0.403075    0.247371
     31          6           0       11.176429    2.217198   -1.087642
     32          6           0       11.261747   -0.410226    1.535440
     33          6           0       12.323504   -1.467053    1.207991
     34          7           0        6.249853   -1.491431    0.318902
     35          6           0        7.372593   -2.261455    0.516377
     36          6           0        6.937826   -3.601975    0.618513
     37          6           0        5.512048   -3.685120    0.463800
     38          6           0        5.169509   -2.309590    0.254313
     39          6           0        7.863090   -4.782195    0.866105
     40          6           0        4.390186   -4.543451    0.372238
     41          8           0        4.268333   -5.765610    0.426656
     42          6           0        3.163588   -3.547262    0.127295
     43          6           0        2.397188   -3.898986   -1.161121
     44          8           0        2.689455   -3.720107   -2.324498
     45          8           0        1.303651   -4.697201   -0.770163
     46          6           0        0.414715   -5.143092   -1.890961
     47          6           0       -3.624066   -3.177208    0.553690
     48          6           0       -4.879514   -2.346418    0.385009
     49          6           0       -6.130375   -2.834853    0.435311
     50          6           0       -6.655251   -4.245951    0.484296
     51          6           0       -7.254428   -1.798916    0.522137
     52          6           0       -8.038077   -1.451245   -0.755547
     53          6           0       -7.981480    0.122721   -0.978698
     54          6           0       -9.380657    0.797483   -0.767590
     55          6           0      -10.252990    0.702337   -2.087927
     56          6           0       -9.218742    2.226307   -0.223758
     57          6           0       -9.802872    2.431384    1.178908
     58          6           0      -11.131707    3.250232    1.158880
     59          6           0      -12.340882    2.412514    1.668616
     60          6           0      -12.718827    2.903251    3.122200
     61          6           0      -13.476508    2.432353    0.712017
     62          6           0      -14.625890    1.520553    1.114150
     63          6           0      -15.512038    1.160771   -0.061845
     64          6           0      -15.026610   -0.138928   -0.814449
     65          6           0      -14.397075    0.281607   -2.196864
     66          6           0      -16.174494   -1.187055   -0.932416
     67          1           0        2.556981    3.320613   -0.602616
     68          1           0        8.983113    3.860849    0.105705
     69          1           0        9.451112   -2.456878    0.616230
     70          1           0        1.399853   -1.293613   -1.368639
     71          1           0        0.890668    1.470808   -0.282987
     72          1           0        2.158022    1.845247   -2.709584
     73          1           0        0.470598    1.891760   -2.285452
     74          1           0        1.249920    0.399068   -2.890870
     75          1           0        1.123220   -0.925577    1.542901
     76          1           0        0.765292   -2.216365    0.366140
     77          1           0       -1.128396   -0.251208   -0.339920
     78          1           0       -0.692638    0.105618    1.277583
     79          1           0        3.814600    6.136023    0.264241
     80          1           0        2.883942    5.197110   -0.916298
     81          1           0        4.122464    6.381058   -1.433263
     82          1           0        5.678455    7.546142    0.616364
     83          1           0        6.030512    7.464506   -1.177754
     84          1           0        7.204679    8.173296   -0.080835
     85          1           0       10.549715    2.161474    1.040511
     86          1           0       11.132658   -0.368922   -0.490820
     87          1           0       11.729353    3.106032   -0.784628
     88          1           0       10.536799    2.562758   -1.899177
     89          1           0       11.840662    1.425388   -1.434625
     90          1           0       10.478968   -0.762215    2.207105
     91          1           0       11.746715    0.504982    1.875821
     92          1           0       11.903064   -2.117215    0.440545
     93          1           0       12.449861   -2.149933    2.047681
     94          1           0       13.298995   -1.073761    0.920369
     95          1           0        8.522364   -4.625750    1.719951
     96          1           0        8.522162   -5.055417    0.042609
     97          1           0        7.276745   -5.678104    1.069695
     98          1           0        2.428678   -3.680832    0.920872
     99          1           0       -0.311044   -4.339945   -2.017041
    100          1           0       -0.138519   -6.000415   -1.507255
    101          1           0        0.842442   -5.479546   -2.835170
    102          1           0       -3.670500   -3.607576    1.554433
    103          1           0       -3.706240   -4.021516   -0.130371
    104          1           0       -4.901043   -1.276757    0.179476
    105          1           0       -7.370583   -4.441327   -0.313667
    106          1           0       -7.034915   -4.558779    1.457575
    107          1           0       -5.730439   -4.770751    0.245801
    108          1           0       -6.895994   -0.896674    1.018755
    109          1           0       -8.014792   -2.213198    1.183450
    110          1           0       -9.014177   -1.902541   -0.575871
    111          1           0       -7.830647   -1.977273   -1.687869
    112          1           0       -7.763680    0.296469   -2.032493
    113          1           0       -7.116581    0.610280   -0.529194
    114          1           0       -9.939129    0.225794   -0.025930
    115          1           0      -10.926672   -0.149188   -1.989956
    116          1           0       -9.620959    0.590645   -2.968337
    117          1           0      -10.735669    1.657193   -2.290097
    118          1           0       -9.635675    2.890784   -0.980468
    119          1           0       -8.183905    2.560454   -0.147053
    120          1           0       -9.055125    3.087073    1.624331
    121          1           0       -9.987278    1.560859    1.808618
    122          1           0      -11.307117    3.744843    0.203871
    123          1           0      -10.992466    4.176121    1.716427
    124          1           0      -12.083477    1.361962    1.803910
    125          1           0      -12.957035    2.198224    3.918311
    126          1           0      -13.643342    3.473177    3.204462
    127          1           0      -11.930405    3.540343    3.524071
    128          1           0      -13.148855    1.894396   -0.177712
    129          1           0      -13.884439    3.397268    0.412660
    130          1           0      -15.264156    2.008757    1.850081
    131          1           0      -14.226159    0.658090    1.646620
    132          1           0      -15.615422    2.028666   -0.713094
    133          1           0      -16.488763    0.900642    0.345187
    134          1           0      -14.245652   -0.653488   -0.254221
    135          1           0      -15.150621    0.879629   -2.709334
    136          1           0      -14.304974   -0.630256   -2.786303
    137          1           0      -13.426005    0.725785   -1.980046
    138          1           0      -16.344381   -1.724888    0.000427
    139          1           0      -16.272825   -1.823235   -1.811411
    140          1           0      -17.059975   -0.552477   -0.979531
 ---------------------------------------------------------------------

 SCF Done:  E(RB-LYP) =  -3007.35655086     A.U. after   22 cycles

 Excitation energies and oscillator strengths:

 Excited State   1:      Singlet-A      1.8013 eV  688.30 nm  f=0.0944  <S**2>=0.000
     244 -> 247        0.56133
     245 -> 247       -0.16782
     245 -> 248       -0.10641
     246 -> 247        0.38754
 This state for optimization and/or second-order correction.
 Total Energy, E(TD-HF/TD-DFT) =  -3007.29035416
 Copying the excited state density for this state as the 1-particle RhoCI density.

 Excited State   2:      Singlet-A      1.8447 eV  672.11 nm  f=0.2349  <S**2>=0.000
     244 -> 247       -0.37503
     245 -> 247        0.11767
     245 -> 248       -0.17161
     246 -> 247        0.57122
     246 <- 247       -0.12750

 Excited State   3:      Singlet-A      1.9766 eV  627.26 nm  f=0.0169  <S**2>=0.000
     243 -> 247        0.62421
     244 -> 247        0.11181
     245 -> 247        0.29279

 Excited State   4:      Singlet-A      2.0228 eV  612.94 nm  f=0.0648  <S**2>=0.000
     243 -> 247       -0.32886
     244 -> 247        0.17157
     245 -> 247        0.55291
     246 -> 248        0.21523

 Excited State   5:      Singlet-A      2.1118 eV  587.10 nm  f=0.0000  <S**2>=0.000
     242 -> 247        0.70710

 The electronic state is 1-A.
 Alpha  occ. eigenvalues --  -46.27675 -18.81671 -18.81488 -18.77107 -18.76561
 Alpha  occ. eigenvalues --  -18.75858 -18.74996 -14.03849 -14.03563 -14.00940
 Alpha  occ. eigenvalues --  -14.00845 -10.03857 -10.03853  -9.99856  -9.98866
 Alpha  occ. eigenvalues --   -9.98521  -9.97318  -9.97241  -9.97102  -9.96699
 Alpha  occ. eigenvalues --   -9.96567  -9.95483  -9.95231  -9.94830  -9.94799
 Alpha  occ. eigenvalues --   -9.94536  -9.94230  -9.94120  -9.94043  -9.93811
 Alpha  occ. eigenvalues --   -9.93775  -9.93584  -9.93547  -9.93345  -9.93021
 Alpha  occ. eigenvalues --   -9.92940  -9.92823  -9.92811  -9.92779  -9.92444
 Alpha  occ. eigenvalues --   -9.92434  -9.92281  -9.92228  -9.92159  -9.92135
 Alpha  occ. eigenvalues --   -9.92079  -9.91960  -9.91930  -9.91843  -9.91778
 Alpha  occ. eigenvalues --   -9.91630  -9.91538  -9.91508  -9.91435  -9.91395
 Alpha  occ. eigenvalues --   -9.91072  -9.91055  -9.91035  -9.90871  -9.90866
 Alpha  occ. eigenvalues --   -9.90733  -9.90687  -9.90618  -9.90451  -9.90435
 Alpha  occ. eigenvalues --   -9.90384  -2.92260  -1.72681  -1.72138  -1.71976
 Alpha  occ. eigenvalues --   -0.97116  -0.96442  -0.93799  -0.90901  -0.89282
 Alpha  occ. eigenvalues --   -0.89127  -0.87942  -0.86624  -0.86059  -0.85338
 Alpha  occ. eigenvalues --   -0.75446  -0.73815  -0.73403  -0.73140  -0.72628
 Alpha  occ. eigenvalues --   -0.72280  -0.71816  -0.71413  -0.71013  -0.70405
 Alpha  occ. eigenvalues --   -0.69756  -0.69442  -0.68086  -0.67660  -0.67209
 Alpha  occ. eigenvalues --   -0.66353  -0.66191  -0.65422  -0.64851  -0.64453
 Alpha  occ. eigenvalues --   -0.63860  -0.63156  -0.62891  -0.61552  -0.60417
 Alpha  occ. eigenvalues --   -0.60277  -0.60177  -0.60110  -0.59459  -0.59119
 Alpha  occ. eigenvalues --   -0.58141  -0.57694  -0.57009  -0.56217  -0.54748
 Alpha  occ. eigenvalues --   -0.54517  -0.53851  -0.53469  -0.52324  -0.51517
 Alpha  occ. eigenvalues --   -0.51327  -0.51161  -0.50873  -0.50290  -0.50137
 Alpha  occ. eigenvalues --   -0.49240  -0.49192  -0.48928  -0.47902  -0.46997
 Alpha  occ. eigenvalues --   -0.46498  -0.45867  -0.45577  -0.45479  -0.44828
 Alpha  occ. eigenvalues --   -0.43995  -0.43424  -0.43272  -0.42470  -0.42149
 Alpha  occ. eigenvalues --   -0.41825  -0.41661  -0.41508  -0.41308  -0.41034
 Alpha  occ. eigenvalues --   -0.40967  -0.40500  -0.40469  -0.40334  -0.40227
 Alpha  occ. eigenvalues --   -0.39800  -0.39769  -0.39574  -0.39231  -0.39138
 Alpha  occ. eigenvalues --   -0.38666  -0.38599  -0.38532  -0.38426  -0.38255
 Alpha  occ. eigenvalues --   -0.38127  -0.38032  -0.37792  -0.37594  -0.37295
 Alpha  occ. eigenvalues --   -0.37056  -0.36983  -0.36728  -0.36554  -0.36491
 Alpha  occ. eigenvalues --   -0.36208  -0.35958  -0.35812  -0.35791  -0.35685
 Alpha  occ. eigenvalues --   -0.35639  -0.35368  -0.35212  -0.35065  -0.34613
 Alpha  occ. eigenvalues --   -0.34446  -0.34355  -0.34309  -0.34185  -0.34164
 Alpha  occ. eigenvalues --   -0.33785  -0.33591  -0.33536  -0.33397  -0.33205
 Alpha  occ. eigenvalues --   -0.33129  -0.33025  -0.32742  -0.32723  -0.32580
 Alpha  occ. eigenvalues --   -0.32524  -0.32249  -0.32146  -0.32057  -0.31614
 Alpha  occ. eigenvalues --   -0.31484  -0.31343  -0.31220  -0.31139  -0.30854
 Alpha  occ. eigenvalues --   -0.30762  -0.30580  -0.30153  -0.30016  -0.29887
 Alpha  occ. eigenvalues --   -0.29361  -0.29198  -0.29154  -0.29031  -0.28850
 Alpha  occ. eigenvalues --   -0.28594  -0.28318  -0.28292  -0.28133  -0.27905
 Alpha  occ. eigenvalues --   -0.27640  -0.27438  -0.27144  -0.26667  -0.26572
 Alpha  occ. eigenvalues --   -0.26333  -0.26292  -0.25784  -0.25233  -0.24765
 Alpha  occ. eigenvalues --   -0.24637  -0.24547  -0.24252  -0.24114  -0.23499
 Alpha  occ. eigenvalues --   -0.23246  -0.22462  -0.21887  -0.21719  -0.20962
 Alpha  occ. eigenvalues --   -0.20628  -0.19614  -0.19033  -0.18493  -0.17423
 Alpha  occ. eigenvalues --   -0.16158
 Alpha virt. eigenvalues --   -0.11853  -0.06921  -0.06377  -0.04280  -0.03002
 Alpha virt. eigenvalues --   -0.02900  -0.02753  -0.01837  -0.01508   0.00253
 Alpha virt. eigenvalues --    0.01155   0.01663   0.01855   0.02125   0.02645

 Mulliken charges:
               1
     1  Mg   0.694627
     2  C   -0.002106
     3  C   -0.074134
     4  C   -0.031520
     5  C   -0.083573
     6  N   -0.225047
     7  C   -0.052167
     8  C    0.022022
     9  C   -0.002810
    10  C    0.058364
    11  C    0.119080
    12  C    0.044898
    13  C    0.184839
    14  C    0.063453
    15  O   -0.167503
    16  O   -0.307900
    17  N   -0.200043
    18  C    0.083332
    19  C   -0.140201
    20  C    0.078853
    21  C    0.079980
    22  C    0.204204
    23  C   -0.148984
    24  O   -0.129155
    25  C    0.154001
    26  N   -0.193241
    27  C   -0.043248
    28  C    0.031977
    29  C   -0.024908
    30  C    0.029559
    31  C    0.142987
    32  C    0.114534
    33  C    0.057899
    34  N   -0.276339
    35  C    0.142484
    36  C   -0.160318
    37  C    0.093370
    38  C    0.103713
    39  C    0.151025
    40  C   -0.031110
    41  O   -0.125824
    42  C    0.010214
    43  C    0.113095
    44  O   -0.162696
    45  O   -0.301869
    46  C    0.212216
    47  C    0.327730
    48  C   -0.088302
    49  C   -0.180389
    50  C    0.162964
    51  C    0.116745
    52  C    0.077265
    53  C    0.098535
    54  C   -0.081568
    55  C    0.095253
    56  C    0.122986
    57  C    0.086493
    58  C    0.119214
    59  C   -0.029041
    60  C    0.083323
    61  C    0.102808
    62  C    0.059445
    63  C    0.128389
    64  C   -0.095008
    65  C    0.090604
    66  C    0.093475
    67  H   -0.073534
    68  H   -0.042011
    69  H   -0.063355
    70  H   -0.002899
    71  H   -0.027480
    72  H   -0.009956
    73  H   -0.014588
    74  H   -0.003885
    75  H   -0.015631
    76  H    0.003031
    77  H   -0.009577
    78  H   -0.011636
    79  H   -0.004606
    80  H   -0.008135
    81  H   -0.007965
    82  H    0.005860
    83  H    0.004619
    84  H   -0.014326
    85  H   -0.017227
    86  H   -0.024563
    87  H   -0.002919
    88  H    0.001186
    89  H   -0.008430
    90  H   -0.018549
    91  H   -0.027405
    92  H   -0.004618
    93  H   -0.014479
    94  H    0.004531
    95  H   -0.009638
    96  H   -0.002090
    97  H    0.000132
    98  H    0.009063
    99  H    0.010302
   100  H    0.007947
   101  H    0.030735
   102  H    0.021959
   103  H    0.010491
   104  H   -0.035911
   105  H    0.001233
   106  H    0.012932
   107  H   -0.038507
   108  H   -0.023614
   109  H   -0.044016
   110  H   -0.038440
   111  H   -0.034713
   112  H   -0.046918
   113  H   -0.025396
   114  H   -0.031694
   115  H    0.005999
   116  H   -0.025201
   117  H   -0.009041
   118  H   -0.046621
   119  H   -0.044935
   120  H   -0.043571
   121  H   -0.014274
   122  H   -0.053109
   123  H   -0.049270
   124  H   -0.037552
   125  H   -0.027023
   126  H   -0.028046
   127  H   -0.020253
   128  H   -0.045167
   129  H   -0.030546
   130  H   -0.045768
   131  H   -0.044871
   132  H   -0.031193
   133  H   -0.046295
   134  H   -0.035731
   135  H   -0.012652
   136  H   -0.026134
   137  H    0.009443
   138  H   -0.014507
   139  H   -0.014634
   140  H   -0.031309
 Sum of Mulliken charges =  -0.00000

 Dipole moment (field-independent basis, Debye):
    X=             -1.5851    Y=              3.3069    Z=             -0.3971  Tot=              3.6886
 Quadrupole moment (field-independent basis, Debye-Ang):
   XX=           -372.5195   YY=           -420.0906   ZZ=           -414.9145
   XY=              8.1238   XZ=             13.8895   YZ=              0.3126

 Normal termination of Gaussian 16 at Wed Apr 27 22:40:48 2022.
