 Gaussian 16, Revision A.03,
 Gaussian 16:  ES64L-G16RevA.03 25-Dec-2016

 -----------------------------------
 #p cam-b3lyp/Def2SVP td=(nstates=5)
 -----------------------------------

 -------------------------------------------------------
 step_1301_chromophore_4 TDDFT with cam-b3lyp functional
 -------------------------------------------------------
 Symbolic Z-matrix:
 Charge =  0 Multiplicity = 1

                         Standard orientation:
 ---------------------------------------------------------------------
 Center     Atomic      Atomic             Coordinates (Angstroms)
 Number     Number       Type             X           Y           Z
 ---------------------------------------------------------------------
      1         12           0        6.007412    0.531068    0.214245
      2          6           0        3.797500   -2.148458    0.058695
      3          6           0        3.407451    2.677124   -0.366811
      4          6           0        8.203894    3.116281   -0.073487
      5          6           0        8.651838   -1.717804    0.525930
      6          7           0        3.898515    0.255242   -0.174194
      7          6           0        3.159447   -0.887849   -0.140093
      8          6           0        1.664956   -0.648322   -0.530055
      9          6           0        1.668437    0.906462   -0.797701
     10          6           0        3.067647    1.332252   -0.308267
     11          6           0        1.362471    1.266165   -2.240198
     12          6           0        0.713926   -1.144573    0.557376
     13          6           0       -0.736198   -0.718148    0.564145
     14          6           0       -1.756779   -1.625075    1.137696
     15          8           0       -2.103270   -1.685080    2.288279
     16          8           0       -2.463852   -2.283210    0.138301
     17          7           0        5.822977    2.649341   -0.191290
     18          6           0        4.709292    3.315354   -0.386826
     19          6           0        4.957263    4.671373   -0.486119
     20          6           0        6.324679    4.845077   -0.292508
     21          6           0        6.853024    3.523901   -0.182515
     22          6           0        3.862808    5.621764   -0.696008
     23          6           0        7.081589    6.094492   -0.121848
     24          8           0        8.260523    6.071493   -0.028480
     25          6           0        6.427665    7.412865   -0.164056
     26          7           0        8.161490    0.581864   -0.095566
     27          6           0        8.815631    1.788408   -0.044696
     28          6           0       10.361198    1.647699    0.098680
     29          6           0       10.542791    0.105554    0.294569
     30          6           0        9.007956   -0.403075    0.247371
     31          6           0       11.176429    2.217198   -1.087642
     32          6           0       11.261747   -0.410226    1.535440
     33          6           0       12.323504   -1.467053    1.207991
     34          7           0        6.249853   -1.491431    0.318902
     35          6           0        7.372593   -2.261455    0.516377
     36          6           0        6.937826   -3.601975    0.618513
     37          6           0        5.512048   -3.685120    0.463800
     38          6           0        5.169509   -2.309590    0.254313
     39          6           0        7.863090   -4.782195    0.866105
     40          6           0        4.390186   -4.543451    0.372238
     41          8           0        4.268333   -5.765610    0.426656
     42          6           0        3.163588   -3.547262    0.127295
     43          6           0        2.397188   -3.898986   -1.161121
     44          8           0        2.689455   -3.720107   -2.324498
     45          8           0        1.303651   -4.697201   -0.770163
     46          6           0        0.414715   -5.143092   -1.890961
     47          6           0       -3.624066   -3.177208    0.553690
     48          6           0       -4.879514   -2.346418    0.385009
     49          6           0       -6.130375   -2.834853    0.435311
     50          6           0       -6.655251   -4.245951    0.484296
     51          6           0       -7.254428   -1.798916    0.522137
     52          6           0       -8.038077   -1.451245   -0.755547
     53          6           0       -7.981480    0.122721   -0.978698
     54          6           0       -9.380657    0.797483   -0.767590
     55          6           0      -10.252990    0.702337   -2.087927
     56          6           0       -9.218742    2.226307   -0.223758
     57          6           0       -9.802872    2.431384    1.178908
     58          6           0      -11.131707    3.250232    1.158880
     59          6           0      -12.340882    2.412514    1.668616
     60          6           0      -12.718827    2.903251    3.122200
     61          6           0      -13.476508    2.432353    0.712017
     62          6           0      -14.625890    1.520553    1.114150
     63          6           0      -15.512038    1.160771   -0.061845
     64          6           0      -15.026610   -0.138928   -0.814449
     65          6           0      -14.397075    0.281607   -2.196864
     66          6           0      -16.174494   -1.187055   -0.932416
     67          1           0        2.556981    3.320613   -0.602616
     68          1           0        8.983113    3.860849    0.105705
     69          1           0        9.451112   -2.456878    0.616230
     70          1           0        1.399853   -1.293613   -1.368639
     71          1           0        0.890668    1.470808   -0.282987
     72          1           0        2.158022    1.845247   -2.709584
     73          1           0        0.470598    1.891760   -2.285452
     74          1           0        1.249920    0.399068   -2.890870
     75          1           0        1.123220   -0.925577    1.542901
     76          1           0        0.765292   -2.216365    0.366140
     77          1           0       -1.128396   -0.251208   -0.339920
     78          1           0       -0.692638    0.105618    1.277583
     79          1           0        3.814600    6.136023    0.264241
     80          1           0        2.883942    5.197110   -0.916298
     81          1           0        4.122464    6.381058   -1.433263
     82          1           0        5.678455    7.546142    0.616364
     83          1           0        6.030512    7.464506   -1.177754
     84          1           0        7.204679    8.173296   -0.080835
     85          1           0       10.549715    2.161474    1.040511
     86          1           0       11.132658   -0.368922   -0.490820
     87          1           0       11.729353    3.106032   -0.784628
     88          1           0       10.536799    2.562758   -1.899177
     89          1           0       11.840662    1.425388   -1.434625
     90          1           0       10.478968   -0.762215    2.207105
     91          1           0       11.746715    0.504982    1.875821
     92          1           0       11.903064   -2.117215    0.440545
     93          1           0       12.449861   -2.149933    2.047681
     94          1           0       13.298995   -1.073761    0.920369
     95          1           0        8.522364   -4.625750    1.719951
     96          1           0        8.522162   -5.055417    0.042609
     97          1           0        7.276745   -5.678104    1.069695
     98          1           0        2.428678   -3.680832    0.920872
     99          1           0       -0.311044   -4.339945   -2.017041
    100          1           0       -0.138519   -6.000415   -1.507255
    101          1           0        0.842442   -5.479546   -2.835170
    102          1           0       -3.670500   -3.607576    1.554433
    103          1           0       -3.706240   -4.021516   -0.130371
    104          1           0       -4.901043   -1.276757    0.179476
    105          1           0       -7.370583   -4.441327   -0.313667
    106          1           0       -7.034915   -4.558779    1.457575
    107          1           0       -5.730439   -4.770751    0.245801
    108          1           0       -6.895994   -0.896674    1.018755
    109          1           0       -8.014792   -2.213198    1.183450
    110          1           0       -9.014177   -1.902541   -0.575871
    111          1           0       -7.830647   -1.977273   -1.687869
    112          1           0       -7.763680    0.296469   -2.032493
    113          1           0       -7.116581    0.610280   -0.529194
    114          1           0       -9.939129    0.225794   -0.025930
    115          1           0      -10.926672   -0.149188   -1.989956
    116          1           0       -9.620959    0.590645   -2.968337
    117          1           0      -10.735669    1.657193   -2.290097
    118          1           0       -9.635675    2.890784   -0.980468
    119          1           0       -8.183905    2.560454   -0.147053
    120          1           0       -9.055125    3.087073    1.624331
    121          1           0       -9.987278    1.560859    1.808618
    122          1           0      -11.307117    3.744843    0.203871
    123          1           0      -10.992466    4.176121    1.716427
    124          1           0      -12.083477    1.361962    1.803910
    125          1           0      -12.957035    2.198224    3.918311
    126          1           0      -13.643342    3.473177    3.204462
    127          1           0      -11.930405    3.540343    3.524071
    128          1           0      -13.148855    1.894396   -0.177712
    129          1           0      -13.884439    3.397268    0.412660
    130          1           0      -15.264156    2.008757    1.850081
    131          1           0      -14.226159    0.658090    1.646620
    132          1           0      -15.615422    2.028666   -0.713094
    133          1           0      -16.488763    0.900642    0.345187
    134          1           0      -14.245652   -0.653488   -0.254221
    135          1           0      -15.150621    0.879629   -2.709334
    136          1           0      -14.304974   -0.630256   -2.786303
    137          1           0      -13.426005    0.725785   -1.980046
    138          1           0      -16.344381   -1.724888    0.000427
    139          1           0      -16.272825   -1.823235   -1.811411
    140          1           0      -17.059975   -0.552477   -0.979531
 ---------------------------------------------------------------------

 SCF Done:  E(RCAM-B3LYP) =  -3007.15555048     A.U. after   17 cycles

 Excitation energies and oscillator strengths:

 Excited State   1:      Singlet-A      1.7108 eV  724.71 nm  f=0.4023  <S**2>=0.000
     245 -> 248       -0.18376
     246 -> 247        0.68529
     245 <- 248       -0.11008
 This state for optimization and/or second-order correction.
 Total Energy, E(TD-HF/TD-DFT) =  -3007.09267947
 Copying the excited state density for this state as the 1-particle RhoCI density.

 Excited State   2:      Singlet-A      2.1983 eV  564.00 nm  f=0.1358  <S**2>=0.000
     245 -> 247        0.65006
     246 -> 248        0.26776

 Excited State   3:      Singlet-A      3.3717 eV  367.72 nm  f=0.0008  <S**2>=0.000
     242 -> 247       -0.13759
     243 -> 247        0.67091

 Excited State   4:      Singlet-A      3.4636 eV  357.96 nm  f=0.0269  <S**2>=0.000
     240 -> 247        0.41045
     240 -> 249       -0.24923
     242 -> 247        0.42262
     246 -> 248       -0.22715

 Excited State   5:      Singlet-A      3.5059 eV  353.64 nm  f=0.0400  <S**2>=0.000
     239 -> 247        0.12403
     240 -> 247        0.39422
     240 -> 249       -0.23028
     242 -> 247       -0.39167
     243 -> 247       -0.15964
     246 -> 248        0.26223

 The electronic state is 1-A.
 Alpha  occ. eigenvalues --  -46.89229 -19.24514 -19.24432 -19.20347 -19.19621
 Alpha  occ. eigenvalues --  -19.19017 -19.18196 -14.42664 -14.42525 -14.39311
 Alpha  occ. eigenvalues --  -14.39265 -10.39464 -10.39132 -10.35262 -10.33861
 Alpha  occ. eigenvalues --  -10.32646 -10.31899 -10.31636 -10.31327 -10.31117
 Alpha  occ. eigenvalues --  -10.30989 -10.29762 -10.29398 -10.29236 -10.28970
 Alpha  occ. eigenvalues --  -10.28711 -10.28675 -10.28343 -10.28114 -10.28009
 Alpha  occ. eigenvalues --  -10.27995 -10.27586 -10.27484 -10.27326 -10.27190
 Alpha  occ. eigenvalues --  -10.27072 -10.26982 -10.26935 -10.26847 -10.26161
 Alpha  occ. eigenvalues --  -10.26145 -10.26084 -10.25931 -10.25907 -10.25872
 Alpha  occ. eigenvalues --  -10.25848 -10.25813 -10.25784 -10.25669 -10.25653
 Alpha  occ. eigenvalues --  -10.25617 -10.25516 -10.25457 -10.25196 -10.25084
 Alpha  occ. eigenvalues --  -10.24711 -10.24688 -10.24678 -10.24547 -10.24499
 Alpha  occ. eigenvalues --  -10.24354 -10.24310 -10.24276 -10.24050 -10.24045
 Alpha  occ. eigenvalues --  -10.24015  -3.17715  -1.92613  -1.92164  -1.92020
 Alpha  occ. eigenvalues --   -1.15625  -1.15055  -1.12315  -1.09268  -1.07100
 Alpha  occ. eigenvalues --   -1.07049  -1.05644  -1.04318  -1.03724  -1.02881
 Alpha  occ. eigenvalues --   -0.92601  -0.90699  -0.90247  -0.89972  -0.89342
 Alpha  occ. eigenvalues --   -0.89022  -0.88494  -0.88070  -0.87589  -0.86956
 Alpha  occ. eigenvalues --   -0.86262  -0.85878  -0.84324  -0.83864  -0.83409
 Alpha  occ. eigenvalues --   -0.82428  -0.82371  -0.81399  -0.80675  -0.80252
 Alpha  occ. eigenvalues --   -0.79631  -0.78842  -0.78614  -0.77015  -0.75818
 Alpha  occ. eigenvalues --   -0.75605  -0.75522  -0.75411  -0.74747  -0.74365
 Alpha  occ. eigenvalues --   -0.73211  -0.72727  -0.71927  -0.71073  -0.69356
 Alpha  occ. eigenvalues --   -0.69241  -0.68444  -0.67980  -0.66632  -0.65671
 Alpha  occ. eigenvalues --   -0.65499  -0.65140  -0.65017  -0.64267  -0.64164
 Alpha  occ. eigenvalues --   -0.63147  -0.62894  -0.62862  -0.61645  -0.60632
 Alpha  occ. eigenvalues --   -0.60136  -0.59403  -0.58920  -0.58874  -0.58229
 Alpha  occ. eigenvalues --   -0.57325  -0.57039  -0.56568  -0.55720  -0.55239
 Alpha  occ. eigenvalues --   -0.54974  -0.54573  -0.54438  -0.54352  -0.54105
 Alpha  occ. eigenvalues --   -0.53954  -0.53430  -0.53209  -0.53007  -0.52840
 Alpha  occ. eigenvalues --   -0.52623  -0.52507  -0.52350  -0.52027  -0.51688
 Alpha  occ. eigenvalues --   -0.51433  -0.51040  -0.50981  -0.50906  -0.50723
 Alpha  occ. eigenvalues --   -0.50700  -0.50532  -0.50208  -0.49976  -0.49818
 Alpha  occ. eigenvalues --   -0.49563  -0.49184  -0.49097  -0.49031  -0.48752
 Alpha  occ. eigenvalues --   -0.48578  -0.48210  -0.47949  -0.47893  -0.47807
 Alpha  occ. eigenvalues --   -0.47627  -0.47309  -0.47228  -0.47116  -0.46422
 Alpha  occ. eigenvalues --   -0.46356  -0.46226  -0.46124  -0.46000  -0.45856
 Alpha  occ. eigenvalues --   -0.45711  -0.45533  -0.45238  -0.45179  -0.44828
 Alpha  occ. eigenvalues --   -0.44772  -0.44714  -0.44637  -0.44320  -0.44208
 Alpha  occ. eigenvalues --   -0.44063  -0.43927  -0.43764  -0.43685  -0.43360
 Alpha  occ. eigenvalues --   -0.43034  -0.42944  -0.42762  -0.42618  -0.42508
 Alpha  occ. eigenvalues --   -0.42224  -0.42019  -0.42003  -0.41596  -0.41215
 Alpha  occ. eigenvalues --   -0.40636  -0.40375  -0.40288  -0.40151  -0.39958
 Alpha  occ. eigenvalues --   -0.39744  -0.39246  -0.39212  -0.39037  -0.38948
 Alpha  occ. eigenvalues --   -0.38609  -0.38260  -0.37979  -0.37716  -0.37613
 Alpha  occ. eigenvalues --   -0.37139  -0.37078  -0.36693  -0.36273  -0.36187
 Alpha  occ. eigenvalues --   -0.35497  -0.35229  -0.34599  -0.34571  -0.34368
 Alpha  occ. eigenvalues --   -0.34017  -0.33611  -0.33509  -0.31354  -0.31056
 Alpha  occ. eigenvalues --   -0.30886  -0.30222  -0.29911  -0.29239  -0.24121
 Alpha  occ. eigenvalues --   -0.21518
 Alpha virt. eigenvalues --   -0.09063  -0.01742   0.00067   0.02006   0.02836
 Alpha virt. eigenvalues --    0.04619   0.04671   0.05424   0.05945   0.07144
 Alpha virt. eigenvalues --    0.07930   0.08189   0.08611   0.08705   0.09024

 Mulliken charges:
               1
     1  Mg   0.825457
     2  C   -0.035226
     3  C   -0.088870
     4  C   -0.044694
     5  C   -0.090253
     6  N   -0.298467
     7  C   -0.003962
     8  C   -0.025700
     9  C   -0.062760
    10  C    0.080355
    11  C    0.060151
    12  C    0.005538
    13  C    0.105375
    14  C    0.147730
    15  O   -0.206993
    16  O   -0.373233
    17  N   -0.289047
    18  C    0.096916
    19  C   -0.148617
    20  C    0.008904
    21  C    0.098769
    22  C    0.142487
    23  C   -0.065459
    24  O   -0.171984
    25  C    0.069614
    26  N   -0.262429
    27  C   -0.019158
    28  C   -0.028834
    29  C   -0.065910
    30  C    0.047753
    31  C    0.083702
    32  C    0.049336
    33  C   -0.003518
    34  N   -0.368992
    35  C    0.145679
    36  C   -0.152773
    37  C    0.007604
    38  C    0.141308
    39  C    0.098158
    40  C    0.067061
    41  O   -0.165586
    42  C   -0.055942
    43  C    0.198111
    44  O   -0.198103
    45  O   -0.366190
    46  C    0.175054
    47  C    0.294882
    48  C   -0.107367
    49  C   -0.201439
    50  C    0.104893
    51  C    0.053873
    52  C    0.024205
    53  C    0.043170
    54  C   -0.131761
    55  C    0.041618
    56  C    0.070313
    57  C    0.025054
    58  C    0.065186
    59  C   -0.089193
    60  C    0.025302
    61  C    0.056129
    62  C    0.008145
    63  C    0.064000
    64  C   -0.152832
    65  C    0.040466
    66  C    0.033019
    67  H   -0.040489
    68  H   -0.001134
    69  H   -0.027840
    70  H    0.029312
    71  H    0.006748
    72  H    0.017858
    73  H    0.009374
    74  H    0.022114
    75  H    0.016002
    76  H    0.025348
    77  H    0.024704
    78  H    0.022845
    79  H    0.021768
    80  H    0.020350
    81  H    0.018486
    82  H    0.033855
    83  H    0.030777
    84  H    0.022443
    85  H    0.017364
    86  H    0.010557
    87  H    0.021405
    88  H    0.027486
    89  H    0.015166
    90  H    0.013459
    91  H    0.002390
    92  H    0.014183
    93  H    0.011568
    94  H    0.028528
    95  H    0.015492
    96  H    0.024535
    97  H    0.029001
    98  H    0.052212
    99  H    0.031053
   100  H    0.031217
   101  H    0.054710
   102  H    0.053086
   103  H    0.036305
   104  H   -0.003044
   105  H    0.025397
   106  H    0.037864
   107  H   -0.016029
   108  H    0.006277
   109  H   -0.013659
   110  H   -0.010558
   111  H   -0.005086
   112  H   -0.017282
   113  H    0.001298
   114  H   -0.003702
   115  H    0.026138
   116  H   -0.000835
   117  H    0.011879
   118  H   -0.017385
   119  H   -0.014770
   120  H   -0.011903
   121  H    0.012201
   122  H   -0.022484
   123  H   -0.017921
   124  H   -0.007064
   125  H   -0.001852
   126  H   -0.003892
   127  H    0.004518
   128  H   -0.022884
   129  H   -0.002395
   130  H   -0.016690
   131  H   -0.015877
   132  H   -0.001949
   133  H   -0.013599
   134  H   -0.005466
   135  H    0.009911
   136  H   -0.001474
   137  H    0.026808
   138  H    0.010392
   139  H    0.011097
   140  H   -0.008242
 Sum of Mulliken charges =  -0.00000

 Dipole moment (field-independent basis, Debye):
    X=             -1.6801    Y=              3.6825    Z=             -0.4025  Tot=              4.0677
 Quadrupole moment (field-independent basis, Debye-Ang):
   XX=           -368.6837   YY=           -415.8058   ZZ=           -415.3721
   XY=              9.6882   XZ=             14.8409   YZ=              0.2366

 Normal termination of Gaussian 16 at Wed Apr 27 21:14:55 2022.
