 Gaussian 16, Revision A.03,
 Gaussian 16:  ES64L-G16RevA.03 25-Dec-2016

 ---------------------------------
 #p PBE1PBE/Def2SVP td=(nstates=5)
 ---------------------------------

 -----------------------------------------------------
 step_1301_chromophore_4 TDDFT with PBE1PBE functional
 -----------------------------------------------------
 Symbolic Z-matrix:
 Charge =  0 Multiplicity = 1

                         Standard orientation:
 ---------------------------------------------------------------------
 Center     Atomic      Atomic             Coordinates (Angstroms)
 Number     Number       Type             X           Y           Z
 ---------------------------------------------------------------------
      1         12           0        6.007412    0.531068    0.214245
      2          6           0        3.797500   -2.148458    0.058695
      3          6           0        3.407451    2.677124   -0.366811
      4          6           0        8.203894    3.116281   -0.073487
      5          6           0        8.651838   -1.717804    0.525930
      6          7           0        3.898515    0.255242   -0.174194
      7          6           0        3.159447   -0.887849   -0.140093
      8          6           0        1.664956   -0.648322   -0.530055
      9          6           0        1.668437    0.906462   -0.797701
     10          6           0        3.067647    1.332252   -0.308267
     11          6           0        1.362471    1.266165   -2.240198
     12          6           0        0.713926   -1.144573    0.557376
     13          6           0       -0.736198   -0.718148    0.564145
     14          6           0       -1.756779   -1.625075    1.137696
     15          8           0       -2.103270   -1.685080    2.288279
     16          8           0       -2.463852   -2.283210    0.138301
     17          7           0        5.822977    2.649341   -0.191290
     18          6           0        4.709292    3.315354   -0.386826
     19          6           0        4.957263    4.671373   -0.486119
     20          6           0        6.324679    4.845077   -0.292508
     21          6           0        6.853024    3.523901   -0.182515
     22          6           0        3.862808    5.621764   -0.696008
     23          6           0        7.081589    6.094492   -0.121848
     24          8           0        8.260523    6.071493   -0.028480
     25          6           0        6.427665    7.412865   -0.164056
     26          7           0        8.161490    0.581864   -0.095566
     27          6           0        8.815631    1.788408   -0.044696
     28          6           0       10.361198    1.647699    0.098680
     29          6           0       10.542791    0.105554    0.294569
     30          6           0        9.007956   -0.403075    0.247371
     31          6           0       11.176429    2.217198   -1.087642
     32          6           0       11.261747   -0.410226    1.535440
     33          6           0       12.323504   -1.467053    1.207991
     34          7           0        6.249853   -1.491431    0.318902
     35          6           0        7.372593   -2.261455    0.516377
     36          6           0        6.937826   -3.601975    0.618513
     37          6           0        5.512048   -3.685120    0.463800
     38          6           0        5.169509   -2.309590    0.254313
     39          6           0        7.863090   -4.782195    0.866105
     40          6           0        4.390186   -4.543451    0.372238
     41          8           0        4.268333   -5.765610    0.426656
     42          6           0        3.163588   -3.547262    0.127295
     43          6           0        2.397188   -3.898986   -1.161121
     44          8           0        2.689455   -3.720107   -2.324498
     45          8           0        1.303651   -4.697201   -0.770163
     46          6           0        0.414715   -5.143092   -1.890961
     47          6           0       -3.624066   -3.177208    0.553690
     48          6           0       -4.879514   -2.346418    0.385009
     49          6           0       -6.130375   -2.834853    0.435311
     50          6           0       -6.655251   -4.245951    0.484296
     51          6           0       -7.254428   -1.798916    0.522137
     52          6           0       -8.038077   -1.451245   -0.755547
     53          6           0       -7.981480    0.122721   -0.978698
     54          6           0       -9.380657    0.797483   -0.767590
     55          6           0      -10.252990    0.702337   -2.087927
     56          6           0       -9.218742    2.226307   -0.223758
     57          6           0       -9.802872    2.431384    1.178908
     58          6           0      -11.131707    3.250232    1.158880
     59          6           0      -12.340882    2.412514    1.668616
     60          6           0      -12.718827    2.903251    3.122200
     61          6           0      -13.476508    2.432353    0.712017
     62          6           0      -14.625890    1.520553    1.114150
     63          6           0      -15.512038    1.160771   -0.061845
     64          6           0      -15.026610   -0.138928   -0.814449
     65          6           0      -14.397075    0.281607   -2.196864
     66          6           0      -16.174494   -1.187055   -0.932416
     67          1           0        2.556981    3.320613   -0.602616
     68          1           0        8.983113    3.860849    0.105705
     69          1           0        9.451112   -2.456878    0.616230
     70          1           0        1.399853   -1.293613   -1.368639
     71          1           0        0.890668    1.470808   -0.282987
     72          1           0        2.158022    1.845247   -2.709584
     73          1           0        0.470598    1.891760   -2.285452
     74          1           0        1.249920    0.399068   -2.890870
     75          1           0        1.123220   -0.925577    1.542901
     76          1           0        0.765292   -2.216365    0.366140
     77          1           0       -1.128396   -0.251208   -0.339920
     78          1           0       -0.692638    0.105618    1.277583
     79          1           0        3.814600    6.136023    0.264241
     80          1           0        2.883942    5.197110   -0.916298
     81          1           0        4.122464    6.381058   -1.433263
     82          1           0        5.678455    7.546142    0.616364
     83          1           0        6.030512    7.464506   -1.177754
     84          1           0        7.204679    8.173296   -0.080835
     85          1           0       10.549715    2.161474    1.040511
     86          1           0       11.132658   -0.368922   -0.490820
     87          1           0       11.729353    3.106032   -0.784628
     88          1           0       10.536799    2.562758   -1.899177
     89          1           0       11.840662    1.425388   -1.434625
     90          1           0       10.478968   -0.762215    2.207105
     91          1           0       11.746715    0.504982    1.875821
     92          1           0       11.903064   -2.117215    0.440545
     93          1           0       12.449861   -2.149933    2.047681
     94          1           0       13.298995   -1.073761    0.920369
     95          1           0        8.522364   -4.625750    1.719951
     96          1           0        8.522162   -5.055417    0.042609
     97          1           0        7.276745   -5.678104    1.069695
     98          1           0        2.428678   -3.680832    0.920872
     99          1           0       -0.311044   -4.339945   -2.017041
    100          1           0       -0.138519   -6.000415   -1.507255
    101          1           0        0.842442   -5.479546   -2.835170
    102          1           0       -3.670500   -3.607576    1.554433
    103          1           0       -3.706240   -4.021516   -0.130371
    104          1           0       -4.901043   -1.276757    0.179476
    105          1           0       -7.370583   -4.441327   -0.313667
    106          1           0       -7.034915   -4.558779    1.457575
    107          1           0       -5.730439   -4.770751    0.245801
    108          1           0       -6.895994   -0.896674    1.018755
    109          1           0       -8.014792   -2.213198    1.183450
    110          1           0       -9.014177   -1.902541   -0.575871
    111          1           0       -7.830647   -1.977273   -1.687869
    112          1           0       -7.763680    0.296469   -2.032493
    113          1           0       -7.116581    0.610280   -0.529194
    114          1           0       -9.939129    0.225794   -0.025930
    115          1           0      -10.926672   -0.149188   -1.989956
    116          1           0       -9.620959    0.590645   -2.968337
    117          1           0      -10.735669    1.657193   -2.290097
    118          1           0       -9.635675    2.890784   -0.980468
    119          1           0       -8.183905    2.560454   -0.147053
    120          1           0       -9.055125    3.087073    1.624331
    121          1           0       -9.987278    1.560859    1.808618
    122          1           0      -11.307117    3.744843    0.203871
    123          1           0      -10.992466    4.176121    1.716427
    124          1           0      -12.083477    1.361962    1.803910
    125          1           0      -12.957035    2.198224    3.918311
    126          1           0      -13.643342    3.473177    3.204462
    127          1           0      -11.930405    3.540343    3.524071
    128          1           0      -13.148855    1.894396   -0.177712
    129          1           0      -13.884439    3.397268    0.412660
    130          1           0      -15.264156    2.008757    1.850081
    131          1           0      -14.226159    0.658090    1.646620
    132          1           0      -15.615422    2.028666   -0.713094
    133          1           0      -16.488763    0.900642    0.345187
    134          1           0      -14.245652   -0.653488   -0.254221
    135          1           0      -15.150621    0.879629   -2.709334
    136          1           0      -14.304974   -0.630256   -2.786303
    137          1           0      -13.426005    0.725785   -1.980046
    138          1           0      -16.344381   -1.724888    0.000427
    139          1           0      -16.272825   -1.823235   -1.811411
    140          1           0      -17.059975   -0.552477   -0.979531
 ---------------------------------------------------------------------

 SCF Done:  E(RPBE1PBE) =  -3005.34465343     A.U. after   15 cycles

 Excitation energies and oscillator strengths:

 Excited State   1:      Singlet-A      1.8737 eV  661.70 nm  f=0.3881  <S**2>=0.000
     245 -> 248       -0.17887
     246 -> 247        0.69252
     246 <- 247       -0.10898
 This state for optimization and/or second-order correction.
 Total Energy, E(TD-HF/TD-DFT) =  -3005.27579547
 Copying the excited state density for this state as the 1-particle RhoCI density.

 Excited State   2:      Singlet-A      2.2097 eV  561.09 nm  f=0.1255  <S**2>=0.000
     245 -> 247        0.65905
     246 -> 248        0.24624

 Excited State   3:      Singlet-A      2.9778 eV  416.37 nm  f=0.0001  <S**2>=0.000
     240 -> 247        0.15894
     241 -> 247        0.29213
     242 -> 247        0.15458
     243 -> 247        0.58101

 Excited State   4:      Singlet-A      2.9914 eV  414.47 nm  f=0.0003  <S**2>=0.000
     240 -> 247        0.28527
     241 -> 247        0.33103
     241 -> 249       -0.12576
     242 -> 247        0.37657
     243 -> 247       -0.35853

 Excited State   5:      Singlet-A      3.0821 eV  402.27 nm  f=0.0010  <S**2>=0.000
     241 -> 247       -0.44120
     242 -> 247        0.52723
     243 -> 247        0.11239

 The electronic state is 1-A.
 Alpha  occ. eigenvalues --  -46.92630 -19.25236 -19.25115 -19.20519 -19.19858
 Alpha  occ. eigenvalues --  -19.19268 -19.18385 -14.42240 -14.41962 -14.39006
 Alpha  occ. eigenvalues --  -14.38868 -10.36487 -10.36141 -10.32383 -10.30946
 Alpha  occ. eigenvalues --  -10.30069 -10.29625 -10.29433 -10.28886 -10.28727
 Alpha  occ. eigenvalues --  -10.28562 -10.27453 -10.27106 -10.26892 -10.26625
 Alpha  occ. eigenvalues --  -10.26467 -10.26360 -10.25975 -10.25913 -10.25884
 Alpha  occ. eigenvalues --  -10.25822 -10.25431 -10.24969 -10.24894 -10.24839
 Alpha  occ. eigenvalues --  -10.24715 -10.24702 -10.24489 -10.24294 -10.23808
 Alpha  occ. eigenvalues --  -10.23763 -10.23604 -10.23533 -10.23453 -10.23414
 Alpha  occ. eigenvalues --  -10.23371 -10.23357 -10.23314 -10.23290 -10.23280
 Alpha  occ. eigenvalues --  -10.23062 -10.23019 -10.22999 -10.22771 -10.22702
 Alpha  occ. eigenvalues --  -10.22277 -10.22246 -10.22115 -10.22091 -10.21902
 Alpha  occ. eigenvalues --  -10.21882 -10.21862 -10.21760 -10.21555 -10.21531
 Alpha  occ. eigenvalues --  -10.21452  -3.14697  -1.87536  -1.87065  -1.86925
 Alpha  occ. eigenvalues --   -1.10416  -1.09777  -1.07066  -1.04019  -1.01980
 Alpha  occ. eigenvalues --   -1.01873  -1.00367  -0.98964  -0.98335  -0.97547
 Alpha  occ. eigenvalues --   -0.86962  -0.84892  -0.84348  -0.84100  -0.83599
 Alpha  occ. eigenvalues --   -0.83319  -0.82604  -0.82410  -0.81910  -0.81062
 Alpha  occ. eigenvalues --   -0.80586  -0.80158  -0.78506  -0.78131  -0.77694
 Alpha  occ. eigenvalues --   -0.76591  -0.76582  -0.75641  -0.74902  -0.74570
 Alpha  occ. eigenvalues --   -0.73800  -0.73137  -0.72911  -0.71329  -0.70124
 Alpha  occ. eigenvalues --   -0.69876  -0.69689  -0.69586  -0.68855  -0.68536
 Alpha  occ. eigenvalues --   -0.67585  -0.67076  -0.66311  -0.65446  -0.63751
 Alpha  occ. eigenvalues --   -0.63715  -0.62690  -0.62447  -0.60932  -0.60090
 Alpha  occ. eigenvalues --   -0.59900  -0.59647  -0.59249  -0.58820  -0.58282
 Alpha  occ. eigenvalues --   -0.57403  -0.57295  -0.57060  -0.56210  -0.55194
 Alpha  occ. eigenvalues --   -0.54631  -0.54009  -0.53556  -0.53273  -0.52840
 Alpha  occ. eigenvalues --   -0.51754  -0.51428  -0.51147  -0.50271  -0.49792
 Alpha  occ. eigenvalues --   -0.49540  -0.49107  -0.48837  -0.48761  -0.48515
 Alpha  occ. eigenvalues --   -0.48382  -0.47993  -0.47766  -0.47484  -0.47396
 Alpha  occ. eigenvalues --   -0.47182  -0.47062  -0.46850  -0.46604  -0.46169
 Alpha  occ. eigenvalues --   -0.46010  -0.45643  -0.45512  -0.45435  -0.45285
 Alpha  occ. eigenvalues --   -0.45235  -0.45173  -0.44780  -0.44552  -0.44415
 Alpha  occ. eigenvalues --   -0.44138  -0.43751  -0.43696  -0.43607  -0.43319
 Alpha  occ. eigenvalues --   -0.43180  -0.42828  -0.42605  -0.42550  -0.42436
 Alpha  occ. eigenvalues --   -0.42241  -0.41962  -0.41880  -0.41782  -0.41137
 Alpha  occ. eigenvalues --   -0.40972  -0.40921  -0.40836  -0.40714  -0.40560
 Alpha  occ. eigenvalues --   -0.40408  -0.40224  -0.39935  -0.39862  -0.39602
 Alpha  occ. eigenvalues --   -0.39506  -0.39442  -0.39383  -0.39002  -0.38932
 Alpha  occ. eigenvalues --   -0.38759  -0.38649  -0.38593  -0.38431  -0.38153
 Alpha  occ. eigenvalues --   -0.37837  -0.37810  -0.37588  -0.37485  -0.37175
 Alpha  occ. eigenvalues --   -0.37051  -0.36883  -0.36775  -0.36482  -0.35906
 Alpha  occ. eigenvalues --   -0.35502  -0.35275  -0.35043  -0.35014  -0.34746
 Alpha  occ. eigenvalues --   -0.34627  -0.34162  -0.34027  -0.33924  -0.33787
 Alpha  occ. eigenvalues --   -0.33452  -0.33058  -0.32742  -0.32710  -0.32395
 Alpha  occ. eigenvalues --   -0.32217  -0.31913  -0.31767  -0.31183  -0.31092
 Alpha  occ. eigenvalues --   -0.30422  -0.30120  -0.29685  -0.29496  -0.29466
 Alpha  occ. eigenvalues --   -0.28947  -0.28808  -0.28562  -0.27030  -0.26031
 Alpha  occ. eigenvalues --   -0.25942  -0.25573  -0.25427  -0.24509  -0.21091
 Alpha  occ. eigenvalues --   -0.19132
 Alpha virt. eigenvalues --   -0.11488  -0.05264  -0.04127  -0.01691  -0.00635
 Alpha virt. eigenvalues --    0.00041   0.00255   0.01049   0.01545   0.03299
 Alpha virt. eigenvalues --    0.04234   0.04491   0.04684   0.05121   0.05549

 Mulliken charges:
               1
     1  Mg   0.970013
     2  C   -0.037125
     3  C   -0.082785
     4  C   -0.034462
     5  C   -0.088759
     6  N   -0.404457
     7  C    0.073161
     8  C   -0.098491
     9  C   -0.139851
    10  C    0.117251
    11  C    0.007949
    12  C   -0.044825
    13  C    0.024237
    14  C    0.220820
    15  O   -0.241337
    16  O   -0.401862
    17  N   -0.411674
    18  C    0.136934
    19  C   -0.186491
    20  C   -0.047405
    21  C    0.130561
    22  C    0.082179
    23  C   -0.005628
    24  O   -0.210545
    25  C   -0.005378
    26  N   -0.364833
    27  C    0.018151
    28  C   -0.110113
    29  C   -0.128856
    30  C    0.086559
    31  C    0.026431
    32  C   -0.015046
    33  C   -0.077926
    34  N   -0.500790
    35  C    0.171730
    36  C   -0.174988
    37  C   -0.034900
    38  C    0.181017
    39  C    0.048892
    40  C    0.155152
    41  O   -0.212843
    42  C   -0.154345
    43  C    0.280641
    44  O   -0.234557
    45  O   -0.395441
    46  C    0.119383
    47  C    0.250231
    48  C   -0.118072
    49  C   -0.238101
    50  C    0.036766
    51  C   -0.015941
    52  C   -0.027503
    53  C   -0.014933
    54  C   -0.214492
    55  C   -0.016212
    56  C    0.021754
    57  C   -0.047178
    58  C    0.020872
    59  C   -0.179820
    60  C   -0.028229
    61  C   -0.011190
    62  C   -0.050352
    63  C    0.003592
    64  C   -0.240012
    65  C   -0.027935
    66  C   -0.029379
    67  H   -0.006970
    68  H    0.029982
    69  H    0.005891
    70  H    0.066799
    71  H    0.043052
    72  H    0.045900
    73  H    0.035904
    74  H    0.049412
    75  H    0.047458
    76  H    0.066363
    77  H    0.055434
    78  H    0.056849
    79  H    0.051764
    80  H    0.047346
    81  H    0.046938
    82  H    0.060243
    83  H    0.058328
    84  H    0.050462
    85  H    0.054154
    86  H    0.048304
    87  H    0.048373
    88  H    0.055023
    89  H    0.042439
    90  H    0.046892
    91  H    0.037634
    92  H    0.040967
    93  H    0.040404
    94  H    0.056173
    95  H    0.042390
    96  H    0.051729
    97  H    0.056647
    98  H    0.087450
    99  H    0.053399
   100  H    0.053306
   101  H    0.075678
   102  H    0.079530
   103  H    0.061708
   104  H    0.027241
   105  H    0.053215
   106  H    0.064728
   107  H    0.014400
   108  H    0.037846
   109  H    0.020718
   110  H    0.019937
   111  H    0.025660
   112  H    0.016724
   113  H    0.030726
   114  H    0.035324
   115  H    0.052346
   116  H    0.025788
   117  H    0.037381
   118  H    0.014289
   119  H    0.016944
   120  H    0.022672
   121  H    0.042874
   122  H    0.008157
   123  H    0.013527
   124  H    0.029251
   125  H    0.025080
   126  H    0.022972
   127  H    0.031712
   128  H    0.023045
   129  H    0.029246
   130  H    0.016988
   131  H    0.016265
   132  H    0.029739
   133  H    0.020038
   134  H    0.032069
   135  H    0.037755
   136  H    0.027459
   137  H    0.058394
   138  H    0.038854
   139  H    0.037925
   140  H    0.020142
 Sum of Mulliken charges =  -0.00000

 Dipole moment (field-independent basis, Debye):
    X=             -1.6973    Y=              3.7120    Z=             -0.4247  Tot=              4.1037
 Quadrupole moment (field-independent basis, Debye-Ang):
   XX=           -362.3503   YY=           -412.7335   ZZ=           -413.1172
   XY=              9.4519   XZ=             15.1442   YZ=              0.0769

 Normal termination of Gaussian 16 at Wed Apr 27 21:43:03 2022.
