 Gaussian 16, Revision A.03,
 Gaussian 16:  ES64L-G16RevA.03 25-Dec-2016

 --------------------------------
 #p wB97XD/Def2SVP td=(nstates=5)
 --------------------------------

 ----------------------------------------------------
 step_1301_chromophore_4 TDDFT with wB97XD functional
 ----------------------------------------------------
 Symbolic Z-matrix:
 Charge =  0 Multiplicity = 1

                         Standard orientation:
 ---------------------------------------------------------------------
 Center     Atomic      Atomic             Coordinates (Angstroms)
 Number     Number       Type             X           Y           Z
 ---------------------------------------------------------------------
      1         12           0        6.007412    0.531068    0.214245
      2          6           0        3.797500   -2.148458    0.058695
      3          6           0        3.407451    2.677124   -0.366811
      4          6           0        8.203894    3.116281   -0.073487
      5          6           0        8.651838   -1.717804    0.525930
      6          7           0        3.898515    0.255242   -0.174194
      7          6           0        3.159447   -0.887849   -0.140093
      8          6           0        1.664956   -0.648322   -0.530055
      9          6           0        1.668437    0.906462   -0.797701
     10          6           0        3.067647    1.332252   -0.308267
     11          6           0        1.362471    1.266165   -2.240198
     12          6           0        0.713926   -1.144573    0.557376
     13          6           0       -0.736198   -0.718148    0.564145
     14          6           0       -1.756779   -1.625075    1.137696
     15          8           0       -2.103270   -1.685080    2.288279
     16          8           0       -2.463852   -2.283210    0.138301
     17          7           0        5.822977    2.649341   -0.191290
     18          6           0        4.709292    3.315354   -0.386826
     19          6           0        4.957263    4.671373   -0.486119
     20          6           0        6.324679    4.845077   -0.292508
     21          6           0        6.853024    3.523901   -0.182515
     22          6           0        3.862808    5.621764   -0.696008
     23          6           0        7.081589    6.094492   -0.121848
     24          8           0        8.260523    6.071493   -0.028480
     25          6           0        6.427665    7.412865   -0.164056
     26          7           0        8.161490    0.581864   -0.095566
     27          6           0        8.815631    1.788408   -0.044696
     28          6           0       10.361198    1.647699    0.098680
     29          6           0       10.542791    0.105554    0.294569
     30          6           0        9.007956   -0.403075    0.247371
     31          6           0       11.176429    2.217198   -1.087642
     32          6           0       11.261747   -0.410226    1.535440
     33          6           0       12.323504   -1.467053    1.207991
     34          7           0        6.249853   -1.491431    0.318902
     35          6           0        7.372593   -2.261455    0.516377
     36          6           0        6.937826   -3.601975    0.618513
     37          6           0        5.512048   -3.685120    0.463800
     38          6           0        5.169509   -2.309590    0.254313
     39          6           0        7.863090   -4.782195    0.866105
     40          6           0        4.390186   -4.543451    0.372238
     41          8           0        4.268333   -5.765610    0.426656
     42          6           0        3.163588   -3.547262    0.127295
     43          6           0        2.397188   -3.898986   -1.161121
     44          8           0        2.689455   -3.720107   -2.324498
     45          8           0        1.303651   -4.697201   -0.770163
     46          6           0        0.414715   -5.143092   -1.890961
     47          6           0       -3.624066   -3.177208    0.553690
     48          6           0       -4.879514   -2.346418    0.385009
     49          6           0       -6.130375   -2.834853    0.435311
     50          6           0       -6.655251   -4.245951    0.484296
     51          6           0       -7.254428   -1.798916    0.522137
     52          6           0       -8.038077   -1.451245   -0.755547
     53          6           0       -7.981480    0.122721   -0.978698
     54          6           0       -9.380657    0.797483   -0.767590
     55          6           0      -10.252990    0.702337   -2.087927
     56          6           0       -9.218742    2.226307   -0.223758
     57          6           0       -9.802872    2.431384    1.178908
     58          6           0      -11.131707    3.250232    1.158880
     59          6           0      -12.340882    2.412514    1.668616
     60          6           0      -12.718827    2.903251    3.122200
     61          6           0      -13.476508    2.432353    0.712017
     62          6           0      -14.625890    1.520553    1.114150
     63          6           0      -15.512038    1.160771   -0.061845
     64          6           0      -15.026610   -0.138928   -0.814449
     65          6           0      -14.397075    0.281607   -2.196864
     66          6           0      -16.174494   -1.187055   -0.932416
     67          1           0        2.556981    3.320613   -0.602616
     68          1           0        8.983113    3.860849    0.105705
     69          1           0        9.451112   -2.456878    0.616230
     70          1           0        1.399853   -1.293613   -1.368639
     71          1           0        0.890668    1.470808   -0.282987
     72          1           0        2.158022    1.845247   -2.709584
     73          1           0        0.470598    1.891760   -2.285452
     74          1           0        1.249920    0.399068   -2.890870
     75          1           0        1.123220   -0.925577    1.542901
     76          1           0        0.765292   -2.216365    0.366140
     77          1           0       -1.128396   -0.251208   -0.339920
     78          1           0       -0.692638    0.105618    1.277583
     79          1           0        3.814600    6.136023    0.264241
     80          1           0        2.883942    5.197110   -0.916298
     81          1           0        4.122464    6.381058   -1.433263
     82          1           0        5.678455    7.546142    0.616364
     83          1           0        6.030512    7.464506   -1.177754
     84          1           0        7.204679    8.173296   -0.080835
     85          1           0       10.549715    2.161474    1.040511
     86          1           0       11.132658   -0.368922   -0.490820
     87          1           0       11.729353    3.106032   -0.784628
     88          1           0       10.536799    2.562758   -1.899177
     89          1           0       11.840662    1.425388   -1.434625
     90          1           0       10.478968   -0.762215    2.207105
     91          1           0       11.746715    0.504982    1.875821
     92          1           0       11.903064   -2.117215    0.440545
     93          1           0       12.449861   -2.149933    2.047681
     94          1           0       13.298995   -1.073761    0.920369
     95          1           0        8.522364   -4.625750    1.719951
     96          1           0        8.522162   -5.055417    0.042609
     97          1           0        7.276745   -5.678104    1.069695
     98          1           0        2.428678   -3.680832    0.920872
     99          1           0       -0.311044   -4.339945   -2.017041
    100          1           0       -0.138519   -6.000415   -1.507255
    101          1           0        0.842442   -5.479546   -2.835170
    102          1           0       -3.670500   -3.607576    1.554433
    103          1           0       -3.706240   -4.021516   -0.130371
    104          1           0       -4.901043   -1.276757    0.179476
    105          1           0       -7.370583   -4.441327   -0.313667
    106          1           0       -7.034915   -4.558779    1.457575
    107          1           0       -5.730439   -4.770751    0.245801
    108          1           0       -6.895994   -0.896674    1.018755
    109          1           0       -8.014792   -2.213198    1.183450
    110          1           0       -9.014177   -1.902541   -0.575871
    111          1           0       -7.830647   -1.977273   -1.687869
    112          1           0       -7.763680    0.296469   -2.032493
    113          1           0       -7.116581    0.610280   -0.529194
    114          1           0       -9.939129    0.225794   -0.025930
    115          1           0      -10.926672   -0.149188   -1.989956
    116          1           0       -9.620959    0.590645   -2.968337
    117          1           0      -10.735669    1.657193   -2.290097
    118          1           0       -9.635675    2.890784   -0.980468
    119          1           0       -8.183905    2.560454   -0.147053
    120          1           0       -9.055125    3.087073    1.624331
    121          1           0       -9.987278    1.560859    1.808618
    122          1           0      -11.307117    3.744843    0.203871
    123          1           0      -10.992466    4.176121    1.716427
    124          1           0      -12.083477    1.361962    1.803910
    125          1           0      -12.957035    2.198224    3.918311
    126          1           0      -13.643342    3.473177    3.204462
    127          1           0      -11.930405    3.540343    3.524071
    128          1           0      -13.148855    1.894396   -0.177712
    129          1           0      -13.884439    3.397268    0.412660
    130          1           0      -15.264156    2.008757    1.850081
    131          1           0      -14.226159    0.658090    1.646620
    132          1           0      -15.615422    2.028666   -0.713094
    133          1           0      -16.488763    0.900642    0.345187
    134          1           0      -14.245652   -0.653488   -0.254221
    135          1           0      -15.150621    0.879629   -2.709334
    136          1           0      -14.304974   -0.630256   -2.786303
    137          1           0      -13.426005    0.725785   -1.980046
    138          1           0      -16.344381   -1.724888    0.000427
    139          1           0      -16.272825   -1.823235   -1.811411
    140          1           0      -17.059975   -0.552477   -0.979531
 ---------------------------------------------------------------------

 SCF Done:  E(RwB97XD) =  -3007.85258506     A.U. after   17 cycles

 Excitation energies and oscillator strengths:

 Excited State   1:      Singlet-A      1.6505 eV  751.20 nm  f=0.4008  <S**2>=0.000
     245 -> 248       -0.18918
     246 -> 247        0.68322
     245 <- 248       -0.11945
 This state for optimization and/or second-order correction.
 Total Energy, E(TD-HF/TD-DFT) =  -3007.79193116
 Copying the excited state density for this state as the 1-particle RhoCI density.

 Excited State   2:      Singlet-A      2.1428 eV  578.61 nm  f=0.1318  <S**2>=0.000
     245 -> 247        0.64798
     246 -> 248        0.27085

 Excited State   3:      Singlet-A      3.3934 eV  365.37 nm  f=0.0005  <S**2>=0.000
     243 -> 247        0.67397

 Excited State   4:      Singlet-A      3.4937 eV  354.88 nm  f=0.0652  <S**2>=0.000
     240 -> 247        0.29556
     240 -> 249       -0.20969
     241 -> 247        0.12236
     242 -> 247        0.46558
     246 -> 248       -0.30870

 Excited State   5:      Singlet-A      3.5350 eV  350.73 nm  f=0.0473  <S**2>=0.000
     240 -> 247        0.47215
     240 -> 249       -0.30126
     240 -> 250        0.10422
     242 -> 247       -0.27014
     243 -> 247       -0.10126
     246 -> 248        0.24604

 The electronic state is 1-A.
 Alpha  occ. eigenvalues --  -46.95574 -19.29779 -19.29681 -19.25276 -19.24558
 Alpha  occ. eigenvalues --  -19.24091 -19.23181 -14.47253 -14.47125 -14.43922
 Alpha  occ. eigenvalues --  -14.43849 -10.43339 -10.42938 -10.39296 -10.37762
 Alpha  occ. eigenvalues --  -10.36572 -10.35947 -10.35682 -10.35129 -10.35081
 Alpha  occ. eigenvalues --  -10.35024 -10.33794 -10.33412 -10.33261 -10.32970
 Alpha  occ. eigenvalues --  -10.32785 -10.32743 -10.32513 -10.32159 -10.32131
 Alpha  occ. eigenvalues --  -10.32033 -10.31634 -10.31404 -10.31298 -10.31283
 Alpha  occ. eigenvalues --  -10.31169 -10.31037 -10.30981 -10.30774 -10.30146
 Alpha  occ. eigenvalues --  -10.30074 -10.29912 -10.29908 -10.29872 -10.29783
 Alpha  occ. eigenvalues --  -10.29712 -10.29663 -10.29654 -10.29637 -10.29634
 Alpha  occ. eigenvalues --  -10.29584 -10.29520 -10.29384 -10.29124 -10.29036
 Alpha  occ. eigenvalues --  -10.28639 -10.28591 -10.28515 -10.28467 -10.28340
 Alpha  occ. eigenvalues --  -10.28227 -10.28207 -10.28179 -10.27952 -10.27915
 Alpha  occ. eigenvalues --  -10.27889  -3.21505  -1.95093  -1.94620  -1.94478
 Alpha  occ. eigenvalues --   -1.17796  -1.17209  -1.14504  -1.11525  -1.09326
 Alpha  occ. eigenvalues --   -1.09262  -1.07700  -1.06339  -1.05727  -1.04922
 Alpha  occ. eigenvalues --   -0.94589  -0.92541  -0.92012  -0.91764  -0.91198
 Alpha  occ. eigenvalues --   -0.90944  -0.90262  -0.90014  -0.89512  -0.88726
 Alpha  occ. eigenvalues --   -0.88219  -0.87789  -0.86158  -0.85754  -0.85334
 Alpha  occ. eigenvalues --   -0.84319  -0.84235  -0.83305  -0.82554  -0.82201
 Alpha  occ. eigenvalues --   -0.81460  -0.80768  -0.80557  -0.78934  -0.77764
 Alpha  occ. eigenvalues --   -0.77479  -0.77358  -0.77271  -0.76543  -0.76195
 Alpha  occ. eigenvalues --   -0.75158  -0.74672  -0.73871  -0.73023  -0.71304
 Alpha  occ. eigenvalues --   -0.71252  -0.70313  -0.69974  -0.68522  -0.67608
 Alpha  occ. eigenvalues --   -0.67433  -0.67107  -0.66870  -0.66266  -0.65959
 Alpha  occ. eigenvalues --   -0.64964  -0.64853  -0.64703  -0.63659  -0.62629
 Alpha  occ. eigenvalues --   -0.62093  -0.61412  -0.60889  -0.60798  -0.60213
 Alpha  occ. eigenvalues --   -0.59223  -0.58985  -0.58563  -0.57685  -0.57200
 Alpha  occ. eigenvalues --   -0.56927  -0.56515  -0.56298  -0.56250  -0.56012
 Alpha  occ. eigenvalues --   -0.55862  -0.55364  -0.55137  -0.54873  -0.54747
 Alpha  occ. eigenvalues --   -0.54534  -0.54421  -0.54240  -0.53944  -0.53556
 Alpha  occ. eigenvalues --   -0.53378  -0.52975  -0.52890  -0.52838  -0.52623
 Alpha  occ. eigenvalues --   -0.52605  -0.52489  -0.52111  -0.51881  -0.51730
 Alpha  occ. eigenvalues --   -0.51502  -0.51086  -0.51026  -0.50939  -0.50686
 Alpha  occ. eigenvalues --   -0.50476  -0.50106  -0.49864  -0.49829  -0.49721
 Alpha  occ. eigenvalues --   -0.49508  -0.49224  -0.49134  -0.49018  -0.48300
 Alpha  occ. eigenvalues --   -0.48220  -0.48091  -0.48063  -0.47944  -0.47746
 Alpha  occ. eigenvalues --   -0.47604  -0.47461  -0.47162  -0.47038  -0.46743
 Alpha  occ. eigenvalues --   -0.46674  -0.46626  -0.46571  -0.46177  -0.46133
 Alpha  occ. eigenvalues --   -0.45926  -0.45840  -0.45712  -0.45567  -0.45349
 Alpha  occ. eigenvalues --   -0.45014  -0.44893  -0.44684  -0.44555  -0.44358
 Alpha  occ. eigenvalues --   -0.44196  -0.43943  -0.43886  -0.43514  -0.43056
 Alpha  occ. eigenvalues --   -0.42518  -0.42270  -0.42135  -0.42040  -0.41819
 Alpha  occ. eigenvalues --   -0.41637  -0.41138  -0.41083  -0.40917  -0.40815
 Alpha  occ. eigenvalues --   -0.40490  -0.40094  -0.39812  -0.39645  -0.39490
 Alpha  occ. eigenvalues --   -0.39284  -0.38939  -0.38631  -0.38251  -0.38133
 Alpha  occ. eigenvalues --   -0.37364  -0.37062  -0.36585  -0.36431  -0.36346
 Alpha  occ. eigenvalues --   -0.35952  -0.35728  -0.35454  -0.33584  -0.33060
 Alpha  occ. eigenvalues --   -0.32838  -0.32375  -0.32095  -0.31254  -0.26043
 Alpha  occ. eigenvalues --   -0.23327
 Alpha virt. eigenvalues --   -0.07427   0.00165   0.02138   0.04785   0.05294
 Alpha virt. eigenvalues --    0.06777   0.07008   0.07807   0.08259   0.09893
 Alpha virt. eigenvalues --    0.10831   0.11251   0.11311   0.11797   0.12306

 Mulliken charges:
               1
     1  Mg   0.962036
     2  C   -0.045368
     3  C   -0.097275
     4  C   -0.051425
     5  C   -0.101656
     6  N   -0.371087
     7  C    0.039637
     8  C   -0.071377
     9  C   -0.114112
    10  C    0.104218
    11  C    0.014632
    12  C   -0.027199
    13  C    0.039567
    14  C    0.208458
    15  O   -0.238501
    16  O   -0.401281
    17  N   -0.375001
    18  C    0.121881
    19  C   -0.170192
    20  C   -0.039674
    21  C    0.120909
    22  C    0.093394
    23  C   -0.010992
    24  O   -0.205954
    25  C    0.005453
    26  N   -0.332394
    27  C    0.004391
    28  C   -0.084264
    29  C   -0.104974
    30  C    0.076077
    31  C    0.036529
    32  C   -0.000100
    33  C   -0.059832
    34  N   -0.461932
    35  C    0.160932
    36  C   -0.167718
    37  C   -0.035625
    38  C    0.170236
    39  C    0.055071
    40  C    0.140991
    41  O   -0.202633
    42  C   -0.118218
    43  C    0.258365
    44  O   -0.227965
    45  O   -0.394905
    46  C    0.133983
    47  C    0.264683
    48  C   -0.127156
    49  C   -0.229118
    50  C    0.053952
    51  C    0.008553
    52  C   -0.020031
    53  C    0.004936
    54  C   -0.185701
    55  C   -0.002361
    56  C    0.034799
    57  C   -0.026957
    58  C    0.030340
    59  C   -0.147269
    60  C   -0.019334
    61  C    0.017217
    62  C   -0.034391
    63  C    0.020760
    64  C   -0.215034
    65  C   -0.006396
    66  C   -0.015567
    67  H   -0.017105
    68  H    0.026322
    69  H   -0.002258
    70  H    0.054846
    71  H    0.032536
    72  H    0.039238
    73  H    0.031170
    74  H    0.044458
    75  H    0.041440
    76  H    0.047179
    77  H    0.050758
    78  H    0.050348
    79  H    0.044495
    80  H    0.044607
    81  H    0.041029
    82  H    0.055826
    83  H    0.051588
    84  H    0.049374
    85  H    0.043677
    86  H    0.033350
    87  H    0.043520
    88  H    0.049168
    89  H    0.036488
    90  H    0.037740
    91  H    0.028490
    92  H    0.032161
    93  H    0.035115
    94  H    0.051475
    95  H    0.037475
    96  H    0.047667
    97  H    0.053750
    98  H    0.081734
    99  H    0.050018
   100  H    0.049551
   101  H    0.072288
   102  H    0.075767
   103  H    0.056870
   104  H    0.023135
   105  H    0.048063
   106  H    0.060418
   107  H    0.005157
   108  H    0.028269
   109  H    0.012220
   110  H    0.012013
   111  H    0.019383
   112  H    0.006265
   113  H    0.021414
   114  H    0.018321
   115  H    0.046686
   116  H    0.019594
   117  H    0.030046
   118  H    0.004071
   119  H    0.009479
   120  H    0.015646
   121  H    0.033622
   122  H   -0.000810
   123  H    0.005850
   124  H    0.015075
   125  H    0.020054
   126  H    0.016285
   127  H    0.025190
   128  H   -0.003560
   129  H    0.022209
   130  H    0.008301
   131  H    0.006341
   132  H    0.020906
   133  H    0.011179
   134  H    0.020325
   135  H    0.030730
   136  H    0.021069
   137  H    0.046308
   138  H    0.033235
   139  H    0.033704
   140  H    0.010622
 Sum of Mulliken charges =  -0.00000

 Dipole moment (field-independent basis, Debye):
    X=             -1.7185    Y=              3.7255    Z=             -0.4139  Tot=              4.1236
 Quadrupole moment (field-independent basis, Debye-Ang):
   XX=           -362.7206   YY=           -411.0486   ZZ=           -412.7918
   XY=              9.8742   XZ=             15.5119   YZ=              0.1441

 Normal termination of Gaussian 16 at Wed Apr 27 22:20:08 2022.
