 Gaussian 16, Revision A.03,
 Gaussian 16:  ES64L-G16RevA.03 25-Dec-2016

 --------------------
 #p ZINDO=(nstates=5)
 --------------------

 -----------------------------
 step_1301_chromophore_4 ZINDO
 -----------------------------
 Symbolic Z-matrix:
 Charge =  0 Multiplicity = 1

                         Standard orientation:
 ---------------------------------------------------------------------
 Center     Atomic      Atomic             Coordinates (Angstroms)
 Number     Number       Type             X           Y           Z
 ---------------------------------------------------------------------
      1         12           0        6.007412    0.531068    0.214245
      2          6           0        3.797500   -2.148458    0.058695
      3          6           0        3.407451    2.677124   -0.366811
      4          6           0        8.203894    3.116281   -0.073487
      5          6           0        8.651838   -1.717804    0.525930
      6          7           0        3.898515    0.255242   -0.174194
      7          6           0        3.159447   -0.887849   -0.140093
      8          6           0        1.664956   -0.648322   -0.530055
      9          6           0        1.668437    0.906462   -0.797701
     10          6           0        3.067647    1.332252   -0.308267
     11          6           0        1.362471    1.266165   -2.240198
     12          6           0        0.713926   -1.144573    0.557376
     13          6           0       -0.736198   -0.718148    0.564145
     14          6           0       -1.756779   -1.625075    1.137696
     15          8           0       -2.103270   -1.685080    2.288279
     16          8           0       -2.463852   -2.283210    0.138301
     17          7           0        5.822977    2.649341   -0.191290
     18          6           0        4.709292    3.315354   -0.386826
     19          6           0        4.957263    4.671373   -0.486119
     20          6           0        6.324679    4.845077   -0.292508
     21          6           0        6.853024    3.523901   -0.182515
     22          6           0        3.862808    5.621764   -0.696008
     23          6           0        7.081589    6.094492   -0.121848
     24          8           0        8.260523    6.071493   -0.028480
     25          6           0        6.427665    7.412865   -0.164056
     26          7           0        8.161490    0.581864   -0.095566
     27          6           0        8.815631    1.788408   -0.044696
     28          6           0       10.361198    1.647699    0.098680
     29          6           0       10.542791    0.105554    0.294569
     30          6           0        9.007956   -0.403075    0.247371
     31          6           0       11.176429    2.217198   -1.087642
     32          6           0       11.261747   -0.410226    1.535440
     33          6           0       12.323504   -1.467053    1.207991
     34          7           0        6.249853   -1.491431    0.318902
     35          6           0        7.372593   -2.261455    0.516377
     36          6           0        6.937826   -3.601975    0.618513
     37          6           0        5.512048   -3.685120    0.463800
     38          6           0        5.169509   -2.309590    0.254313
     39          6           0        7.863090   -4.782195    0.866105
     40          6           0        4.390186   -4.543451    0.372238
     41          8           0        4.268333   -5.765610    0.426656
     42          6           0        3.163588   -3.547262    0.127295
     43          6           0        2.397188   -3.898986   -1.161121
     44          8           0        2.689455   -3.720107   -2.324498
     45          8           0        1.303651   -4.697201   -0.770163
     46          6           0        0.414715   -5.143092   -1.890961
     47          6           0       -3.624066   -3.177208    0.553690
     48          6           0       -4.879514   -2.346418    0.385009
     49          6           0       -6.130375   -2.834853    0.435311
     50          6           0       -6.655251   -4.245951    0.484296
     51          6           0       -7.254428   -1.798916    0.522137
     52          6           0       -8.038077   -1.451245   -0.755547
     53          6           0       -7.981480    0.122721   -0.978698
     54          6           0       -9.380657    0.797483   -0.767590
     55          6           0      -10.252990    0.702337   -2.087927
     56          6           0       -9.218742    2.226307   -0.223758
     57          6           0       -9.802872    2.431384    1.178908
     58          6           0      -11.131707    3.250232    1.158880
     59          6           0      -12.340882    2.412514    1.668616
     60          6           0      -12.718827    2.903251    3.122200
     61          6           0      -13.476508    2.432353    0.712017
     62          6           0      -14.625890    1.520553    1.114150
     63          6           0      -15.512038    1.160771   -0.061845
     64          6           0      -15.026610   -0.138928   -0.814449
     65          6           0      -14.397075    0.281607   -2.196864
     66          6           0      -16.174494   -1.187055   -0.932416
     67          1           0        2.556981    3.320613   -0.602616
     68          1           0        8.983113    3.860849    0.105705
     69          1           0        9.451112   -2.456878    0.616230
     70          1           0        1.399853   -1.293613   -1.368639
     71          1           0        0.890668    1.470808   -0.282987
     72          1           0        2.158022    1.845247   -2.709584
     73          1           0        0.470598    1.891760   -2.285452
     74          1           0        1.249920    0.399068   -2.890870
     75          1           0        1.123220   -0.925577    1.542901
     76          1           0        0.765292   -2.216365    0.366140
     77          1           0       -1.128396   -0.251208   -0.339920
     78          1           0       -0.692638    0.105618    1.277583
     79          1           0        3.814600    6.136023    0.264241
     80          1           0        2.883942    5.197110   -0.916298
     81          1           0        4.122464    6.381058   -1.433263
     82          1           0        5.678455    7.546142    0.616364
     83          1           0        6.030512    7.464506   -1.177754
     84          1           0        7.204679    8.173296   -0.080835
     85          1           0       10.549715    2.161474    1.040511
     86          1           0       11.132658   -0.368922   -0.490820
     87          1           0       11.729353    3.106032   -0.784628
     88          1           0       10.536799    2.562758   -1.899177
     89          1           0       11.840662    1.425388   -1.434625
     90          1           0       10.478968   -0.762215    2.207105
     91          1           0       11.746715    0.504982    1.875821
     92          1           0       11.903064   -2.117215    0.440545
     93          1           0       12.449861   -2.149933    2.047681
     94          1           0       13.298995   -1.073761    0.920369
     95          1           0        8.522364   -4.625750    1.719951
     96          1           0        8.522162   -5.055417    0.042609
     97          1           0        7.276745   -5.678104    1.069695
     98          1           0        2.428678   -3.680832    0.920872
     99          1           0       -0.311044   -4.339945   -2.017041
    100          1           0       -0.138519   -6.000415   -1.507255
    101          1           0        0.842442   -5.479546   -2.835170
    102          1           0       -3.670500   -3.607576    1.554433
    103          1           0       -3.706240   -4.021516   -0.130371
    104          1           0       -4.901043   -1.276757    0.179476
    105          1           0       -7.370583   -4.441327   -0.313667
    106          1           0       -7.034915   -4.558779    1.457575
    107          1           0       -5.730439   -4.770751    0.245801
    108          1           0       -6.895994   -0.896674    1.018755
    109          1           0       -8.014792   -2.213198    1.183450
    110          1           0       -9.014177   -1.902541   -0.575871
    111          1           0       -7.830647   -1.977273   -1.687869
    112          1           0       -7.763680    0.296469   -2.032493
    113          1           0       -7.116581    0.610280   -0.529194
    114          1           0       -9.939129    0.225794   -0.025930
    115          1           0      -10.926672   -0.149188   -1.989956
    116          1           0       -9.620959    0.590645   -2.968337
    117          1           0      -10.735669    1.657193   -2.290097
    118          1           0       -9.635675    2.890784   -0.980468
    119          1           0       -8.183905    2.560454   -0.147053
    120          1           0       -9.055125    3.087073    1.624331
    121          1           0       -9.987278    1.560859    1.808618
    122          1           0      -11.307117    3.744843    0.203871
    123          1           0      -10.992466    4.176121    1.716427
    124          1           0      -12.083477    1.361962    1.803910
    125          1           0      -12.957035    2.198224    3.918311
    126          1           0      -13.643342    3.473177    3.204462
    127          1           0      -11.930405    3.540343    3.524071
    128          1           0      -13.148855    1.894396   -0.177712
    129          1           0      -13.884439    3.397268    0.412660
    130          1           0      -15.264156    2.008757    1.850081
    131          1           0      -14.226159    0.658090    1.646620
    132          1           0      -15.615422    2.028666   -0.713094
    133          1           0      -16.488763    0.900642    0.345187
    134          1           0      -14.245652   -0.653488   -0.254221
    135          1           0      -15.150621    0.879629   -2.709334
    136          1           0      -14.304974   -0.630256   -2.786303
    137          1           0      -13.426005    0.725785   -1.980046
    138          1           0      -16.344381   -1.724888    0.000427
    139          1           0      -16.272825   -1.823235   -1.811411
    140          1           0      -17.059975   -0.552477   -0.979531
 ---------------------------------------------------------------------

 SCF Done:  E(RZINDO/S) =  -474.477050162     A.U. after   20 cycles

 Excitation energies and oscillator strengths:

 Excited State   1:      Singlet-A      1.2238 eV 1013.11 nm  f=0.6101  <S**2>=0.000
     175 ->178         0.19558
     176 ->177         0.66137
 This state for optimization and/or second-order correction.
 Total Energy, E(CIS/TDA) =  -474.432076528
 Copying the excited state density for this state as the 1-particle RhoCI density.

 Excited State   2:      Singlet-A      1.8893 eV  656.23 nm  f=0.0773  <S**2>=0.000
     175 ->177         0.57082
     176 ->178        -0.38832

 Excited State   3:      Singlet-A      2.9201 eV  424.60 nm  f=0.0132  <S**2>=0.000
     170 ->177         0.29210
     170 ->179         0.26930
     170 ->180         0.30378
     170 ->183         0.15587
     170 ->185         0.24295
     170 ->187        -0.13765

 Excited State   4:      Singlet-A      2.9884 eV  414.89 nm  f=0.5157  <S**2>=0.000
     171 ->177         0.11001
     175 ->177         0.25752
     176 ->178         0.45397
     176 ->179         0.37624

 Excited State   5:      Singlet-A      3.0136 eV  411.42 nm  f=0.0420  <S**2>=0.000
     168 ->177         0.31980
     168 ->178        -0.15929
     168 ->179        -0.35454
     168 ->180         0.17677
     168 ->183         0.12227
     168 ->185        -0.15735
     168 ->187        -0.10812
     169 ->177         0.15384
     169 ->179        -0.16917
     176 ->178        -0.12852
     176 ->179        -0.11597

 The electronic state is 1-A.
 Alpha  occ. eigenvalues --   -1.85346  -1.84175  -1.79246  -1.72415  -1.70776
 Alpha  occ. eigenvalues --   -1.69618  -1.65916  -1.64085  -1.60618  -1.57232
 Alpha  occ. eigenvalues --   -1.55153  -1.51227  -1.49609  -1.48392  -1.47703
 Alpha  occ. eigenvalues --   -1.45009  -1.43984  -1.42318  -1.40245  -1.39416
 Alpha  occ. eigenvalues --   -1.37548  -1.32990  -1.32793  -1.31805  -1.28014
 Alpha  occ. eigenvalues --   -1.26910  -1.24999  -1.22901  -1.21656  -1.18545
 Alpha  occ. eigenvalues --   -1.17633  -1.17166  -1.15776  -1.13147  -1.12834
 Alpha  occ. eigenvalues --   -1.12440  -1.11433  -1.11187  -1.05059  -1.03800
 Alpha  occ. eigenvalues --   -1.03342  -1.01617  -0.99609  -0.97929  -0.96926
 Alpha  occ. eigenvalues --   -0.95657  -0.95114  -0.94019  -0.93275  -0.91850
 Alpha  occ. eigenvalues --   -0.91344  -0.90621  -0.89330  -0.88094  -0.87448
 Alpha  occ. eigenvalues --   -0.86676  -0.84125  -0.82953  -0.82862  -0.80839
 Alpha  occ. eigenvalues --   -0.79662  -0.79523  -0.77711  -0.76706  -0.76147
 Alpha  occ. eigenvalues --   -0.75340  -0.75125  -0.74570  -0.74188  -0.73154
 Alpha  occ. eigenvalues --   -0.72802  -0.72612  -0.71306  -0.70968  -0.70189
 Alpha  occ. eigenvalues --   -0.69419  -0.69192  -0.68642  -0.68511  -0.68154
 Alpha  occ. eigenvalues --   -0.67328  -0.66931  -0.66687  -0.66048  -0.65698
 Alpha  occ. eigenvalues --   -0.65200  -0.64672  -0.64316  -0.63519  -0.63010
 Alpha  occ. eigenvalues --   -0.62826  -0.62564  -0.62145  -0.61755  -0.61657
 Alpha  occ. eigenvalues --   -0.61572  -0.61320  -0.60979  -0.60252  -0.60194
 Alpha  occ. eigenvalues --   -0.59585  -0.59289  -0.58772  -0.58318  -0.58176
 Alpha  occ. eigenvalues --   -0.57841  -0.57542  -0.56956  -0.56701  -0.56548
 Alpha  occ. eigenvalues --   -0.56325  -0.56169  -0.55769  -0.55336  -0.55177
 Alpha  occ. eigenvalues --   -0.54914  -0.54690  -0.53366  -0.53090  -0.52925
 Alpha  occ. eigenvalues --   -0.52635  -0.52250  -0.52132  -0.52042  -0.51546
 Alpha  occ. eigenvalues --   -0.50914  -0.50875  -0.50563  -0.50516  -0.50122
 Alpha  occ. eigenvalues --   -0.49778  -0.49572  -0.49281  -0.49161  -0.48851
 Alpha  occ. eigenvalues --   -0.48459  -0.48303  -0.48183  -0.48082  -0.47726
 Alpha  occ. eigenvalues --   -0.47448  -0.47187  -0.47012  -0.46949  -0.46572
 Alpha  occ. eigenvalues --   -0.46269  -0.46167  -0.45949  -0.45881  -0.45508
 Alpha  occ. eigenvalues --   -0.45382  -0.45190  -0.44844  -0.44163  -0.44074
 Alpha  occ. eigenvalues --   -0.43069  -0.42711  -0.42567  -0.42192  -0.41939
 Alpha  occ. eigenvalues --   -0.41752  -0.41625  -0.40790  -0.39283  -0.39043
 Alpha  occ. eigenvalues --   -0.38560  -0.37031  -0.35347  -0.35252  -0.34428
 Alpha  occ. eigenvalues --   -0.33196  -0.32757  -0.32305  -0.31600  -0.26550
 Alpha  occ. eigenvalues --   -0.22077
 Alpha virt. eigenvalues --   -0.08881  -0.02170  -0.00682   0.01443   0.01760
 Alpha virt. eigenvalues --    0.01978   0.02406   0.02925   0.04939   0.05236
 Alpha virt. eigenvalues --    0.06059   0.06797   0.07865   0.07916   0.08304

 Mulliken charges:
               1
     1  Mg   0.429969
     2  C   -0.056994
     3  C   -0.094519
     4  C   -0.060447
     5  C   -0.054846
     6  N   -0.279133
     7  C    0.128054
     8  C    0.004391
     9  C    0.004801
    10  C    0.121967
    11  C   -0.047995
    12  C   -0.014639
    13  C    0.008315
    14  C    0.478348
    15  O   -0.506924
    16  O   -0.288462
    17  N   -0.312802
    18  C    0.117109
    19  C    0.014064
    20  C   -0.045880
    21  C    0.131862
    22  C   -0.044027
    23  C    0.333286
    24  O   -0.522997
    25  C   -0.030439
    26  N   -0.247777
    27  C    0.122109
    28  C    0.007162
    29  C   -0.012650
    30  C    0.116105
    31  C   -0.046600
    32  C   -0.031593
    33  C   -0.055450
    34  N   -0.329575
    35  C    0.100530
    36  C    0.042080
    37  C   -0.062865
    38  C    0.127923
    39  C   -0.046399
    40  C    0.342093
    41  O   -0.518525
    42  C    0.052077
    43  C    0.476394
    44  O   -0.502699
    45  O   -0.279338
    46  C    0.073103
    47  C    0.107624
    48  C   -0.085269
    49  C   -0.021318
    50  C   -0.044037
    51  C   -0.027788
    52  C   -0.037118
    53  C   -0.039065
    54  C   -0.012298
    55  C   -0.062988
    56  C   -0.030808
    57  C   -0.037928
    58  C   -0.042547
    59  C    0.003295
    60  C   -0.069940
    61  C   -0.027936
    62  C   -0.036293
    63  C   -0.032681
    64  C   -0.015815
    65  C   -0.063172
    66  C   -0.066747
    67  H    0.021131
    68  H    0.046348
    69  H    0.026955
    70  H    0.045508
    71  H    0.026912
    72  H    0.020247
    73  H    0.015769
    74  H    0.023543
    75  H    0.028545
    76  H    0.020417
    77  H    0.040568
    78  H    0.028153
    79  H    0.027292
    80  H    0.031008
    81  H    0.025554
    82  H    0.037671
    83  H    0.038567
    84  H    0.034050
    85  H    0.036661
    86  H    0.035103
    87  H    0.023820
    88  H    0.027895
    89  H    0.024239
    90  H    0.031585
    91  H    0.019025
    92  H    0.017982
    93  H    0.013122
    94  H    0.029307
    95  H    0.022840
    96  H    0.031551
    97  H    0.027460
    98  H    0.058009
    99  H    0.033934
   100  H    0.026459
   101  H    0.059441
   102  H    0.066842
   103  H    0.041578
   104  H    0.044802
   105  H    0.032423
   106  H    0.037875
   107  H    0.013513
   108  H    0.021385
   109  H    0.011471
   110  H    0.015731
   111  H    0.022100
   112  H    0.006087
   113  H    0.030834
   114  H    0.019137
   115  H    0.025062
   116  H    0.017881
   117  H    0.020842
   118  H    0.018947
   119  H    0.013668
   120  H    0.011060
   121  H    0.034438
   122  H    0.016202
   123  H    0.013647
   124  H    0.024658
   125  H    0.017494
   126  H    0.014021
   127  H    0.014712
   128  H    0.010677
   129  H    0.026698
   130  H    0.006254
   131  H    0.019054
   132  H    0.025928
   133  H    0.011965
   134  H    0.017612
   135  H    0.025572
   136  H    0.012390
   137  H    0.031108
   138  H    0.020101
   139  H    0.027863
   140  H    0.006358
 Sum of Mulliken charges =  -0.00000

 Dipole moment (field-independent basis, Debye):
    X=             -2.6827    Y=              5.6866    Z=             -0.1217  Tot=              6.2888
 N-N= 4.234498969893D+03 E-N= 0.000000000000D+00  KE=-9.143382161962D+03
 Leave Link  601 at Wed Apr 27 22:40:56 2022, MaxMem=  6710886400 cpu:               0.7 elap:               0.0
 (Enter /sw/apps/gaussian-16.0/g16/l9999.exe)
 1\1\GINC-BP1-COMPUTE182\SP\RZINDO CIS\STO-3G\C55H74Mg1N4O6\OF15641\27-
 Apr-2022\0\\#p ZINDO=(nstates=5)\\step_1301_chromophore_4 ZINDO\\0,1\M
 g,0,9.557,3.47,27.111\C,0,10.729,1.798,29.925\C,0,8.291,5.926,29.128\C
 ,0,8.028,4.892,24.422\C,0,10.622,0.806,25.132\N,0,9.475,3.752,29.253\C
 ,0,10.051,3.013,30.241\C,0,9.702,3.544,31.669\C,0,8.79,4.782,31.316\C,
 0,8.948,4.895,29.786\C,0,7.359,4.628,31.798\C,0,10.961,3.842,32.481\C,
 0,10.885,4.675,33.74\C,0,11.864,4.44,34.826\O,0,12.949,4.947,34.941\O,

 Normal termination of Gaussian 16 at Wed Apr 27 22:40:56 2022.
