 Gaussian 16, Revision A.03,
 Gaussian 16:  ES64L-G16RevA.03 25-Dec-2016

 ------------------------------
 #p blyp/Def2SVP td=(nstates=5)
 ------------------------------

 -------------------------------------------------
 step_951_chromophore_7 TDDFT with blyp functional
 -------------------------------------------------
 Symbolic Z-matrix:
 Charge =  0 Multiplicity = 1

                         Standard orientation:
 ---------------------------------------------------------------------
 Center     Atomic      Atomic             Coordinates (Angstroms)
 Number     Number       Type             X           Y           Z
 ---------------------------------------------------------------------
      1         12           0        6.288809    0.353378    0.122748
      2          6           0        3.711511   -2.108042    0.089212
      3          6           0        3.660934    2.759550   -0.325765
      4          6           0        8.574839    2.881976    0.192837
      5          6           0        8.619184   -1.940804    0.632533
      6          7           0        3.966874    0.331193   -0.187852
      7          6           0        3.177750   -0.804722   -0.035611
      8          6           0        1.679273   -0.518993   -0.207936
      9          6           0        1.715624    1.108496   -0.370951
     10          6           0        3.199212    1.441120   -0.324820
     11          6           0        0.992156    1.643642   -1.646032
     12          6           0        0.808647   -1.207862    0.887211
     13          6           0       -0.565733   -0.589760    1.167931
     14          6           0       -1.668035   -1.552139    1.051070
     15          8           0       -1.810354   -2.632047    1.591781
     16          8           0       -2.601575   -1.092737    0.100642
     17          7           0        6.156856    2.486764   -0.248890
     18          6           0        5.043244    3.192220   -0.305985
     19          6           0        5.432993    4.594474   -0.612473
     20          6           0        6.837060    4.622809   -0.526686
     21          6           0        7.235249    3.270982   -0.162380
     22          6           0        4.416132    5.676471   -1.033478
     23          6           0        7.826904    5.802847   -0.787363
     24          8           0        9.092935    5.718875   -0.612879
     25          6           0        7.186972    7.177681   -1.097276
     26          7           0        8.274100    0.469091    0.310773
     27          6           0        9.026990    1.587301    0.426320
     28          6           0       10.493340    1.387121    0.769935
     29          6           0       10.474389   -0.185670    0.929159
     30          6           0        9.042444   -0.601846    0.605107
     31          6           0       11.530152    2.063662   -0.290057
     32          6           0       10.929387   -0.599508    2.348013
     33          6           0       11.787575   -1.883347    2.273545
     34          7           0        6.206238   -1.604905    0.236186
     35          6           0        7.256685   -2.449593    0.475350
     36          6           0        6.872014   -3.813840    0.440830
     37          6           0        5.437631   -3.751036    0.327249
     38          6           0        5.086873   -2.367366    0.159211
     39          6           0        7.656708   -4.969498    0.464098
     40          6           0        4.202755   -4.588560    0.311033
     41          8           0        3.999580   -5.768623    0.484256
     42          6           0        3.047515   -3.505382    0.210777
     43          6           0        2.361567   -3.888600   -0.992797
     44          8           0        2.729255   -3.720325   -2.112587
     45          8           0        1.225788   -4.596943   -0.618526
     46          6           0        0.197711   -4.654028   -1.619007
     47          6           0       -3.809692   -1.893266    0.015366
     48          6           0       -4.882754   -0.975006   -0.600823
     49          6           0       -6.173901   -1.312865   -0.903604
     50          6           0       -6.611632   -2.721648   -0.928169
     51          6           0       -7.113184   -0.197055   -1.283096
     52          6           0       -7.922898   -0.510319   -2.564789
     53          6           0       -8.681240    0.775523   -2.955687
     54          6           0      -10.147112    0.419963   -3.312658
     55          6           0      -10.724645    1.282497   -4.526877
     56          6           0      -11.059968    0.698835   -1.997303
     57          6           0      -12.079960   -0.394409   -1.554635
     58          6           0      -13.515361    0.022596   -1.693169
     59          6           0      -14.280339   -0.064374   -0.291783
     60          6           0      -15.795908   -0.026359   -0.502578
     61          6           0      -13.964718    1.127627    0.686062
     62          6           0      -13.505991    0.670292    2.127789
     63          6           0      -14.006555    1.553419    3.308686
     64          6           0      -13.001156    1.860496    4.422197
     65          6           0      -13.717529    2.015853    5.837972
     66          6           0      -12.014814    2.945821    4.032651
     67          1           0        2.858383    3.495693   -0.409794
     68          1           0        9.280526    3.714954    0.200239
     69          1           0        9.456770   -2.623537    0.790953
     70          1           0        1.423765   -1.035558   -1.133276
     71          1           0        1.317501    1.496836    0.566362
     72          1           0        1.711982    2.190321   -2.255118
     73          1           0        0.282316    2.423413   -1.370113
     74          1           0        0.603110    0.748279   -2.132178
     75          1           0        1.460013   -1.121558    1.756467
     76          1           0        0.579223   -2.230038    0.584380
     77          1           0       -0.774739    0.201776    0.448263
     78          1           0       -0.590751   -0.050551    2.114517
     79          1           0        4.533281    5.955823   -2.079836
     80          1           0        4.643022    6.488840   -0.342647
     81          1           0        3.346191    5.509653   -0.907456
     82          1           0        7.960633    7.776299   -1.577719
     83          1           0        6.884995    7.605020   -0.141739
     84          1           0        6.415902    7.063180   -1.859991
     85          1           0       10.649753    1.869659    1.734205
     86          1           0       11.044864   -0.632128    0.115287
     87          1           0       12.184256    1.304182   -0.717622
     88          1           0       12.133937    2.714629    0.342332
     89          1           0       11.063023    2.581285   -1.128371
     90          1           0       10.109550   -0.785189    3.041436
     91          1           0       11.506099    0.230630    2.757309
     92          1           0       11.147757   -2.746671    2.086298
     93          1           0       12.298636   -2.039577    3.223149
     94          1           0       12.586028   -1.886718    1.531884
     95          1           0        7.027551   -5.799474    0.144849
     96          1           0        7.787567   -5.316234    1.489220
     97          1           0        8.564586   -4.939873   -0.138876
     98          1           0        2.333960   -3.514344    1.035157
     99          1           0       -0.395289   -3.757444   -1.793001
    100          1           0       -0.543109   -5.400609   -1.333746
    101          1           0        0.639796   -4.867912   -2.593164
    102          1           0       -4.336142   -2.044450    0.958282
    103          1           0       -3.658332   -2.677140   -0.726352
    104          1           0       -4.647078    0.088314   -0.590992
    105          1           0       -6.904517   -3.094026   -1.909343
    106          1           0       -7.433422   -2.898332   -0.235245
    107          1           0       -5.883811   -3.373323   -0.443194
    108          1           0       -6.695598    0.809688   -1.281844
    109          1           0       -7.869488   -0.179359   -0.498200
    110          1           0       -8.602158   -1.314428   -2.283105
    111          1           0       -7.291056   -0.878869   -3.372544
    112          1           0       -8.178755    1.257450   -3.793609
    113          1           0       -8.714785    1.508584   -2.150246
    114          1           0      -10.272521   -0.634594   -3.556216
    115          1           0      -11.247456    2.175546   -4.183068
    116          1           0      -11.536562    0.770378   -5.043650
    117          1           0      -10.021320    1.734419   -5.226727
    118          1           0      -11.546655    1.641134   -2.248244
    119          1           0      -10.469708    0.908188   -1.105267
    120          1           0      -11.827905   -0.583740   -0.510639
    121          1           0      -11.954187   -1.310856   -2.129300
    122          1           0      -14.003640   -0.688256   -2.360335
    123          1           0      -13.560919    1.072593   -1.981462
    124          1           0      -13.961756   -0.988309    0.190900
    125          1           0      -16.377955    0.611043    0.161707
    126          1           0      -16.213693   -1.029242   -0.583856
    127          1           0      -16.054754    0.305222   -1.508419
    128          1           0      -14.784926    1.838269    0.792724
    129          1           0      -13.155356    1.713315    0.249668
    130          1           0      -12.419509    0.643043    2.039415
    131          1           0      -13.857122   -0.309620    2.450688
    132          1           0      -14.777624    0.918553    3.744650
    133          1           0      -14.536434    2.420908    2.915964
    134          1           0      -12.363468    0.977493    4.473649
    135          1           0      -14.795572    2.160647    5.757862
    136          1           0      -13.239819    2.760508    6.474568
    137          1           0      -13.507426    1.160695    6.480368
    138          1           0      -12.107535    3.175469    2.971672
    139          1           0      -10.996685    2.555913    4.054254
    140          1           0      -12.174407    3.848721    4.621692
 ---------------------------------------------------------------------

 SCF Done:  E(RB-LYP) =  -3007.36663974     A.U. after   21 cycles

 Excitation energies and oscillator strengths:

 Excited State   1:      Singlet-A      1.7950 eV  690.73 nm  f=0.3219  <S**2>=0.000
     245 -> 248        0.12595
     245 -> 249       -0.14096
     246 -> 247        0.69220
     246 <- 247       -0.15487
 This state for optimization and/or second-order correction.
 Total Energy, E(TD-HF/TD-DFT) =  -3007.30067615
 Copying the excited state density for this state as the 1-particle RhoCI density.

 Excited State   2:      Singlet-A      2.0165 eV  614.84 nm  f=0.0785  <S**2>=0.000
     243 -> 247       -0.24921
     244 -> 247       -0.14096
     245 -> 247        0.60264
     246 -> 248       -0.14528
     246 -> 249        0.15111

 Excited State   3:      Singlet-A      2.0688 eV  599.31 nm  f=0.0018  <S**2>=0.000
     243 -> 247       -0.10969
     244 -> 247        0.68904

 Excited State   4:      Singlet-A      2.1186 eV  585.22 nm  f=0.0022  <S**2>=0.000
     242 -> 247        0.65935
     243 -> 247       -0.23599

 Excited State   5:      Singlet-A      2.1220 eV  584.28 nm  f=0.0154  <S**2>=0.000
     242 -> 247        0.25531
     243 -> 247        0.60625
     245 -> 247        0.21806

 The electronic state is 1-A.
 Alpha  occ. eigenvalues --  -46.26361 -18.81835 -18.80888 -18.77297 -18.76727
 Alpha  occ. eigenvalues --  -18.76385 -18.76365 -14.03205 -14.03172 -14.01203
 Alpha  occ. eigenvalues --  -14.00929 -10.04167 -10.02998 -10.00998 -10.00250
 Alpha  occ. eigenvalues --   -9.97913  -9.96710  -9.96662  -9.96341  -9.96285
 Alpha  occ. eigenvalues --   -9.96074  -9.96005  -9.95581  -9.95559  -9.94598
 Alpha  occ. eigenvalues --   -9.94538  -9.94391  -9.94192  -9.94057  -9.93835
 Alpha  occ. eigenvalues --   -9.93752  -9.93693  -9.93623  -9.93528  -9.93296
 Alpha  occ. eigenvalues --   -9.93230  -9.93053  -9.92910  -9.92899  -9.92866
 Alpha  occ. eigenvalues --   -9.92799  -9.92746  -9.92650  -9.92483  -9.92269
 Alpha  occ. eigenvalues --   -9.92216  -9.92004  -9.91993  -9.91993  -9.91792
 Alpha  occ. eigenvalues --   -9.91661  -9.91650  -9.91613  -9.91338  -9.91309
 Alpha  occ. eigenvalues --   -9.91303  -9.91280  -9.91272  -9.91251  -9.91113
 Alpha  occ. eigenvalues --   -9.91095  -9.91049  -9.91020  -9.90816  -9.90622
 Alpha  occ. eigenvalues --   -9.90346  -2.91258  -1.71682  -1.71130  -1.70989
 Alpha  occ. eigenvalues --   -0.97935  -0.97632  -0.92264  -0.90685  -0.90066
 Alpha  occ. eigenvalues --   -0.89087  -0.87352  -0.86673  -0.85978  -0.84850
 Alpha  occ. eigenvalues --   -0.75179  -0.73762  -0.73168  -0.72584  -0.72269
 Alpha  occ. eigenvalues --   -0.71598  -0.71574  -0.71158  -0.70658  -0.70570
 Alpha  occ. eigenvalues --   -0.70052  -0.69307  -0.68002  -0.67554  -0.67020
 Alpha  occ. eigenvalues --   -0.66235  -0.65635  -0.65011  -0.64856  -0.64392
 Alpha  occ. eigenvalues --   -0.64069  -0.62730  -0.62617  -0.61536  -0.60681
 Alpha  occ. eigenvalues --   -0.60454  -0.60412  -0.60147  -0.59103  -0.59006
 Alpha  occ. eigenvalues --   -0.58171  -0.57576  -0.56817  -0.55757  -0.54754
 Alpha  occ. eigenvalues --   -0.53894  -0.53188  -0.52407  -0.52102  -0.51912
 Alpha  occ. eigenvalues --   -0.51280  -0.51160  -0.50932  -0.50138  -0.49911
 Alpha  occ. eigenvalues --   -0.49520  -0.48972  -0.48663  -0.48132  -0.46725
 Alpha  occ. eigenvalues --   -0.46336  -0.46077  -0.45708  -0.45564  -0.45071
 Alpha  occ. eigenvalues --   -0.44510  -0.43900  -0.43290  -0.42922  -0.42425
 Alpha  occ. eigenvalues --   -0.41954  -0.41738  -0.41481  -0.41239  -0.41150
 Alpha  occ. eigenvalues --   -0.40886  -0.40649  -0.40523  -0.40183  -0.40028
 Alpha  occ. eigenvalues --   -0.39897  -0.39436  -0.39347  -0.39307  -0.39127
 Alpha  occ. eigenvalues --   -0.38814  -0.38594  -0.38547  -0.38192  -0.38099
 Alpha  occ. eigenvalues --   -0.37973  -0.37884  -0.37695  -0.37625  -0.37293
 Alpha  occ. eigenvalues --   -0.37213  -0.36950  -0.36691  -0.36661  -0.36442
 Alpha  occ. eigenvalues --   -0.36422  -0.36270  -0.36167  -0.35720  -0.35494
 Alpha  occ. eigenvalues --   -0.35356  -0.35213  -0.34995  -0.34909  -0.34777
 Alpha  occ. eigenvalues --   -0.34432  -0.34306  -0.34210  -0.34134  -0.33875
 Alpha  occ. eigenvalues --   -0.33711  -0.33599  -0.33397  -0.33352  -0.33179
 Alpha  occ. eigenvalues --   -0.32987  -0.32839  -0.32690  -0.32595  -0.32544
 Alpha  occ. eigenvalues --   -0.32524  -0.32361  -0.31832  -0.31583  -0.31553
 Alpha  occ. eigenvalues --   -0.31387  -0.31286  -0.31089  -0.30888  -0.30820
 Alpha  occ. eigenvalues --   -0.30677  -0.30652  -0.30166  -0.29980  -0.29754
 Alpha  occ. eigenvalues --   -0.29643  -0.29465  -0.29331  -0.29225  -0.29154
 Alpha  occ. eigenvalues --   -0.28662  -0.28592  -0.28383  -0.27949  -0.27939
 Alpha  occ. eigenvalues --   -0.27701  -0.27372  -0.27036  -0.26549  -0.26234
 Alpha  occ. eigenvalues --   -0.26115  -0.25926  -0.25888  -0.25741  -0.25637
 Alpha  occ. eigenvalues --   -0.24957  -0.24379  -0.23996  -0.23721  -0.23475
 Alpha  occ. eigenvalues --   -0.23381  -0.22317  -0.22226  -0.21912  -0.20840
 Alpha  occ. eigenvalues --   -0.20322  -0.19367  -0.19218  -0.19085  -0.17248
 Alpha  occ. eigenvalues --   -0.15765
 Alpha virt. eigenvalues --   -0.11580  -0.06899  -0.06459  -0.04787  -0.03485
 Alpha virt. eigenvalues --   -0.02077  -0.01633  -0.01214  -0.00773  -0.00179
 Alpha virt. eigenvalues --    0.00902   0.01302   0.02010   0.02329   0.02874

 Mulliken charges:
               1
     1  Mg   0.720348
     2  C    0.030069
     3  C   -0.063190
     4  C   -0.054001
     5  C   -0.093808
     6  N   -0.174406
     7  C   -0.104437
     8  C   -0.036038
     9  C    0.008744
    10  C   -0.012154
    11  C    0.148734
    12  C    0.089304
    13  C    0.172047
    14  C    0.053752
    15  O   -0.175534
    16  O   -0.293324
    17  N   -0.200032
    18  C    0.126342
    19  C   -0.155009
    20  C    0.015157
    21  C    0.060758
    22  C    0.149045
    23  C   -0.036669
    24  O   -0.208525
    25  C    0.124677
    26  N   -0.256514
    27  C    0.028916
    28  C    0.002247
    29  C    0.056615
    30  C    0.022622
    31  C    0.117960
    32  C    0.113442
    33  C    0.057734
    34  N   -0.303067
    35  C    0.142324
    36  C   -0.159728
    37  C    0.029614
    38  C    0.077553
    39  C    0.200365
    40  C   -0.007213
    41  O   -0.104485
    42  C    0.043709
    43  C    0.078653
    44  O   -0.139137
    45  O   -0.271697
    46  C    0.220044
    47  C    0.333187
    48  C   -0.173890
    49  C   -0.130280
    50  C    0.151405
    51  C    0.135493
    52  C    0.035103
    53  C    0.141262
    54  C   -0.072980
    55  C    0.088924
    56  C    0.045984
    57  C    0.097558
    58  C    0.109031
    59  C   -0.100434
    60  C    0.122699
    61  C    0.093753
    62  C    0.038223
    63  C    0.084947
    64  C   -0.078536
    65  C    0.105049
    66  C    0.124217
    67  H   -0.071959
    68  H   -0.041654
    69  H   -0.076202
    70  H   -0.007841
    71  H   -0.020576
    72  H   -0.006418
    73  H   -0.006181
    74  H    0.007919
    75  H   -0.021961
    76  H    0.027949
    77  H   -0.017176
    78  H    0.005202
    79  H    0.023202
    80  H    0.004178
    81  H   -0.018522
    82  H   -0.008765
    83  H    0.033290
    84  H   -0.002340
    85  H   -0.013195
    86  H   -0.022429
    87  H   -0.014178
    88  H    0.000974
    89  H    0.020799
    90  H   -0.012786
    91  H   -0.020565
    92  H   -0.003840
    93  H   -0.018592
    94  H   -0.009064
    95  H   -0.011160
    96  H   -0.008198
    97  H    0.007067
    98  H    0.007241
    99  H   -0.009527
   100  H    0.011570
   101  H    0.008895
   102  H    0.025502
   103  H    0.015070
   104  H   -0.041088
   105  H    0.014700
   106  H   -0.021116
   107  H   -0.024968
   108  H   -0.027526
   109  H   -0.032114
   110  H   -0.017368
   111  H   -0.017321
   112  H   -0.038015
   113  H   -0.027561
   114  H   -0.025392
   115  H   -0.032377
   116  H   -0.016861
   117  H   -0.014942
   118  H   -0.028821
   119  H   -0.028544
   120  H   -0.028557
   121  H   -0.031285
   122  H   -0.032457
   123  H   -0.024758
   124  H   -0.029266
   125  H   -0.010328
   126  H   -0.030498
   127  H   -0.034520
   128  H   -0.028546
   129  H   -0.039641
   130  H   -0.025349
   131  H   -0.021056
   132  H   -0.043160
   133  H   -0.031066
   134  H   -0.041400
   135  H   -0.001405
   136  H   -0.030434
   137  H   -0.023671
   138  H   -0.029634
   139  H   -0.022294
   140  H   -0.009612
 Sum of Mulliken charges =  -0.00000

 Dipole moment (field-independent basis, Debye):
    X=             -1.8649    Y=              4.3986    Z=              0.7083  Tot=              4.8298
 Quadrupole moment (field-independent basis, Debye-Ang):
   XX=           -378.9530   YY=           -431.8898   ZZ=           -406.7505
   XY=             -1.1371   XZ=             18.0511   YZ=              2.6306

 Normal termination of Gaussian 16 at Thu May  5 16:22:25 2022.
