 Gaussian 16, Revision A.03,
 Gaussian 16:  ES64L-G16RevA.03 25-Dec-2016

 -----------------------------------
 #p cam-b3lyp/Def2SVP td=(nstates=5)
 -----------------------------------

 ------------------------------------------------------
 step_951_chromophore_7 TDDFT with cam-b3lyp functional
 ------------------------------------------------------
 Symbolic Z-matrix:
 Charge =  0 Multiplicity = 1

                         Standard orientation:
 ---------------------------------------------------------------------
 Center     Atomic      Atomic             Coordinates (Angstroms)
 Number     Number       Type             X           Y           Z
 ---------------------------------------------------------------------
      1         12           0        6.288809    0.353378    0.122748
      2          6           0        3.711511   -2.108042    0.089212
      3          6           0        3.660934    2.759550   -0.325765
      4          6           0        8.574839    2.881976    0.192837
      5          6           0        8.619184   -1.940804    0.632533
      6          7           0        3.966874    0.331193   -0.187852
      7          6           0        3.177750   -0.804722   -0.035611
      8          6           0        1.679273   -0.518993   -0.207936
      9          6           0        1.715624    1.108496   -0.370951
     10          6           0        3.199212    1.441120   -0.324820
     11          6           0        0.992156    1.643642   -1.646032
     12          6           0        0.808647   -1.207862    0.887211
     13          6           0       -0.565733   -0.589760    1.167931
     14          6           0       -1.668035   -1.552139    1.051070
     15          8           0       -1.810354   -2.632047    1.591781
     16          8           0       -2.601575   -1.092737    0.100642
     17          7           0        6.156856    2.486764   -0.248890
     18          6           0        5.043244    3.192220   -0.305985
     19          6           0        5.432993    4.594474   -0.612473
     20          6           0        6.837060    4.622809   -0.526686
     21          6           0        7.235249    3.270982   -0.162380
     22          6           0        4.416132    5.676471   -1.033478
     23          6           0        7.826904    5.802847   -0.787363
     24          8           0        9.092935    5.718875   -0.612879
     25          6           0        7.186972    7.177681   -1.097276
     26          7           0        8.274100    0.469091    0.310773
     27          6           0        9.026990    1.587301    0.426320
     28          6           0       10.493340    1.387121    0.769935
     29          6           0       10.474389   -0.185670    0.929159
     30          6           0        9.042444   -0.601846    0.605107
     31          6           0       11.530152    2.063662   -0.290057
     32          6           0       10.929387   -0.599508    2.348013
     33          6           0       11.787575   -1.883347    2.273545
     34          7           0        6.206238   -1.604905    0.236186
     35          6           0        7.256685   -2.449593    0.475350
     36          6           0        6.872014   -3.813840    0.440830
     37          6           0        5.437631   -3.751036    0.327249
     38          6           0        5.086873   -2.367366    0.159211
     39          6           0        7.656708   -4.969498    0.464098
     40          6           0        4.202755   -4.588560    0.311033
     41          8           0        3.999580   -5.768623    0.484256
     42          6           0        3.047515   -3.505382    0.210777
     43          6           0        2.361567   -3.888600   -0.992797
     44          8           0        2.729255   -3.720325   -2.112587
     45          8           0        1.225788   -4.596943   -0.618526
     46          6           0        0.197711   -4.654028   -1.619007
     47          6           0       -3.809692   -1.893266    0.015366
     48          6           0       -4.882754   -0.975006   -0.600823
     49          6           0       -6.173901   -1.312865   -0.903604
     50          6           0       -6.611632   -2.721648   -0.928169
     51          6           0       -7.113184   -0.197055   -1.283096
     52          6           0       -7.922898   -0.510319   -2.564789
     53          6           0       -8.681240    0.775523   -2.955687
     54          6           0      -10.147112    0.419963   -3.312658
     55          6           0      -10.724645    1.282497   -4.526877
     56          6           0      -11.059968    0.698835   -1.997303
     57          6           0      -12.079960   -0.394409   -1.554635
     58          6           0      -13.515361    0.022596   -1.693169
     59          6           0      -14.280339   -0.064374   -0.291783
     60          6           0      -15.795908   -0.026359   -0.502578
     61          6           0      -13.964718    1.127627    0.686062
     62          6           0      -13.505991    0.670292    2.127789
     63          6           0      -14.006555    1.553419    3.308686
     64          6           0      -13.001156    1.860496    4.422197
     65          6           0      -13.717529    2.015853    5.837972
     66          6           0      -12.014814    2.945821    4.032651
     67          1           0        2.858383    3.495693   -0.409794
     68          1           0        9.280526    3.714954    0.200239
     69          1           0        9.456770   -2.623537    0.790953
     70          1           0        1.423765   -1.035558   -1.133276
     71          1           0        1.317501    1.496836    0.566362
     72          1           0        1.711982    2.190321   -2.255118
     73          1           0        0.282316    2.423413   -1.370113
     74          1           0        0.603110    0.748279   -2.132178
     75          1           0        1.460013   -1.121558    1.756467
     76          1           0        0.579223   -2.230038    0.584380
     77          1           0       -0.774739    0.201776    0.448263
     78          1           0       -0.590751   -0.050551    2.114517
     79          1           0        4.533281    5.955823   -2.079836
     80          1           0        4.643022    6.488840   -0.342647
     81          1           0        3.346191    5.509653   -0.907456
     82          1           0        7.960633    7.776299   -1.577719
     83          1           0        6.884995    7.605020   -0.141739
     84          1           0        6.415902    7.063180   -1.859991
     85          1           0       10.649753    1.869659    1.734205
     86          1           0       11.044864   -0.632128    0.115287
     87          1           0       12.184256    1.304182   -0.717622
     88          1           0       12.133937    2.714629    0.342332
     89          1           0       11.063023    2.581285   -1.128371
     90          1           0       10.109550   -0.785189    3.041436
     91          1           0       11.506099    0.230630    2.757309
     92          1           0       11.147757   -2.746671    2.086298
     93          1           0       12.298636   -2.039577    3.223149
     94          1           0       12.586028   -1.886718    1.531884
     95          1           0        7.027551   -5.799474    0.144849
     96          1           0        7.787567   -5.316234    1.489220
     97          1           0        8.564586   -4.939873   -0.138876
     98          1           0        2.333960   -3.514344    1.035157
     99          1           0       -0.395289   -3.757444   -1.793001
    100          1           0       -0.543109   -5.400609   -1.333746
    101          1           0        0.639796   -4.867912   -2.593164
    102          1           0       -4.336142   -2.044450    0.958282
    103          1           0       -3.658332   -2.677140   -0.726352
    104          1           0       -4.647078    0.088314   -0.590992
    105          1           0       -6.904517   -3.094026   -1.909343
    106          1           0       -7.433422   -2.898332   -0.235245
    107          1           0       -5.883811   -3.373323   -0.443194
    108          1           0       -6.695598    0.809688   -1.281844
    109          1           0       -7.869488   -0.179359   -0.498200
    110          1           0       -8.602158   -1.314428   -2.283105
    111          1           0       -7.291056   -0.878869   -3.372544
    112          1           0       -8.178755    1.257450   -3.793609
    113          1           0       -8.714785    1.508584   -2.150246
    114          1           0      -10.272521   -0.634594   -3.556216
    115          1           0      -11.247456    2.175546   -4.183068
    116          1           0      -11.536562    0.770378   -5.043650
    117          1           0      -10.021320    1.734419   -5.226727
    118          1           0      -11.546655    1.641134   -2.248244
    119          1           0      -10.469708    0.908188   -1.105267
    120          1           0      -11.827905   -0.583740   -0.510639
    121          1           0      -11.954187   -1.310856   -2.129300
    122          1           0      -14.003640   -0.688256   -2.360335
    123          1           0      -13.560919    1.072593   -1.981462
    124          1           0      -13.961756   -0.988309    0.190900
    125          1           0      -16.377955    0.611043    0.161707
    126          1           0      -16.213693   -1.029242   -0.583856
    127          1           0      -16.054754    0.305222   -1.508419
    128          1           0      -14.784926    1.838269    0.792724
    129          1           0      -13.155356    1.713315    0.249668
    130          1           0      -12.419509    0.643043    2.039415
    131          1           0      -13.857122   -0.309620    2.450688
    132          1           0      -14.777624    0.918553    3.744650
    133          1           0      -14.536434    2.420908    2.915964
    134          1           0      -12.363468    0.977493    4.473649
    135          1           0      -14.795572    2.160647    5.757862
    136          1           0      -13.239819    2.760508    6.474568
    137          1           0      -13.507426    1.160695    6.480368
    138          1           0      -12.107535    3.175469    2.971672
    139          1           0      -10.996685    2.555913    4.054254
    140          1           0      -12.174407    3.848721    4.621692
 ---------------------------------------------------------------------

 SCF Done:  E(RCAM-B3LYP) =  -3007.15850691     A.U. after   17 cycles

 Excitation energies and oscillator strengths:

 Excited State   1:      Singlet-A      1.6907 eV  733.33 nm  f=0.3980  <S**2>=0.000
     245 -> 248       -0.17017
     246 -> 247        0.68829
     245 <- 248       -0.10546
 This state for optimization and/or second-order correction.
 Total Energy, E(TD-HF/TD-DFT) =  -3007.09637493
 Copying the excited state density for this state as the 1-particle RhoCI density.

 Excited State   2:      Singlet-A      2.2451 eV  552.23 nm  f=0.1444  <S**2>=0.000
     245 -> 247        0.64673
     246 -> 248        0.27275

 Excited State   3:      Singlet-A      3.4170 eV  362.84 nm  f=0.0028  <S**2>=0.000
     242 -> 247       -0.26633
     243 -> 247        0.64162

 Excited State   4:      Singlet-A      3.5274 eV  351.49 nm  f=0.0753  <S**2>=0.000
     240 -> 247       -0.16969
     241 -> 247       -0.21703
     242 -> 247        0.47690
     243 -> 247        0.20751
     246 -> 248       -0.32760

 Excited State   5:      Singlet-A      3.5753 eV  346.78 nm  f=0.1158  <S**2>=0.000
     239 -> 247        0.41981
     239 -> 248        0.15473
     239 -> 249        0.35125
     239 -> 250       -0.15733
     240 -> 247       -0.15082
     240 -> 249       -0.12629
     245 -> 247       -0.11115
     246 -> 248        0.26839

 The electronic state is 1-A.
 Alpha  occ. eigenvalues --  -46.87827 -19.24733 -19.23812 -19.20404 -19.19879
 Alpha  occ. eigenvalues --  -19.19878 -19.19362 -14.42107 -14.41912 -14.39768
 Alpha  occ. eigenvalues --  -14.39140 -10.39555 -10.38362 -10.36710 -10.35441
 Alpha  occ. eigenvalues --  -10.31914 -10.31061 -10.30952 -10.30680 -10.30672
 Alpha  occ. eigenvalues --  -10.30601 -10.30446 -10.30256 -10.29444 -10.29208
 Alpha  occ. eigenvalues --  -10.28715 -10.28571 -10.28477 -10.28030 -10.27971
 Alpha  occ. eigenvalues --  -10.27810 -10.27731 -10.27679 -10.27516 -10.27507
 Alpha  occ. eigenvalues --  -10.27495 -10.27424 -10.26872 -10.26827 -10.26790
 Alpha  occ. eigenvalues --  -10.26708 -10.26656 -10.26581 -10.26386 -10.26383
 Alpha  occ. eigenvalues --  -10.25866 -10.25777 -10.25764 -10.25705 -10.25528
 Alpha  occ. eigenvalues --  -10.25500 -10.25330 -10.25283 -10.25174 -10.25039
 Alpha  occ. eigenvalues --  -10.25011 -10.25006 -10.24994 -10.24942 -10.24775
 Alpha  occ. eigenvalues --  -10.24743 -10.24706 -10.24667 -10.24489 -10.24185
 Alpha  occ. eigenvalues --  -10.23936  -3.16642  -1.91536  -1.91090  -1.90970
 Alpha  occ. eigenvalues --   -1.16571  -1.16159  -1.10485  -1.08648  -1.07968
 Alpha  occ. eigenvalues --   -1.07644  -1.05213  -1.04328  -1.03414  -1.02373
 Alpha  occ. eigenvalues --   -0.92196  -0.90663  -0.89996  -0.89378  -0.88860
 Alpha  occ. eigenvalues --   -0.88253  -0.88215  -0.87612  -0.87228  -0.87118
 Alpha  occ. eigenvalues --   -0.86981  -0.85717  -0.84269  -0.83731  -0.83122
 Alpha  occ. eigenvalues --   -0.82251  -0.81694  -0.81249  -0.80681  -0.80286
 Alpha  occ. eigenvalues --   -0.79842  -0.78519  -0.78282  -0.76974  -0.76074
 Alpha  occ. eigenvalues --   -0.75790  -0.75777  -0.75429  -0.74375  -0.74262
 Alpha  occ. eigenvalues --   -0.73212  -0.72535  -0.71731  -0.70578  -0.69242
 Alpha  occ. eigenvalues --   -0.68429  -0.67689  -0.66986  -0.66523  -0.65967
 Alpha  occ. eigenvalues --   -0.65444  -0.65207  -0.65065  -0.64132  -0.63945
 Alpha  occ. eigenvalues --   -0.63551  -0.62740  -0.62558  -0.61781  -0.60496
 Alpha  occ. eigenvalues --   -0.59966  -0.59611  -0.59159  -0.58926  -0.58426
 Alpha  occ. eigenvalues --   -0.58078  -0.57333  -0.56422  -0.56216  -0.55666
 Alpha  occ. eigenvalues --   -0.55099  -0.54636  -0.54510  -0.54291  -0.53931
 Alpha  occ. eigenvalues --   -0.53643  -0.53537  -0.53372  -0.53218  -0.52900
 Alpha  occ. eigenvalues --   -0.52682  -0.51991  -0.51867  -0.51832  -0.51674
 Alpha  occ. eigenvalues --   -0.51301  -0.51245  -0.50995  -0.50667  -0.50450
 Alpha  occ. eigenvalues --   -0.50321  -0.50278  -0.50093  -0.49927  -0.49840
 Alpha  occ. eigenvalues --   -0.49723  -0.49356  -0.49291  -0.48989  -0.48868
 Alpha  occ. eigenvalues --   -0.48802  -0.48527  -0.48429  -0.47993  -0.47821
 Alpha  occ. eigenvalues --   -0.47497  -0.47274  -0.47078  -0.46831  -0.46632
 Alpha  occ. eigenvalues --   -0.46362  -0.46198  -0.45962  -0.45866  -0.45767
 Alpha  occ. eigenvalues --   -0.45546  -0.45390  -0.45249  -0.45028  -0.44896
 Alpha  occ. eigenvalues --   -0.44728  -0.44584  -0.44491  -0.44314  -0.44270
 Alpha  occ. eigenvalues --   -0.44140  -0.43991  -0.43419  -0.43249  -0.43104
 Alpha  occ. eigenvalues --   -0.42800  -0.42675  -0.42391  -0.42352  -0.42127
 Alpha  occ. eigenvalues --   -0.41961  -0.41935  -0.41742  -0.41662  -0.41487
 Alpha  occ. eigenvalues --   -0.40868  -0.40855  -0.40433  -0.40372  -0.40287
 Alpha  occ. eigenvalues --   -0.39779  -0.39732  -0.39396  -0.38970  -0.38829
 Alpha  occ. eigenvalues --   -0.38629  -0.38324  -0.37907  -0.37326  -0.37187
 Alpha  occ. eigenvalues --   -0.37105  -0.36895  -0.36841  -0.36607  -0.36413
 Alpha  occ. eigenvalues --   -0.35704  -0.35672  -0.34845  -0.34716  -0.34474
 Alpha  occ. eigenvalues --   -0.34151  -0.34054  -0.32765  -0.31603  -0.31298
 Alpha  occ. eigenvalues --   -0.30737  -0.30449  -0.29292  -0.28884  -0.23934
 Alpha  occ. eigenvalues --   -0.21044
 Alpha virt. eigenvalues --   -0.08723  -0.01333  -0.00151   0.02126   0.03474
 Alpha virt. eigenvalues --    0.04259   0.05386   0.05734   0.06213   0.06824
 Alpha virt. eigenvalues --    0.07460   0.08310   0.08471   0.08572   0.09311

 Mulliken charges:
               1
     1  Mg   0.856050
     2  C    0.005714
     3  C   -0.077931
     4  C   -0.071895
     5  C   -0.097413
     6  N   -0.243336
     7  C   -0.063405
     8  C   -0.069501
     9  C   -0.052058
    10  C    0.013598
    11  C    0.087359
    12  C    0.031391
    13  C    0.097017
    14  C    0.138410
    15  O   -0.214096
    16  O   -0.358804
    17  N   -0.288641
    18  C    0.140643
    19  C   -0.159676
    20  C   -0.053532
    21  C    0.085120
    22  C    0.091658
    23  C    0.045727
    24  O   -0.248591
    25  C    0.044536
    26  N   -0.338415
    27  C    0.052857
    28  C   -0.048227
    29  C   -0.007191
    30  C    0.044627
    31  C    0.060645
    32  C    0.054065
    33  C   -0.002909
    34  N   -0.397196
    35  C    0.146536
    36  C   -0.155471
    37  C   -0.045621
    38  C    0.111756
    39  C    0.131993
    40  C    0.090116
    41  O   -0.143423
    42  C   -0.038412
    43  C    0.168834
    44  O   -0.174097
    45  O   -0.333818
    46  C    0.179400
    47  C    0.296957
    48  C   -0.186358
    49  C   -0.154262
    50  C    0.085304
    51  C    0.079386
    52  C   -0.017884
    53  C    0.085161
    54  C   -0.130634
    55  C    0.034153
    56  C    0.000976
    57  C    0.041116
    58  C    0.055866
    59  C   -0.152467
    60  C    0.060631
    61  C    0.041630
    62  C   -0.009946
    63  C    0.029056
    64  C   -0.138968
    65  C    0.043657
    66  C    0.062557
    67  H   -0.036202
    68  H    0.001355
    69  H   -0.041275
    70  H    0.022854
    71  H    0.012936
    72  H    0.020290
    73  H    0.017671
    74  H    0.032817
    75  H    0.011744
    76  H    0.052129
    77  H    0.019645
    78  H    0.038815
    79  H    0.048631
    80  H    0.029492
    81  H    0.012148
    82  H    0.027225
    83  H    0.060775
    84  H    0.026062
    85  H    0.021520
    86  H    0.012614
    87  H    0.010759
    88  H    0.024280
    89  H    0.044960
    90  H    0.017453
    91  H    0.007135
    92  H    0.016907
    93  H    0.007569
    94  H    0.013706
    95  H    0.017869
    96  H    0.019979
    97  H    0.031316
    98  H    0.052086
    99  H    0.008981
   100  H    0.035895
   101  H    0.035942
   102  H    0.053067
   103  H    0.039779
   104  H   -0.006334
   105  H    0.038609
   106  H    0.005743
   107  H    0.002135
   108  H    0.002825
   109  H   -0.004308
   110  H    0.007722
   111  H    0.010959
   112  H   -0.007377
   113  H    0.000587
   114  H    0.004826
   115  H   -0.009029
   116  H    0.007647
   117  H    0.009330
   118  H   -0.003500
   119  H   -0.002911
   120  H   -0.001217
   121  H   -0.002943
   122  H   -0.002219
   123  H    0.001969
   124  H    0.001916
   125  H    0.013790
   126  H   -0.004572
   127  H   -0.008712
   128  H   -0.001037
   129  H   -0.013188
   130  H   -0.000876
   131  H    0.006216
   132  H   -0.012878
   133  H   -0.003564
   134  H   -0.008092
   135  H    0.021844
   136  H   -0.004989
   137  H    0.001238
   138  H   -0.005482
   139  H    0.002408
   140  H    0.014211
 Sum of Mulliken charges =  -0.00000

 Dipole moment (field-independent basis, Debye):
    X=             -2.1302    Y=              5.6857    Z=              0.5411  Tot=              6.0957
 Quadrupole moment (field-independent basis, Debye-Ang):
   XX=           -377.8139   YY=           -427.2388   ZZ=           -406.7113
   XY=              5.4609   XZ=             17.8207   YZ=              1.8763

 Normal termination of Gaussian 16 at Thu May  5 14:58:28 2022.
