 Gaussian 16, Revision A.03,
 Gaussian 16:  ES64L-G16RevA.03 25-Dec-2016

 ---------------------------------
 #p PBE1PBE/Def2SVP td=(nstates=5)
 ---------------------------------

 ----------------------------------------------------
 step_951_chromophore_7 TDDFT with PBE1PBE functional
 ----------------------------------------------------
 Symbolic Z-matrix:
 Charge =  0 Multiplicity = 1

                         Standard orientation:
 ---------------------------------------------------------------------
 Center     Atomic      Atomic             Coordinates (Angstroms)
 Number     Number       Type             X           Y           Z
 ---------------------------------------------------------------------
      1         12           0        6.288809    0.353378    0.122748
      2          6           0        3.711511   -2.108042    0.089212
      3          6           0        3.660934    2.759550   -0.325765
      4          6           0        8.574839    2.881976    0.192837
      5          6           0        8.619184   -1.940804    0.632533
      6          7           0        3.966874    0.331193   -0.187852
      7          6           0        3.177750   -0.804722   -0.035611
      8          6           0        1.679273   -0.518993   -0.207936
      9          6           0        1.715624    1.108496   -0.370951
     10          6           0        3.199212    1.441120   -0.324820
     11          6           0        0.992156    1.643642   -1.646032
     12          6           0        0.808647   -1.207862    0.887211
     13          6           0       -0.565733   -0.589760    1.167931
     14          6           0       -1.668035   -1.552139    1.051070
     15          8           0       -1.810354   -2.632047    1.591781
     16          8           0       -2.601575   -1.092737    0.100642
     17          7           0        6.156856    2.486764   -0.248890
     18          6           0        5.043244    3.192220   -0.305985
     19          6           0        5.432993    4.594474   -0.612473
     20          6           0        6.837060    4.622809   -0.526686
     21          6           0        7.235249    3.270982   -0.162380
     22          6           0        4.416132    5.676471   -1.033478
     23          6           0        7.826904    5.802847   -0.787363
     24          8           0        9.092935    5.718875   -0.612879
     25          6           0        7.186972    7.177681   -1.097276
     26          7           0        8.274100    0.469091    0.310773
     27          6           0        9.026990    1.587301    0.426320
     28          6           0       10.493340    1.387121    0.769935
     29          6           0       10.474389   -0.185670    0.929159
     30          6           0        9.042444   -0.601846    0.605107
     31          6           0       11.530152    2.063662   -0.290057
     32          6           0       10.929387   -0.599508    2.348013
     33          6           0       11.787575   -1.883347    2.273545
     34          7           0        6.206238   -1.604905    0.236186
     35          6           0        7.256685   -2.449593    0.475350
     36          6           0        6.872014   -3.813840    0.440830
     37          6           0        5.437631   -3.751036    0.327249
     38          6           0        5.086873   -2.367366    0.159211
     39          6           0        7.656708   -4.969498    0.464098
     40          6           0        4.202755   -4.588560    0.311033
     41          8           0        3.999580   -5.768623    0.484256
     42          6           0        3.047515   -3.505382    0.210777
     43          6           0        2.361567   -3.888600   -0.992797
     44          8           0        2.729255   -3.720325   -2.112587
     45          8           0        1.225788   -4.596943   -0.618526
     46          6           0        0.197711   -4.654028   -1.619007
     47          6           0       -3.809692   -1.893266    0.015366
     48          6           0       -4.882754   -0.975006   -0.600823
     49          6           0       -6.173901   -1.312865   -0.903604
     50          6           0       -6.611632   -2.721648   -0.928169
     51          6           0       -7.113184   -0.197055   -1.283096
     52          6           0       -7.922898   -0.510319   -2.564789
     53          6           0       -8.681240    0.775523   -2.955687
     54          6           0      -10.147112    0.419963   -3.312658
     55          6           0      -10.724645    1.282497   -4.526877
     56          6           0      -11.059968    0.698835   -1.997303
     57          6           0      -12.079960   -0.394409   -1.554635
     58          6           0      -13.515361    0.022596   -1.693169
     59          6           0      -14.280339   -0.064374   -0.291783
     60          6           0      -15.795908   -0.026359   -0.502578
     61          6           0      -13.964718    1.127627    0.686062
     62          6           0      -13.505991    0.670292    2.127789
     63          6           0      -14.006555    1.553419    3.308686
     64          6           0      -13.001156    1.860496    4.422197
     65          6           0      -13.717529    2.015853    5.837972
     66          6           0      -12.014814    2.945821    4.032651
     67          1           0        2.858383    3.495693   -0.409794
     68          1           0        9.280526    3.714954    0.200239
     69          1           0        9.456770   -2.623537    0.790953
     70          1           0        1.423765   -1.035558   -1.133276
     71          1           0        1.317501    1.496836    0.566362
     72          1           0        1.711982    2.190321   -2.255118
     73          1           0        0.282316    2.423413   -1.370113
     74          1           0        0.603110    0.748279   -2.132178
     75          1           0        1.460013   -1.121558    1.756467
     76          1           0        0.579223   -2.230038    0.584380
     77          1           0       -0.774739    0.201776    0.448263
     78          1           0       -0.590751   -0.050551    2.114517
     79          1           0        4.533281    5.955823   -2.079836
     80          1           0        4.643022    6.488840   -0.342647
     81          1           0        3.346191    5.509653   -0.907456
     82          1           0        7.960633    7.776299   -1.577719
     83          1           0        6.884995    7.605020   -0.141739
     84          1           0        6.415902    7.063180   -1.859991
     85          1           0       10.649753    1.869659    1.734205
     86          1           0       11.044864   -0.632128    0.115287
     87          1           0       12.184256    1.304182   -0.717622
     88          1           0       12.133937    2.714629    0.342332
     89          1           0       11.063023    2.581285   -1.128371
     90          1           0       10.109550   -0.785189    3.041436
     91          1           0       11.506099    0.230630    2.757309
     92          1           0       11.147757   -2.746671    2.086298
     93          1           0       12.298636   -2.039577    3.223149
     94          1           0       12.586028   -1.886718    1.531884
     95          1           0        7.027551   -5.799474    0.144849
     96          1           0        7.787567   -5.316234    1.489220
     97          1           0        8.564586   -4.939873   -0.138876
     98          1           0        2.333960   -3.514344    1.035157
     99          1           0       -0.395289   -3.757444   -1.793001
    100          1           0       -0.543109   -5.400609   -1.333746
    101          1           0        0.639796   -4.867912   -2.593164
    102          1           0       -4.336142   -2.044450    0.958282
    103          1           0       -3.658332   -2.677140   -0.726352
    104          1           0       -4.647078    0.088314   -0.590992
    105          1           0       -6.904517   -3.094026   -1.909343
    106          1           0       -7.433422   -2.898332   -0.235245
    107          1           0       -5.883811   -3.373323   -0.443194
    108          1           0       -6.695598    0.809688   -1.281844
    109          1           0       -7.869488   -0.179359   -0.498200
    110          1           0       -8.602158   -1.314428   -2.283105
    111          1           0       -7.291056   -0.878869   -3.372544
    112          1           0       -8.178755    1.257450   -3.793609
    113          1           0       -8.714785    1.508584   -2.150246
    114          1           0      -10.272521   -0.634594   -3.556216
    115          1           0      -11.247456    2.175546   -4.183068
    116          1           0      -11.536562    0.770378   -5.043650
    117          1           0      -10.021320    1.734419   -5.226727
    118          1           0      -11.546655    1.641134   -2.248244
    119          1           0      -10.469708    0.908188   -1.105267
    120          1           0      -11.827905   -0.583740   -0.510639
    121          1           0      -11.954187   -1.310856   -2.129300
    122          1           0      -14.003640   -0.688256   -2.360335
    123          1           0      -13.560919    1.072593   -1.981462
    124          1           0      -13.961756   -0.988309    0.190900
    125          1           0      -16.377955    0.611043    0.161707
    126          1           0      -16.213693   -1.029242   -0.583856
    127          1           0      -16.054754    0.305222   -1.508419
    128          1           0      -14.784926    1.838269    0.792724
    129          1           0      -13.155356    1.713315    0.249668
    130          1           0      -12.419509    0.643043    2.039415
    131          1           0      -13.857122   -0.309620    2.450688
    132          1           0      -14.777624    0.918553    3.744650
    133          1           0      -14.536434    2.420908    2.915964
    134          1           0      -12.363468    0.977493    4.473649
    135          1           0      -14.795572    2.160647    5.757862
    136          1           0      -13.239819    2.760508    6.474568
    137          1           0      -13.507426    1.160695    6.480368
    138          1           0      -12.107535    3.175469    2.971672
    139          1           0      -10.996685    2.555913    4.054254
    140          1           0      -12.174407    3.848721    4.621692
 ---------------------------------------------------------------------

 SCF Done:  E(RPBE1PBE) =  -3005.34720450     A.U. after   15 cycles

 Excitation energies and oscillator strengths:

 Excited State   1:      Singlet-A      1.8403 eV  673.71 nm  f=0.3868  <S**2>=0.000
     245 -> 248        0.15887
     246 -> 247        0.69547
     246 <- 247       -0.11235
 This state for optimization and/or second-order correction.
 Total Energy, E(TD-HF/TD-DFT) =  -3005.27957367
 Copying the excited state density for this state as the 1-particle RhoCI density.

 Excited State   2:      Singlet-A      2.2530 eV  550.30 nm  f=0.1371  <S**2>=0.000
     245 -> 247        0.65634
     246 -> 248       -0.24434

 Excited State   3:      Singlet-A      3.0515 eV  406.30 nm  f=0.0032  <S**2>=0.000
     242 -> 247       -0.20219
     243 -> 247        0.66798

 Excited State   4:      Singlet-A      3.1322 eV  395.83 nm  f=0.0016  <S**2>=0.000
     241 -> 247       -0.37684
     242 -> 247        0.53553
     242 -> 249        0.12157
     243 -> 247        0.15414

 Excited State   5:      Singlet-A      3.1497 eV  393.64 nm  f=0.0042  <S**2>=0.000
     240 -> 247        0.46766
     240 -> 248       -0.11843
     240 -> 249       -0.16050
     241 -> 247        0.36414
     242 -> 247        0.27690
     243 -> 247        0.10969

 The electronic state is 1-A.
 Alpha  occ. eigenvalues --  -46.91254 -19.25464 -19.24475 -19.20670 -19.20066
 Alpha  occ. eigenvalues --  -19.19981 -19.19740 -14.41617 -14.41477 -14.39290
 Alpha  occ. eigenvalues --  -14.38931 -10.36590 -10.35364 -10.33736 -10.32758
 Alpha  occ. eigenvalues --  -10.29359 -10.28968 -10.28535 -10.28331 -10.28252
 Alpha  occ. eigenvalues --  -10.28151 -10.27820 -10.27719 -10.27439 -10.26657
 Alpha  occ. eigenvalues --  -10.26495 -10.26477 -10.26349 -10.25878 -10.25854
 Alpha  occ. eigenvalues --  -10.25329 -10.25326 -10.25312 -10.25249 -10.25077
 Alpha  occ. eigenvalues --  -10.25025 -10.25009 -10.24744 -10.24608 -10.24346
 Alpha  occ. eigenvalues --  -10.24346 -10.24144 -10.24045 -10.24007 -10.23890
 Alpha  occ. eigenvalues --  -10.23501 -10.23426 -10.23360 -10.23252 -10.23192
 Alpha  occ. eigenvalues --  -10.23062 -10.23033 -10.22886 -10.22870 -10.22665
 Alpha  occ. eigenvalues --  -10.22593 -10.22582 -10.22558 -10.22528 -10.22338
 Alpha  occ. eigenvalues --  -10.22204 -10.22145 -10.22138 -10.22037 -10.21535
 Alpha  occ. eigenvalues --  -10.21330  -3.13642  -1.86479  -1.86011  -1.85895
 Alpha  occ. eigenvalues --   -1.11325  -1.10969  -1.05396  -1.03491  -1.02854
 Alpha  occ. eigenvalues --   -1.02184  -0.99791  -0.98987  -0.98199  -0.97042
 Alpha  occ. eigenvalues --   -0.86619  -0.84819  -0.84194  -0.83464  -0.83178
 Alpha  occ. eigenvalues --   -0.82552  -0.82352  -0.82052  -0.81430  -0.81344
 Alpha  occ. eigenvalues --   -0.81104  -0.79980  -0.78475  -0.78056  -0.77418
 Alpha  occ. eigenvalues --   -0.76460  -0.75892  -0.75368  -0.74951  -0.74565
 Alpha  occ. eigenvalues --   -0.74079  -0.72750  -0.72607  -0.71301  -0.70274
 Alpha  occ. eigenvalues --   -0.70118  -0.69863  -0.69780  -0.68515  -0.68428
 Alpha  occ. eigenvalues --   -0.67625  -0.66979  -0.66119  -0.64940  -0.63632
 Alpha  occ. eigenvalues --   -0.62948  -0.61960  -0.61315  -0.60801  -0.60456
 Alpha  occ. eigenvalues --   -0.59871  -0.59714  -0.59384  -0.58693  -0.58147
 Alpha  occ. eigenvalues --   -0.57659  -0.57248  -0.56755  -0.56389  -0.54978
 Alpha  occ. eigenvalues --   -0.54355  -0.54213  -0.53763  -0.53353  -0.52963
 Alpha  occ. eigenvalues --   -0.52617  -0.51917  -0.50934  -0.50691  -0.50237
 Alpha  occ. eigenvalues --   -0.49689  -0.49235  -0.49068  -0.48884  -0.48319
 Alpha  occ. eigenvalues --   -0.48175  -0.48035  -0.47835  -0.47739  -0.47245
 Alpha  occ. eigenvalues --   -0.47169  -0.46558  -0.46467  -0.46311  -0.46278
 Alpha  occ. eigenvalues --   -0.45945  -0.45818  -0.45503  -0.45075  -0.44985
 Alpha  occ. eigenvalues --   -0.44967  -0.44838  -0.44689  -0.44510  -0.44426
 Alpha  occ. eigenvalues --   -0.44380  -0.43996  -0.43874  -0.43536  -0.43468
 Alpha  occ. eigenvalues --   -0.43392  -0.43144  -0.43006  -0.42577  -0.42467
 Alpha  occ. eigenvalues --   -0.42141  -0.41880  -0.41739  -0.41566  -0.41411
 Alpha  occ. eigenvalues --   -0.41111  -0.40966  -0.40665  -0.40564  -0.40482
 Alpha  occ. eigenvalues --   -0.40315  -0.40003  -0.39971  -0.39780  -0.39696
 Alpha  occ. eigenvalues --   -0.39465  -0.39313  -0.39245  -0.39132  -0.38997
 Alpha  occ. eigenvalues --   -0.38896  -0.38807  -0.38282  -0.38184  -0.37804
 Alpha  occ. eigenvalues --   -0.37551  -0.37368  -0.37245  -0.37172  -0.36889
 Alpha  occ. eigenvalues --   -0.36787  -0.36693  -0.36551  -0.36470  -0.36352
 Alpha  occ. eigenvalues --   -0.35768  -0.35631  -0.35317  -0.35186  -0.35045
 Alpha  occ. eigenvalues --   -0.34687  -0.34557  -0.34192  -0.33984  -0.33630
 Alpha  occ. eigenvalues --   -0.33383  -0.33117  -0.32942  -0.32217  -0.32169
 Alpha  occ. eigenvalues --   -0.32061  -0.31932  -0.31695  -0.31547  -0.31354
 Alpha  occ. eigenvalues --   -0.30618  -0.30556  -0.29787  -0.29659  -0.29283
 Alpha  occ. eigenvalues --   -0.29205  -0.29048  -0.28418  -0.26957  -0.26234
 Alpha  occ. eigenvalues --   -0.25915  -0.25822  -0.25131  -0.24220  -0.20904
 Alpha  occ. eigenvalues --   -0.18684
 Alpha virt. eigenvalues --   -0.11183  -0.04952  -0.04330  -0.02281  -0.00321
 Alpha virt. eigenvalues --    0.00676   0.01080   0.01761   0.01827   0.02731
 Alpha virt. eigenvalues --    0.03608   0.04350   0.04903   0.05202   0.05796

 Mulliken charges:
               1
     1  Mg   1.010758
     2  C   -0.003820
     3  C   -0.065146
     4  C   -0.051163
     5  C   -0.080451
     6  N   -0.349532
     7  C    0.004919
     8  C   -0.120927
     9  C   -0.136121
    10  C    0.055750
    11  C    0.027199
    12  C   -0.034286
    13  C    0.024875
    14  C    0.204373
    15  O   -0.247944
    16  O   -0.390898
    17  N   -0.408371
    18  C    0.165514
    19  C   -0.189142
    20  C   -0.093935
    21  C    0.110373
    22  C    0.029782
    23  C    0.092162
    24  O   -0.285049
    25  C   -0.029937
    26  N   -0.453754
    27  C    0.079170
    28  C   -0.112440
    29  C   -0.090195
    30  C    0.085053
    31  C    0.000929
    32  C   -0.007996
    33  C   -0.076939
    34  N   -0.532305
    35  C    0.171760
    36  C   -0.179949
    37  C   -0.084458
    38  C    0.168365
    39  C    0.073729
    40  C    0.177837
    41  O   -0.189068
    42  C   -0.150425
    43  C    0.265214
    44  O   -0.211637
    45  O   -0.366669
    46  C    0.122977
    47  C    0.251677
    48  C   -0.188509
    49  C   -0.203073
    50  C    0.024516
    51  C    0.013408
    52  C   -0.078660
    53  C    0.030659
    54  C   -0.219223
    55  C   -0.022845
    56  C   -0.045075
    57  C   -0.021009
    58  C   -0.003214
    59  C   -0.238288
    60  C    0.002423
    61  C   -0.011538
    62  C   -0.067999
    63  C   -0.030586
    64  C   -0.230152
    65  C   -0.018651
    66  C    0.002666
    67  H   -0.003298
    68  H    0.033597
    69  H   -0.005193
    70  H    0.062391
    71  H    0.051376
    72  H    0.048573
    73  H    0.044247
    74  H    0.059319
    75  H    0.045771
    76  H    0.090291
    77  H    0.055353
    78  H    0.070299
    79  H    0.074243
    80  H    0.057600
    81  H    0.037839
    82  H    0.054280
    83  H    0.086474
    84  H    0.052969
    85  H    0.057802
    86  H    0.049772
    87  H    0.038188
    88  H    0.051215
    89  H    0.071380
    90  H    0.049872
    91  H    0.040917
    92  H    0.044580
    93  H    0.036957
    94  H    0.041598
    95  H    0.047869
    96  H    0.050445
    97  H    0.057946
    98  H    0.087579
    99  H    0.031745
   100  H    0.057807
   101  H    0.057697
   102  H    0.080337
   103  H    0.066564
   104  H    0.023827
   105  H    0.064683
   106  H    0.034128
   107  H    0.029612
   108  H    0.033142
   109  H    0.032388
   110  H    0.040249
   111  H    0.043712
   112  H    0.025750
   113  H    0.032273
   114  H    0.041680
   115  H    0.017611
   116  H    0.035709
   117  H    0.036014
   118  H    0.027060
   119  H    0.027585
   120  H    0.032301
   121  H    0.029100
   122  H    0.031034
   123  H    0.034596
   124  H    0.038903
   125  H    0.040269
   126  H    0.023909
   127  H    0.018988
   128  H    0.029985
   129  H    0.021463
   130  H    0.031098
   131  H    0.037580
   132  H    0.021502
   133  H    0.028446
   134  H    0.031149
   135  H    0.048110
   136  H    0.022457
   137  H    0.028962
   138  H    0.023112
   139  H    0.029542
   140  H    0.040964
 Sum of Mulliken charges =  -0.00000

 Dipole moment (field-independent basis, Debye):
    X=             -2.0464    Y=              5.1756    Z=              0.6405  Tot=              5.6022
 Quadrupole moment (field-independent basis, Debye-Ang):
   XX=           -370.6846   YY=           -425.0651   ZZ=           -404.4007
   XY=              1.7190   XZ=             19.1615   YZ=              1.7471

 Normal termination of Gaussian 16 at Thu May  5 15:23:32 2022.
