 Gaussian 16, Revision A.03,
 Gaussian 16:  ES64L-G16RevA.03 25-Dec-2016

 --------------------------------
 #p wB97XD/Def2SVP td=(nstates=5)
 --------------------------------

 ---------------------------------------------------
 step_951_chromophore_7 TDDFT with wB97XD functional
 ---------------------------------------------------
 Symbolic Z-matrix:
 Charge =  0 Multiplicity = 1

                         Standard orientation:
 ---------------------------------------------------------------------
 Center     Atomic      Atomic             Coordinates (Angstroms)
 Number     Number       Type             X           Y           Z
 ---------------------------------------------------------------------
      1         12           0        6.288809    0.353378    0.122748
      2          6           0        3.711511   -2.108042    0.089212
      3          6           0        3.660934    2.759550   -0.325765
      4          6           0        8.574839    2.881976    0.192837
      5          6           0        8.619184   -1.940804    0.632533
      6          7           0        3.966874    0.331193   -0.187852
      7          6           0        3.177750   -0.804722   -0.035611
      8          6           0        1.679273   -0.518993   -0.207936
      9          6           0        1.715624    1.108496   -0.370951
     10          6           0        3.199212    1.441120   -0.324820
     11          6           0        0.992156    1.643642   -1.646032
     12          6           0        0.808647   -1.207862    0.887211
     13          6           0       -0.565733   -0.589760    1.167931
     14          6           0       -1.668035   -1.552139    1.051070
     15          8           0       -1.810354   -2.632047    1.591781
     16          8           0       -2.601575   -1.092737    0.100642
     17          7           0        6.156856    2.486764   -0.248890
     18          6           0        5.043244    3.192220   -0.305985
     19          6           0        5.432993    4.594474   -0.612473
     20          6           0        6.837060    4.622809   -0.526686
     21          6           0        7.235249    3.270982   -0.162380
     22          6           0        4.416132    5.676471   -1.033478
     23          6           0        7.826904    5.802847   -0.787363
     24          8           0        9.092935    5.718875   -0.612879
     25          6           0        7.186972    7.177681   -1.097276
     26          7           0        8.274100    0.469091    0.310773
     27          6           0        9.026990    1.587301    0.426320
     28          6           0       10.493340    1.387121    0.769935
     29          6           0       10.474389   -0.185670    0.929159
     30          6           0        9.042444   -0.601846    0.605107
     31          6           0       11.530152    2.063662   -0.290057
     32          6           0       10.929387   -0.599508    2.348013
     33          6           0       11.787575   -1.883347    2.273545
     34          7           0        6.206238   -1.604905    0.236186
     35          6           0        7.256685   -2.449593    0.475350
     36          6           0        6.872014   -3.813840    0.440830
     37          6           0        5.437631   -3.751036    0.327249
     38          6           0        5.086873   -2.367366    0.159211
     39          6           0        7.656708   -4.969498    0.464098
     40          6           0        4.202755   -4.588560    0.311033
     41          8           0        3.999580   -5.768623    0.484256
     42          6           0        3.047515   -3.505382    0.210777
     43          6           0        2.361567   -3.888600   -0.992797
     44          8           0        2.729255   -3.720325   -2.112587
     45          8           0        1.225788   -4.596943   -0.618526
     46          6           0        0.197711   -4.654028   -1.619007
     47          6           0       -3.809692   -1.893266    0.015366
     48          6           0       -4.882754   -0.975006   -0.600823
     49          6           0       -6.173901   -1.312865   -0.903604
     50          6           0       -6.611632   -2.721648   -0.928169
     51          6           0       -7.113184   -0.197055   -1.283096
     52          6           0       -7.922898   -0.510319   -2.564789
     53          6           0       -8.681240    0.775523   -2.955687
     54          6           0      -10.147112    0.419963   -3.312658
     55          6           0      -10.724645    1.282497   -4.526877
     56          6           0      -11.059968    0.698835   -1.997303
     57          6           0      -12.079960   -0.394409   -1.554635
     58          6           0      -13.515361    0.022596   -1.693169
     59          6           0      -14.280339   -0.064374   -0.291783
     60          6           0      -15.795908   -0.026359   -0.502578
     61          6           0      -13.964718    1.127627    0.686062
     62          6           0      -13.505991    0.670292    2.127789
     63          6           0      -14.006555    1.553419    3.308686
     64          6           0      -13.001156    1.860496    4.422197
     65          6           0      -13.717529    2.015853    5.837972
     66          6           0      -12.014814    2.945821    4.032651
     67          1           0        2.858383    3.495693   -0.409794
     68          1           0        9.280526    3.714954    0.200239
     69          1           0        9.456770   -2.623537    0.790953
     70          1           0        1.423765   -1.035558   -1.133276
     71          1           0        1.317501    1.496836    0.566362
     72          1           0        1.711982    2.190321   -2.255118
     73          1           0        0.282316    2.423413   -1.370113
     74          1           0        0.603110    0.748279   -2.132178
     75          1           0        1.460013   -1.121558    1.756467
     76          1           0        0.579223   -2.230038    0.584380
     77          1           0       -0.774739    0.201776    0.448263
     78          1           0       -0.590751   -0.050551    2.114517
     79          1           0        4.533281    5.955823   -2.079836
     80          1           0        4.643022    6.488840   -0.342647
     81          1           0        3.346191    5.509653   -0.907456
     82          1           0        7.960633    7.776299   -1.577719
     83          1           0        6.884995    7.605020   -0.141739
     84          1           0        6.415902    7.063180   -1.859991
     85          1           0       10.649753    1.869659    1.734205
     86          1           0       11.044864   -0.632128    0.115287
     87          1           0       12.184256    1.304182   -0.717622
     88          1           0       12.133937    2.714629    0.342332
     89          1           0       11.063023    2.581285   -1.128371
     90          1           0       10.109550   -0.785189    3.041436
     91          1           0       11.506099    0.230630    2.757309
     92          1           0       11.147757   -2.746671    2.086298
     93          1           0       12.298636   -2.039577    3.223149
     94          1           0       12.586028   -1.886718    1.531884
     95          1           0        7.027551   -5.799474    0.144849
     96          1           0        7.787567   -5.316234    1.489220
     97          1           0        8.564586   -4.939873   -0.138876
     98          1           0        2.333960   -3.514344    1.035157
     99          1           0       -0.395289   -3.757444   -1.793001
    100          1           0       -0.543109   -5.400609   -1.333746
    101          1           0        0.639796   -4.867912   -2.593164
    102          1           0       -4.336142   -2.044450    0.958282
    103          1           0       -3.658332   -2.677140   -0.726352
    104          1           0       -4.647078    0.088314   -0.590992
    105          1           0       -6.904517   -3.094026   -1.909343
    106          1           0       -7.433422   -2.898332   -0.235245
    107          1           0       -5.883811   -3.373323   -0.443194
    108          1           0       -6.695598    0.809688   -1.281844
    109          1           0       -7.869488   -0.179359   -0.498200
    110          1           0       -8.602158   -1.314428   -2.283105
    111          1           0       -7.291056   -0.878869   -3.372544
    112          1           0       -8.178755    1.257450   -3.793609
    113          1           0       -8.714785    1.508584   -2.150246
    114          1           0      -10.272521   -0.634594   -3.556216
    115          1           0      -11.247456    2.175546   -4.183068
    116          1           0      -11.536562    0.770378   -5.043650
    117          1           0      -10.021320    1.734419   -5.226727
    118          1           0      -11.546655    1.641134   -2.248244
    119          1           0      -10.469708    0.908188   -1.105267
    120          1           0      -11.827905   -0.583740   -0.510639
    121          1           0      -11.954187   -1.310856   -2.129300
    122          1           0      -14.003640   -0.688256   -2.360335
    123          1           0      -13.560919    1.072593   -1.981462
    124          1           0      -13.961756   -0.988309    0.190900
    125          1           0      -16.377955    0.611043    0.161707
    126          1           0      -16.213693   -1.029242   -0.583856
    127          1           0      -16.054754    0.305222   -1.508419
    128          1           0      -14.784926    1.838269    0.792724
    129          1           0      -13.155356    1.713315    0.249668
    130          1           0      -12.419509    0.643043    2.039415
    131          1           0      -13.857122   -0.309620    2.450688
    132          1           0      -14.777624    0.918553    3.744650
    133          1           0      -14.536434    2.420908    2.915964
    134          1           0      -12.363468    0.977493    4.473649
    135          1           0      -14.795572    2.160647    5.757862
    136          1           0      -13.239819    2.760508    6.474568
    137          1           0      -13.507426    1.160695    6.480368
    138          1           0      -12.107535    3.175469    2.971672
    139          1           0      -10.996685    2.555913    4.054254
    140          1           0      -12.174407    3.848721    4.621692
 ---------------------------------------------------------------------

 SCF Done:  E(RwB97XD) =  -3007.85510019     A.U. after   19 cycles

 Excitation energies and oscillator strengths:

 Excited State   1:      Singlet-A      1.6376 eV  757.13 nm  f=0.3966  <S**2>=0.000
     245 -> 248        0.17500
     246 -> 247        0.68613
     245 <- 248        0.11424
 This state for optimization and/or second-order correction.
 Total Energy, E(TD-HF/TD-DFT) =  -3007.79492085
 Copying the excited state density for this state as the 1-particle RhoCI density.

 Excited State   2:      Singlet-A      2.1923 eV  565.53 nm  f=0.1404  <S**2>=0.000
     245 -> 247        0.64445
     246 -> 248       -0.27567

 Excited State   3:      Singlet-A      3.4515 eV  359.22 nm  f=0.0022  <S**2>=0.000
     241 -> 247        0.23310
     242 -> 247       -0.27329
     243 -> 247        0.58835

 Excited State   4:      Singlet-A      3.5410 eV  350.14 nm  f=0.0838  <S**2>=0.000
     240 -> 247       -0.18880
     240 -> 249        0.12041
     241 -> 247        0.37072
     242 -> 247       -0.27034
     243 -> 247       -0.28867
     246 -> 248       -0.33531

 Excited State   5:      Singlet-A      3.5860 eV  345.75 nm  f=0.0971  <S**2>=0.000
     239 -> 247        0.32175
     239 -> 248       -0.11322
     239 -> 249       -0.27803
     239 -> 250        0.11373
     240 -> 247        0.30010
     240 -> 248       -0.11991
     240 -> 249       -0.27388
     240 -> 250        0.12505
     246 -> 248       -0.25184

 The electronic state is 1-A.
 Alpha  occ. eigenvalues --  -46.94172 -19.30013 -19.29010 -19.25359 -19.24990
 Alpha  occ. eigenvalues --  -19.24761 -19.24373 -14.46725 -14.46514 -14.44374
 Alpha  occ. eigenvalues --  -14.43721 -10.43377 -10.42159 -10.40776 -10.39446
 Alpha  occ. eigenvalues --  -10.35833 -10.35070 -10.35011 -10.34800 -10.34736
 Alpha  occ. eigenvalues --  -10.34422 -10.34370 -10.34304 -10.33453 -10.33421
 Alpha  occ. eigenvalues --  -10.32782 -10.32549 -10.32535 -10.32106 -10.32094
 Alpha  occ. eigenvalues --  -10.31731 -10.31731 -10.31676 -10.31672 -10.31604
 Alpha  occ. eigenvalues --  -10.31542 -10.31464 -10.30862 -10.30836 -10.30786
 Alpha  occ. eigenvalues --  -10.30611 -10.30592 -10.30582 -10.30395 -10.30281
 Alpha  occ. eigenvalues --  -10.29851 -10.29776 -10.29711 -10.29646 -10.29445
 Alpha  occ. eigenvalues --  -10.29363 -10.29269 -10.29240 -10.29212 -10.29006
 Alpha  occ. eigenvalues --  -10.28951 -10.28947 -10.28927 -10.28750 -10.28705
 Alpha  occ. eigenvalues --  -10.28578 -10.28563 -10.28562 -10.28402 -10.27968
 Alpha  occ. eigenvalues --  -10.27762  -3.20397  -1.93989  -1.93519  -1.93398
 Alpha  occ. eigenvalues --   -1.18689  -1.18347  -1.12700  -1.10817  -1.10199
 Alpha  occ. eigenvalues --   -1.09907  -1.07294  -1.06364  -1.05411  -1.04391
 Alpha  occ. eigenvalues --   -0.94136  -0.92488  -0.91840  -0.91140  -0.90729
 Alpha  occ. eigenvalues --   -0.90152  -0.90022  -0.89525  -0.89090  -0.89013
 Alpha  occ. eigenvalues --   -0.88949  -0.87628  -0.86130  -0.85652  -0.85017
 Alpha  occ. eigenvalues --   -0.84104  -0.83615  -0.83171  -0.82576  -0.82214
 Alpha  occ. eigenvalues --   -0.81721  -0.80510  -0.80194  -0.78890  -0.77927
 Alpha  occ. eigenvalues --   -0.77696  -0.77563  -0.77377  -0.76193  -0.76100
 Alpha  occ. eigenvalues --   -0.75161  -0.74502  -0.73692  -0.72532  -0.71142
 Alpha  occ. eigenvalues --   -0.70427  -0.69577  -0.69028  -0.68431  -0.67902
 Alpha  occ. eigenvalues --   -0.67376  -0.67175  -0.66989  -0.66130  -0.65800
 Alpha  occ. eigenvalues --   -0.65355  -0.64725  -0.64382  -0.63744  -0.62528
 Alpha  occ. eigenvalues --   -0.61879  -0.61608  -0.61113  -0.60832  -0.60373
 Alpha  occ. eigenvalues --   -0.60025  -0.59332  -0.58383  -0.58176  -0.57609
 Alpha  occ. eigenvalues --   -0.57059  -0.56582  -0.56452  -0.56229  -0.55781
 Alpha  occ. eigenvalues --   -0.55560  -0.55441  -0.55249  -0.55161  -0.54864
 Alpha  occ. eigenvalues --   -0.54608  -0.53918  -0.53735  -0.53709  -0.53595
 Alpha  occ. eigenvalues --   -0.53213  -0.53202  -0.52861  -0.52660  -0.52332
 Alpha  occ. eigenvalues --   -0.52216  -0.52163  -0.52008  -0.51869  -0.51716
 Alpha  occ. eigenvalues --   -0.51645  -0.51302  -0.51201  -0.50923  -0.50798
 Alpha  occ. eigenvalues --   -0.50715  -0.50474  -0.50325  -0.49973  -0.49758
 Alpha  occ. eigenvalues --   -0.49441  -0.49162  -0.48995  -0.48740  -0.48579
 Alpha  occ. eigenvalues --   -0.48291  -0.48118  -0.47856  -0.47725  -0.47692
 Alpha  occ. eigenvalues --   -0.47507  -0.47245  -0.47185  -0.46939  -0.46835
 Alpha  occ. eigenvalues --   -0.46630  -0.46475  -0.46419  -0.46218  -0.46135
 Alpha  occ. eigenvalues --   -0.46045  -0.45884  -0.45387  -0.45150  -0.44986
 Alpha  occ. eigenvalues --   -0.44747  -0.44536  -0.44370  -0.44271  -0.44004
 Alpha  occ. eigenvalues --   -0.43979  -0.43810  -0.43691  -0.43636  -0.43433
 Alpha  occ. eigenvalues --   -0.42773  -0.42707  -0.42334  -0.42269  -0.42147
 Alpha  occ. eigenvalues --   -0.41672  -0.41633  -0.41261  -0.40895  -0.40679
 Alpha  occ. eigenvalues --   -0.40468  -0.40188  -0.39800  -0.39264  -0.39102
 Alpha  occ. eigenvalues --   -0.39050  -0.38796  -0.38715  -0.38587  -0.38429
 Alpha  occ. eigenvalues --   -0.37633  -0.37548  -0.36699  -0.36646  -0.36388
 Alpha  occ. eigenvalues --   -0.36128  -0.35912  -0.35051  -0.33661  -0.33449
 Alpha  occ. eigenvalues --   -0.32764  -0.32632  -0.31433  -0.30932  -0.25865
 Alpha  occ. eigenvalues --   -0.22860
 Alpha virt. eigenvalues --   -0.07083   0.00590   0.01889   0.04215   0.06534
 Alpha virt. eigenvalues --    0.06567   0.07865   0.08221   0.08485   0.09305
 Alpha virt. eigenvalues --    0.10131   0.11181   0.11706   0.11935   0.12569

 Mulliken charges:
               1
     1  Mg   0.998922
     2  C   -0.007253
     3  C   -0.086641
     4  C   -0.074986
     5  C   -0.097684
     6  N   -0.312791
     7  C   -0.023347
     8  C   -0.103349
     9  C   -0.110768
    10  C    0.044165
    11  C    0.039095
    12  C   -0.009468
    13  C    0.037200
    14  C    0.197534
    15  O   -0.244958
    16  O   -0.389577
    17  N   -0.372504
    18  C    0.159670
    19  C   -0.177415
    20  C   -0.091202
    21  C    0.106688
    22  C    0.043547
    23  C    0.088098
    24  O   -0.277755
    25  C   -0.017178
    26  N   -0.420189
    27  C    0.074064
    28  C   -0.093285
    29  C   -0.061417
    30  C    0.070791
    31  C    0.012474
    32  C    0.004807
    33  C   -0.058912
    34  N   -0.493043
    35  C    0.159907
    36  C   -0.170877
    37  C   -0.085662
    38  C    0.147455
    39  C    0.081065
    40  C    0.161841
    41  O   -0.180554
    42  C   -0.107142
    43  C    0.237912
    44  O   -0.205212
    45  O   -0.364730
    46  C    0.139313
    47  C    0.265150
    48  C   -0.197056
    49  C   -0.188299
    50  C    0.034721
    51  C    0.034421
    52  C   -0.062359
    53  C    0.045499
    54  C   -0.189068
    55  C   -0.010001
    56  C   -0.029487
    57  C   -0.005030
    58  C    0.014090
    59  C   -0.208057
    60  C    0.013408
    61  C    0.004537
    62  C   -0.054000
    63  C   -0.013166
    64  C   -0.201473
    65  C   -0.006311
    66  C    0.012556
    67  H   -0.010899
    68  H    0.027487
    69  H   -0.017223
    70  H    0.048848
    71  H    0.040028
    72  H    0.041714
    73  H    0.039353
    74  H    0.054686
    75  H    0.037752
    76  H    0.070426
    77  H    0.045807
    78  H    0.066420
    79  H    0.070570
    80  H    0.050909
    81  H    0.036047
    82  H    0.053510
    83  H    0.083300
    84  H    0.046806
    85  H    0.047516
    86  H    0.037917
    87  H    0.033095
    88  H    0.046082
    89  H    0.065796
    90  H    0.042890
    91  H    0.031783
    92  H    0.037173
    93  H    0.031708
    94  H    0.035015
    95  H    0.042580
    96  H    0.044627
    97  H    0.053341
    98  H    0.081306
    99  H    0.026579
   100  H    0.054645
   101  H    0.053301
   102  H    0.074471
   103  H    0.061153
   104  H    0.019916
   105  H    0.060252
   106  H    0.028900
   107  H    0.024386
   108  H    0.026186
   109  H    0.020731
   110  H    0.027706
   111  H    0.036414
   112  H    0.018760
   113  H    0.021187
   114  H    0.028740
   115  H    0.010261
   116  H    0.030016
   117  H    0.030726
   118  H    0.013641
   119  H    0.018235
   120  H    0.021529
   121  H    0.021756
   122  H    0.023777
   123  H    0.022851
   124  H    0.026239
   125  H    0.034644
   126  H    0.018451
   127  H    0.012237
   128  H    0.019464
   129  H    0.010021
   130  H    0.021284
   131  H    0.029679
   132  H    0.012172
   133  H    0.019194
   134  H    0.019340
   135  H    0.042705
   136  H    0.016551
   137  H    0.023187
   138  H    0.015416
   139  H    0.024589
   140  H    0.035615
 Sum of Mulliken charges =  -0.00000

 Dipole moment (field-independent basis, Debye):
    X=             -2.1563    Y=              5.8941    Z=              0.5049  Tot=              6.2965
 Quadrupole moment (field-independent basis, Debye-Ang):
   XX=           -372.0271   YY=           -422.7627   ZZ=           -403.9389
   XY=              6.3373   XZ=             18.3176   YZ=              1.4876

 Normal termination of Gaussian 16 at Thu May  5 16:05:04 2022.
