 Gaussian 16, Revision A.03,
 Gaussian 16:  ES64L-G16RevA.03 25-Dec-2016

 --------------------
 #p ZINDO=(nstates=5)
 --------------------

 ----------------------------
 step_951_chromophore_7 ZINDO
 ----------------------------
 Symbolic Z-matrix:
 Charge =  0 Multiplicity = 1

                         Standard orientation:
 ---------------------------------------------------------------------
 Center     Atomic      Atomic             Coordinates (Angstroms)
 Number     Number       Type             X           Y           Z
 ---------------------------------------------------------------------
      1         12           0        6.288809    0.353378    0.122748
      2          6           0        3.711511   -2.108042    0.089212
      3          6           0        3.660934    2.759550   -0.325765
      4          6           0        8.574839    2.881976    0.192837
      5          6           0        8.619184   -1.940804    0.632533
      6          7           0        3.966874    0.331193   -0.187852
      7          6           0        3.177750   -0.804722   -0.035611
      8          6           0        1.679273   -0.518993   -0.207936
      9          6           0        1.715624    1.108496   -0.370951
     10          6           0        3.199212    1.441120   -0.324820
     11          6           0        0.992156    1.643642   -1.646032
     12          6           0        0.808647   -1.207862    0.887211
     13          6           0       -0.565733   -0.589760    1.167931
     14          6           0       -1.668035   -1.552139    1.051070
     15          8           0       -1.810354   -2.632047    1.591781
     16          8           0       -2.601575   -1.092737    0.100642
     17          7           0        6.156856    2.486764   -0.248890
     18          6           0        5.043244    3.192220   -0.305985
     19          6           0        5.432993    4.594474   -0.612473
     20          6           0        6.837060    4.622809   -0.526686
     21          6           0        7.235249    3.270982   -0.162380
     22          6           0        4.416132    5.676471   -1.033478
     23          6           0        7.826904    5.802847   -0.787363
     24          8           0        9.092935    5.718875   -0.612879
     25          6           0        7.186972    7.177681   -1.097276
     26          7           0        8.274100    0.469091    0.310773
     27          6           0        9.026990    1.587301    0.426320
     28          6           0       10.493340    1.387121    0.769935
     29          6           0       10.474389   -0.185670    0.929159
     30          6           0        9.042444   -0.601846    0.605107
     31          6           0       11.530152    2.063662   -0.290057
     32          6           0       10.929387   -0.599508    2.348013
     33          6           0       11.787575   -1.883347    2.273545
     34          7           0        6.206238   -1.604905    0.236186
     35          6           0        7.256685   -2.449593    0.475350
     36          6           0        6.872014   -3.813840    0.440830
     37          6           0        5.437631   -3.751036    0.327249
     38          6           0        5.086873   -2.367366    0.159211
     39          6           0        7.656708   -4.969498    0.464098
     40          6           0        4.202755   -4.588560    0.311033
     41          8           0        3.999580   -5.768623    0.484256
     42          6           0        3.047515   -3.505382    0.210777
     43          6           0        2.361567   -3.888600   -0.992797
     44          8           0        2.729255   -3.720325   -2.112587
     45          8           0        1.225788   -4.596943   -0.618526
     46          6           0        0.197711   -4.654028   -1.619007
     47          6           0       -3.809692   -1.893266    0.015366
     48          6           0       -4.882754   -0.975006   -0.600823
     49          6           0       -6.173901   -1.312865   -0.903604
     50          6           0       -6.611632   -2.721648   -0.928169
     51          6           0       -7.113184   -0.197055   -1.283096
     52          6           0       -7.922898   -0.510319   -2.564789
     53          6           0       -8.681240    0.775523   -2.955687
     54          6           0      -10.147112    0.419963   -3.312658
     55          6           0      -10.724645    1.282497   -4.526877
     56          6           0      -11.059968    0.698835   -1.997303
     57          6           0      -12.079960   -0.394409   -1.554635
     58          6           0      -13.515361    0.022596   -1.693169
     59          6           0      -14.280339   -0.064374   -0.291783
     60          6           0      -15.795908   -0.026359   -0.502578
     61          6           0      -13.964718    1.127627    0.686062
     62          6           0      -13.505991    0.670292    2.127789
     63          6           0      -14.006555    1.553419    3.308686
     64          6           0      -13.001156    1.860496    4.422197
     65          6           0      -13.717529    2.015853    5.837972
     66          6           0      -12.014814    2.945821    4.032651
     67          1           0        2.858383    3.495693   -0.409794
     68          1           0        9.280526    3.714954    0.200239
     69          1           0        9.456770   -2.623537    0.790953
     70          1           0        1.423765   -1.035558   -1.133276
     71          1           0        1.317501    1.496836    0.566362
     72          1           0        1.711982    2.190321   -2.255118
     73          1           0        0.282316    2.423413   -1.370113
     74          1           0        0.603110    0.748279   -2.132178
     75          1           0        1.460013   -1.121558    1.756467
     76          1           0        0.579223   -2.230038    0.584380
     77          1           0       -0.774739    0.201776    0.448263
     78          1           0       -0.590751   -0.050551    2.114517
     79          1           0        4.533281    5.955823   -2.079836
     80          1           0        4.643022    6.488840   -0.342647
     81          1           0        3.346191    5.509653   -0.907456
     82          1           0        7.960633    7.776299   -1.577719
     83          1           0        6.884995    7.605020   -0.141739
     84          1           0        6.415902    7.063180   -1.859991
     85          1           0       10.649753    1.869659    1.734205
     86          1           0       11.044864   -0.632128    0.115287
     87          1           0       12.184256    1.304182   -0.717622
     88          1           0       12.133937    2.714629    0.342332
     89          1           0       11.063023    2.581285   -1.128371
     90          1           0       10.109550   -0.785189    3.041436
     91          1           0       11.506099    0.230630    2.757309
     92          1           0       11.147757   -2.746671    2.086298
     93          1           0       12.298636   -2.039577    3.223149
     94          1           0       12.586028   -1.886718    1.531884
     95          1           0        7.027551   -5.799474    0.144849
     96          1           0        7.787567   -5.316234    1.489220
     97          1           0        8.564586   -4.939873   -0.138876
     98          1           0        2.333960   -3.514344    1.035157
     99          1           0       -0.395289   -3.757444   -1.793001
    100          1           0       -0.543109   -5.400609   -1.333746
    101          1           0        0.639796   -4.867912   -2.593164
    102          1           0       -4.336142   -2.044450    0.958282
    103          1           0       -3.658332   -2.677140   -0.726352
    104          1           0       -4.647078    0.088314   -0.590992
    105          1           0       -6.904517   -3.094026   -1.909343
    106          1           0       -7.433422   -2.898332   -0.235245
    107          1           0       -5.883811   -3.373323   -0.443194
    108          1           0       -6.695598    0.809688   -1.281844
    109          1           0       -7.869488   -0.179359   -0.498200
    110          1           0       -8.602158   -1.314428   -2.283105
    111          1           0       -7.291056   -0.878869   -3.372544
    112          1           0       -8.178755    1.257450   -3.793609
    113          1           0       -8.714785    1.508584   -2.150246
    114          1           0      -10.272521   -0.634594   -3.556216
    115          1           0      -11.247456    2.175546   -4.183068
    116          1           0      -11.536562    0.770378   -5.043650
    117          1           0      -10.021320    1.734419   -5.226727
    118          1           0      -11.546655    1.641134   -2.248244
    119          1           0      -10.469708    0.908188   -1.105267
    120          1           0      -11.827905   -0.583740   -0.510639
    121          1           0      -11.954187   -1.310856   -2.129300
    122          1           0      -14.003640   -0.688256   -2.360335
    123          1           0      -13.560919    1.072593   -1.981462
    124          1           0      -13.961756   -0.988309    0.190900
    125          1           0      -16.377955    0.611043    0.161707
    126          1           0      -16.213693   -1.029242   -0.583856
    127          1           0      -16.054754    0.305222   -1.508419
    128          1           0      -14.784926    1.838269    0.792724
    129          1           0      -13.155356    1.713315    0.249668
    130          1           0      -12.419509    0.643043    2.039415
    131          1           0      -13.857122   -0.309620    2.450688
    132          1           0      -14.777624    0.918553    3.744650
    133          1           0      -14.536434    2.420908    2.915964
    134          1           0      -12.363468    0.977493    4.473649
    135          1           0      -14.795572    2.160647    5.757862
    136          1           0      -13.239819    2.760508    6.474568
    137          1           0      -13.507426    1.160695    6.480368
    138          1           0      -12.107535    3.175469    2.971672
    139          1           0      -10.996685    2.555913    4.054254
    140          1           0      -12.174407    3.848721    4.621692
 ---------------------------------------------------------------------

 SCF Done:  E(RZINDO/S) =  -474.229215249     A.U. after   19 cycles

 Excitation energies and oscillator strengths:

 Excited State   1:      Singlet-A      1.2528 eV  989.66 nm  f=0.6011  <S**2>=0.000
     175 ->178        -0.17808
     176 ->177         0.66631
 This state for optimization and/or second-order correction.
 Total Energy, E(CIS/TDA) =  -474.183175874
 Copying the excited state density for this state as the 1-particle RhoCI density.

 Excited State   2:      Singlet-A      1.9240 eV  644.42 nm  f=0.0704  <S**2>=0.000
     175 ->177         0.55965
     176 ->178         0.39986

 Excited State   3:      Singlet-A      2.9506 eV  420.21 nm  f=0.0029  <S**2>=0.000
     167 ->177        -0.10028
     167 ->179         0.21504
     168 ->177        -0.25909
     168 ->178        -0.10947
     168 ->179         0.46511
     168 ->180        -0.20137
     168 ->184         0.12007
     168 ->185        -0.11659
     171 ->177         0.10773

 Excited State   4:      Singlet-A      2.9790 eV  416.19 nm  f=0.5644  <S**2>=0.000
     175 ->177        -0.27322
     176 ->178         0.41807
     176 ->179         0.40487
     176 ->180         0.21429

 Excited State   5:      Singlet-A      3.0735 eV  403.39 nm  f=0.4505  <S**2>=0.000
     171 ->177        -0.13841
     175 ->177         0.24159
     176 ->178        -0.34618
     176 ->179         0.50115

 The electronic state is 1-A.
 Alpha  occ. eigenvalues --   -1.83867  -1.83068  -1.80002  -1.73963  -1.73520
 Alpha  occ. eigenvalues --   -1.70431  -1.63991  -1.60203  -1.57378  -1.55435
 Alpha  occ. eigenvalues --   -1.54536  -1.51747  -1.49429  -1.48314  -1.47231
 Alpha  occ. eigenvalues --   -1.44209  -1.43980  -1.40315  -1.38470  -1.38216
 Alpha  occ. eigenvalues --   -1.36004  -1.35508  -1.32628  -1.31550  -1.28404
 Alpha  occ. eigenvalues --   -1.27418  -1.24782  -1.22277  -1.20835  -1.17591
 Alpha  occ. eigenvalues --   -1.17440  -1.16853  -1.15596  -1.14761  -1.12684
 Alpha  occ. eigenvalues --   -1.12031  -1.11180  -1.10869  -1.04740  -1.03158
 Alpha  occ. eigenvalues --   -1.02389  -1.01164  -0.98892  -0.97895  -0.96972
 Alpha  occ. eigenvalues --   -0.95773  -0.93888  -0.93085  -0.92168  -0.92009
 Alpha  occ. eigenvalues --   -0.91239  -0.90528  -0.89434  -0.87858  -0.86733
 Alpha  occ. eigenvalues --   -0.85895  -0.84385  -0.83047  -0.81375  -0.80474
 Alpha  occ. eigenvalues --   -0.80146  -0.79117  -0.78533  -0.76927  -0.76237
 Alpha  occ. eigenvalues --   -0.76205  -0.75002  -0.74450  -0.73842  -0.73078
 Alpha  occ. eigenvalues --   -0.72550  -0.72309  -0.71603  -0.70701  -0.70329
 Alpha  occ. eigenvalues --   -0.70091  -0.69101  -0.68574  -0.68113  -0.67926
 Alpha  occ. eigenvalues --   -0.67686  -0.67620  -0.66941  -0.66806  -0.66150
 Alpha  occ. eigenvalues --   -0.65421  -0.64893  -0.64307  -0.63892  -0.63466
 Alpha  occ. eigenvalues --   -0.63147  -0.62835  -0.62654  -0.62215  -0.61681
 Alpha  occ. eigenvalues --   -0.61217  -0.60856  -0.60479  -0.60231  -0.59584
 Alpha  occ. eigenvalues --   -0.59205  -0.59161  -0.58880  -0.58173  -0.58078
 Alpha  occ. eigenvalues --   -0.57715  -0.57245  -0.57119  -0.56419  -0.56336
 Alpha  occ. eigenvalues --   -0.55955  -0.55806  -0.55787  -0.55592  -0.54967
 Alpha  occ. eigenvalues --   -0.54735  -0.54445  -0.53804  -0.53400  -0.53058
 Alpha  occ. eigenvalues --   -0.52833  -0.52135  -0.51913  -0.51817  -0.51697
 Alpha  occ. eigenvalues --   -0.51275  -0.51216  -0.50930  -0.50601  -0.50458
 Alpha  occ. eigenvalues --   -0.50351  -0.50011  -0.49640  -0.49237  -0.49109
 Alpha  occ. eigenvalues --   -0.48918  -0.48751  -0.48397  -0.48016  -0.47926
 Alpha  occ. eigenvalues --   -0.47593  -0.47449  -0.47202  -0.47125  -0.46770
 Alpha  occ. eigenvalues --   -0.46344  -0.46188  -0.46030  -0.45545  -0.45528
 Alpha  occ. eigenvalues --   -0.44887  -0.44591  -0.44468  -0.44113  -0.44033
 Alpha  occ. eigenvalues --   -0.43349  -0.42791  -0.42733  -0.42514  -0.42246
 Alpha  occ. eigenvalues --   -0.41549  -0.41128  -0.41010  -0.39263  -0.38399
 Alpha  occ. eigenvalues --   -0.37617  -0.37031  -0.36292  -0.34451  -0.34393
 Alpha  occ. eigenvalues --   -0.33388  -0.32551  -0.31448  -0.31214  -0.26484
 Alpha  occ. eigenvalues --   -0.21752
 Alpha virt. eigenvalues --   -0.08559  -0.01790  -0.00910   0.01080   0.01670
 Alpha virt. eigenvalues --    0.03143   0.03378   0.03822   0.04911   0.04915
 Alpha virt. eigenvalues --    0.06341   0.06392   0.06606   0.07589   0.08104

 Mulliken charges:
               1
     1  Mg   0.423992
     2  C   -0.036270
     3  C   -0.098912
     4  C   -0.086188
     5  C   -0.088948
     6  N   -0.295314
     7  C    0.098596
     8  C   -0.014267
     9  C    0.000055
    10  C    0.154209
    11  C   -0.051248
    12  C   -0.022431
    13  C    0.008787
    14  C    0.473288
    15  O   -0.511227
    16  O   -0.285944
    17  N   -0.296684
    18  C    0.130693
    19  C    0.013144
    20  C   -0.045184
    21  C    0.147516
    22  C   -0.044267
    23  C    0.318861
    24  O   -0.530543
    25  C   -0.031945
    26  N   -0.260571
    27  C    0.158909
    28  C   -0.013176
    29  C    0.004633
    30  C    0.106569
    31  C   -0.052460
    32  C   -0.022347
    33  C   -0.058708
    34  N   -0.308638
    35  C    0.079345
    36  C    0.035248
    37  C   -0.084744
    38  C    0.100204
    39  C   -0.032500
    40  C    0.340325
    41  O   -0.505605
    42  C    0.056614
    43  C    0.501190
    44  O   -0.519583
    45  O   -0.275160
    46  C    0.074561
    47  C    0.094612
    48  C   -0.110311
    49  C   -0.017685
    50  C   -0.039284
    51  C   -0.021261
    52  C   -0.032104
    53  C   -0.030932
    54  C   -0.016142
    55  C   -0.068682
    56  C   -0.050789
    57  C   -0.035078
    58  C   -0.033474
    59  C   -0.015606
    60  C   -0.062160
    61  C   -0.038251
    62  C   -0.043973
    63  C   -0.032841
    64  C   -0.007004
    65  C   -0.063644
    66  C   -0.053986
    67  H    0.029445
    68  H    0.057455
    69  H    0.027913
    70  H    0.037632
    71  H    0.030202
    72  H    0.025045
    73  H    0.022974
    74  H    0.037653
    75  H    0.029607
    76  H    0.044627
    77  H    0.026845
    78  H    0.045560
    79  H    0.036403
    80  H    0.024961
    81  H    0.027251
    82  H    0.035354
    83  H    0.052916
    84  H    0.035949
    85  H    0.037002
    86  H    0.035852
    87  H    0.019493
    88  H    0.025334
    89  H    0.039299
    90  H    0.028665
    91  H    0.018265
    92  H    0.022521
    93  H    0.010730
    94  H    0.020988
    95  H    0.025930
    96  H    0.035318
    97  H    0.032517
    98  H    0.057135
    99  H    0.030152
   100  H    0.032119
   101  H    0.044624
   102  H    0.072911
   103  H    0.061725
   104  H    0.026766
   105  H    0.034960
   106  H    0.020813
   107  H    0.018718
   108  H    0.028240
   109  H    0.019328
   110  H    0.022293
   111  H    0.024391
   112  H    0.016982
   113  H    0.024282
   114  H    0.027389
   115  H    0.010962
   116  H    0.017620
   117  H    0.023386
   118  H    0.020067
   119  H    0.015938
   120  H    0.019004
   121  H    0.019042
   122  H    0.022621
   123  H    0.029091
   124  H    0.025123
   125  H    0.025666
   126  H    0.010837
   127  H    0.009436
   128  H    0.022987
   129  H    0.012143
   130  H    0.017328
   131  H    0.022601
   132  H    0.005711
   133  H    0.021472
   134  H    0.014854
   135  H    0.028384
   136  H    0.016952
   137  H    0.015185
   138  H    0.013120
   139  H    0.017927
   140  H    0.024729
 Sum of Mulliken charges =  -0.00000

 Dipole moment (field-independent basis, Debye):
    X=             -4.3051    Y=              9.9789    Z=              1.3458  Tot=             10.9509
 N-N= 4.198954581871D+03 E-N= 0.000000000000D+00  KE=-9.072221390518D+03
 Leave Link  601 at Thu May  5 16:22:33 2022, MaxMem=  6710886400 cpu:               1.8 elap:               0.1
 (Enter /sw/apps/gaussian-16.0/g16/l9999.exe)
 1\1\GINC-BP1-COMPUTE132\SP\RZINDO CIS\STO-3G\C55H74Mg1N4O6\OF15641\05-
 May-2022\0\\#p ZINDO=(nstates=5)\\step_951_chromophore_7 ZINDO\\0,1\Mg
 ,0,26.014,-0.317,29.267\C,0,27.908,-0.341,32.286\C,0,23.169,0.382,31.3
 44\C,0,24.017,-0.179,26.507\C,0,28.719,-0.867,27.441\N,0,25.562,-0.106
 ,31.556\C,0,26.548,-0.046,32.536\C,0,25.979,0.185,33.943\C,0,24.397,0.
 392,33.581\C,0,24.343,0.185,32.075\C,0,23.428,-0.537,34.377\C,0,26.778
 ,1.259,34.743\C,0,26.035,1.968,35.881\C,0,26.732,1.881,37.17\O,0,27.87

 Normal termination of Gaussian 16 at Thu May  5 16:22:33 2022.
