 Gaussian 16, Revision A.03,
 Gaussian 16:  ES64L-G16RevA.03 25-Dec-2016

 ------------------------------
 #p blyp/Def2SVP td=(nstates=5)
 ------------------------------

 --------------------------------------------------
 step_1601_chromophore_1 TDDFT with blyp functional
 --------------------------------------------------
 Symbolic Z-matrix:
 Charge =  0 Multiplicity = 1

                         Standard orientation:
 ---------------------------------------------------------------------
 Center     Atomic      Atomic             Coordinates (Angstroms)
 Number     Number       Type             X           Y           Z
 ---------------------------------------------------------------------
      1         12           0        6.222136    0.416705   -0.053768
      2          6           0        4.187419   -2.408650   -0.694317
      3          6           0        3.686609    2.318979   -1.436553
      4          6           0        8.168817    3.147447    0.078178
      5          6           0        8.680972   -1.525928    0.979938
      6          7           0        3.968354   -0.087937   -0.769255
      7          6           0        3.414658   -1.303325   -1.015663
      8          6           0        2.070059   -1.170376   -1.696694
      9          6           0        2.013899    0.417296   -1.966690
     10          6           0        3.316994    0.923301   -1.360546
     11          6           0        1.765866    0.730924   -3.463013
     12          6           0        0.898041   -1.871676   -1.024634
     13          6           0       -0.418788   -1.209072   -1.179703
     14          6           0       -1.568157   -2.159503   -1.041423
     15          8           0       -1.609333   -3.382682   -1.047966
     16          8           0       -2.734378   -1.387952   -0.899279
     17          7           0        5.838170    2.459483   -0.281238
     18          6           0        4.720318    3.055874   -0.888459
     19          6           0        4.864461    4.564591   -0.888169
     20          6           0        6.165249    4.783573   -0.348698
     21          6           0        6.757103    3.486839   -0.188011
     22          6           0        3.829361    5.560223   -1.408298
     23          6           0        6.904596    6.103161   -0.007302
     24          8           0        8.056347    6.163346    0.436421
     25          6           0        6.135281    7.323820   -0.082443
     26          7           0        8.129937    0.781255    0.376529
     27          6           0        8.802080    1.950657    0.278946
     28          6           0       10.271762    1.827029    0.555871
     29          6           0       10.314949    0.335050    1.114435
     30          6           0        8.950115   -0.211223    0.821404
     31          6           0       11.284834    2.026063   -0.642314
     32          6           0       10.845915    0.274609    2.610395
     33          6           0        9.764214    0.114923    3.747960
     34          7           0        6.519912   -1.557172    0.013824
     35          6           0        7.516571   -2.187353    0.638924
     36          6           0        7.309199   -3.614570    0.603452
     37          6           0        5.997815   -3.725113    0.125283
     38          6           0        5.503885   -2.443070   -0.186189
     39          6           0        8.316030   -4.715977    0.988162
     40          6           0        4.967063   -4.698182   -0.123285
     41          8           0        4.932083   -5.882563    0.018267
     42          6           0        3.716335   -3.847313   -0.619807
     43          6           0        2.694389   -4.037700    0.423150
     44          8           0        2.657094   -3.605977    1.545770
     45          8           0        1.695259   -4.774432   -0.127446
     46          6           0        0.581823   -5.183292    0.750287
     47          6           0       -4.010109   -2.137817   -0.670102
     48          6           0       -5.225127   -1.236382   -0.488422
     49          6           0       -6.494966   -1.502193   -0.857050
     50          6           0       -6.926454   -2.892147   -1.350328
     51          6           0       -7.690248   -0.523792   -0.631373
     52          6           0       -8.253029   -0.615845    0.846628
     53          6           0       -8.196936    0.737139    1.714812
     54          6           0       -9.470258    1.602352    1.599162
     55          6           0       -9.130432    3.045551    1.005916
     56          6           0      -10.265974    1.814984    2.937012
     57          6           0      -11.775568    2.012648    2.815952
     58          6           0      -12.481973    0.718472    2.480647
     59          6           0      -14.052789    0.929630    2.336897
     60          6           0      -14.831850    0.302711    3.510604
     61          6           0      -14.577648    0.518720    0.981963
     62          6           0      -14.592049    1.627892   -0.119442
     63          6           0      -13.535047    1.421633   -1.226279
     64          6           0      -13.862739    0.555384   -2.432078
     65          6           0      -13.346441   -0.882172   -2.290855
     66          6           0      -13.502124    1.162246   -3.790702
     67          1           0        2.884145    2.886756   -1.911453
     68          1           0        8.857712    3.992417    0.014204
     69          1           0        9.537600   -2.069254    1.385287
     70          1           0        2.247102   -1.617808   -2.675531
     71          1           0        1.320160    0.894930   -1.274348
     72          1           0        1.188860    0.002842   -4.033156
     73          1           0        2.716000    0.887072   -3.974387
     74          1           0        1.234538    1.683425   -3.468055
     75          1           0        1.070989   -1.973182    0.046258
     76          1           0        0.917202   -2.855224   -1.495678
     77          1           0       -0.427282   -0.593505   -2.079969
     78          1           0       -0.513859   -0.521031   -0.339552
     79          1           0        3.555432    6.113496   -0.510923
     80          1           0        2.952065    5.069696   -1.830497
     81          1           0        4.288620    6.250292   -2.116069
     82          1           0        5.898038    7.567243   -1.116965
     83          1           0        6.700958    8.176383    0.292952
     84          1           0        5.204929    7.137229    0.454539
     85          1           0       10.534941    2.534552    1.342129
     86          1           0       11.055505   -0.207814    0.528070
     87          1           0       10.661708    2.503810   -1.397924
     88          1           0       11.753489    1.179584   -1.143910
     89          1           0       11.948187    2.874871   -0.473160
     90          1           0       11.237332    1.280382    2.768548
     91          1           0       11.655272   -0.441471    2.751612
     92          1           0        9.976945    0.825101    4.547409
     93          1           0        9.600381   -0.910877    4.079091
     94          1           0        8.792940    0.531341    3.482425
     95          1           0        7.670553   -5.455807    1.461600
     96          1           0        9.162267   -4.493697    1.638562
     97          1           0        8.817396   -5.035057    0.074790
     98          1           0        3.391852   -4.268055   -1.570638
     99          1           0       -0.113627   -5.949741    0.409134
    100          1           0       -0.105797   -4.355123    0.919943
    101          1           0        1.000533   -5.508224    1.702322
    102          1           0       -3.962467   -2.786089    0.205128
    103          1           0       -4.256881   -2.786912   -1.510748
    104          1           0       -4.958088   -0.207533   -0.248380
    105          1           0       -7.901733   -3.039528   -0.885332
    106          1           0       -6.198750   -3.576123   -0.912274
    107          1           0       -6.983234   -3.190129   -2.397051
    108          1           0       -8.464522   -0.626038   -1.393233
    109          1           0       -7.275288    0.453413   -0.878683
    110          1           0       -7.903116   -1.452752    1.451033
    111          1           0       -9.277745   -0.938213    0.662973
    112          1           0       -7.363846    1.297187    1.289726
    113          1           0       -7.902526    0.457684    2.726104
    114          1           0      -10.189989    1.118582    0.940196
    115          1           0       -8.848235    3.063720   -0.047451
    116          1           0       -8.174471    3.243308    1.490933
    117          1           0       -9.847941    3.803642    1.318641
    118          1           0       -9.843515    2.694927    3.420762
    119          1           0      -10.007665    0.931989    3.522170
    120          1           0      -11.974022    2.592023    1.914248
    121          1           0      -12.029236    2.459087    3.777281
    122          1           0      -12.259474   -0.107293    3.156972
    123          1           0      -12.193291    0.329472    1.503386
    124          1           0      -14.299203    1.990715    2.360959
    125          1           0      -14.708543   -0.779388    3.481181
    126          1           0      -15.868639    0.537691    3.266563
    127          1           0      -14.478231    0.669374    4.473668
    128          1           0      -15.620489    0.231787    1.113640
    129          1           0      -14.137029   -0.419827    0.646392
    130          1           0      -14.462540    2.619276    0.314093
    131          1           0      -15.618408    1.622256   -0.484481
    132          1           0      -12.622140    1.187348   -0.677973
    133          1           0      -13.351875    2.463094   -1.488951
    134          1           0      -14.930100    0.394828   -2.585400
    135          1           0      -14.240491   -1.495473   -2.187346
    136          1           0      -12.699233   -0.888108   -1.412933
    137          1           0      -12.779450   -1.134100   -3.186535
    138          1           0      -14.303797    1.830078   -4.107439
    139          1           0      -13.110623    0.437453   -4.504884
    140          1           0      -12.710935    1.908917   -3.716374
 ---------------------------------------------------------------------

 SCF Done:  E(RB-LYP) =  -3007.36543832     A.U. after   21 cycles

 Excitation energies and oscillator strengths:

 Excited State   1:      Singlet-A      1.8163 eV  682.62 nm  f=0.2870  <S**2>=0.000
     245 -> 248       -0.19706
     246 -> 247        0.68798
     246 <- 247       -0.15001
 This state for optimization and/or second-order correction.
 Total Energy, E(TD-HF/TD-DFT) =  -3007.29869038
 Copying the excited state density for this state as the 1-particle RhoCI density.

 Excited State   2:      Singlet-A      2.0314 eV  610.35 nm  f=0.0743  <S**2>=0.000
     244 -> 247       -0.22630
     245 -> 247        0.60914
     246 -> 248        0.24160

 Excited State   3:      Singlet-A      2.0498 eV  604.87 nm  f=0.0088  <S**2>=0.000
     244 -> 247        0.66671
     245 -> 247        0.20567

 Excited State   4:      Singlet-A      2.1804 eV  568.64 nm  f=0.0018  <S**2>=0.000
     243 -> 247        0.69705

 Excited State   5:      Singlet-A      2.4574 eV  504.54 nm  f=0.0001  <S**2>=0.000
     242 -> 247        0.70695

 The electronic state is 1-A.
 Alpha  occ. eigenvalues --  -46.26005 -18.81994 -18.80799 -18.78103 -18.75896
 Alpha  occ. eigenvalues --  -18.75642 -18.75623 -14.02680 -14.02046 -14.01174
 Alpha  occ. eigenvalues --  -14.00357 -10.04920 -10.02659 -10.00178  -9.98990
 Alpha  occ. eigenvalues --   -9.98200  -9.96523  -9.96128  -9.96127  -9.96101
 Alpha  occ. eigenvalues --   -9.95879  -9.95422  -9.95149  -9.95086  -9.94473
 Alpha  occ. eigenvalues --   -9.94305  -9.94245  -9.94128  -9.93957  -9.93955
 Alpha  occ. eigenvalues --   -9.93581  -9.93491  -9.93240  -9.93147  -9.93109
 Alpha  occ. eigenvalues --   -9.93100  -9.93099  -9.92919  -9.92783  -9.92768
 Alpha  occ. eigenvalues --   -9.92602  -9.92424  -9.92363  -9.92277  -9.92272
 Alpha  occ. eigenvalues --   -9.92173  -9.92123  -9.92101  -9.92036  -9.91978
 Alpha  occ. eigenvalues --   -9.91780  -9.91530  -9.91431  -9.91372  -9.91363
 Alpha  occ. eigenvalues --   -9.91350  -9.91320  -9.91257  -9.91188  -9.91011
 Alpha  occ. eigenvalues --   -9.90980  -9.90804  -9.90777  -9.90773  -9.90547
 Alpha  occ. eigenvalues --   -9.90440  -2.90906  -1.71330  -1.70790  -1.70620
 Alpha  occ. eigenvalues --   -0.97262  -0.97132  -0.92611  -0.91307  -0.89704
 Alpha  occ. eigenvalues --   -0.89157  -0.86969  -0.86036  -0.85714  -0.84238
 Alpha  occ. eigenvalues --   -0.75535  -0.73874  -0.73408  -0.72823  -0.72172
 Alpha  occ. eigenvalues --   -0.71744  -0.71011  -0.70958  -0.70932  -0.70761
 Alpha  occ. eigenvalues --   -0.69342  -0.69206  -0.68204  -0.67236  -0.67091
 Alpha  occ. eigenvalues --   -0.66517  -0.66102  -0.65470  -0.65095  -0.64470
 Alpha  occ. eigenvalues --   -0.63981  -0.63015  -0.62688  -0.61322  -0.60452
 Alpha  occ. eigenvalues --   -0.60402  -0.60240  -0.59788  -0.59566  -0.59231
 Alpha  occ. eigenvalues --   -0.58464  -0.57587  -0.56942  -0.55774  -0.54895
 Alpha  occ. eigenvalues --   -0.54237  -0.53956  -0.52796  -0.52303  -0.51679
 Alpha  occ. eigenvalues --   -0.51332  -0.50955  -0.50672  -0.50244  -0.49622
 Alpha  occ. eigenvalues --   -0.49008  -0.48951  -0.48815  -0.47694  -0.46714
 Alpha  occ. eigenvalues --   -0.46419  -0.45690  -0.45617  -0.44861  -0.44536
 Alpha  occ. eigenvalues --   -0.44068  -0.43700  -0.42989  -0.42661  -0.42131
 Alpha  occ. eigenvalues --   -0.41939  -0.41613  -0.41567  -0.41305  -0.40771
 Alpha  occ. eigenvalues --   -0.40642  -0.40591  -0.40439  -0.40248  -0.40169
 Alpha  occ. eigenvalues --   -0.39687  -0.39645  -0.39487  -0.39360  -0.39225
 Alpha  occ. eigenvalues --   -0.39021  -0.38666  -0.38645  -0.38285  -0.38166
 Alpha  occ. eigenvalues --   -0.37960  -0.37824  -0.37696  -0.37508  -0.37243
 Alpha  occ. eigenvalues --   -0.37183  -0.36701  -0.36681  -0.36392  -0.36284
 Alpha  occ. eigenvalues --   -0.36219  -0.35981  -0.35942  -0.35755  -0.35673
 Alpha  occ. eigenvalues --   -0.35444  -0.35383  -0.34987  -0.34738  -0.34682
 Alpha  occ. eigenvalues --   -0.34510  -0.34420  -0.34281  -0.34253  -0.34057
 Alpha  occ. eigenvalues --   -0.33955  -0.33789  -0.33411  -0.33087  -0.32944
 Alpha  occ. eigenvalues --   -0.32824  -0.32757  -0.32625  -0.32585  -0.32279
 Alpha  occ. eigenvalues --   -0.32205  -0.32022  -0.31929  -0.31668  -0.31658
 Alpha  occ. eigenvalues --   -0.31457  -0.31382  -0.31165  -0.30946  -0.30773
 Alpha  occ. eigenvalues --   -0.30683  -0.30620  -0.30285  -0.29995  -0.29547
 Alpha  occ. eigenvalues --   -0.29306  -0.29145  -0.28891  -0.28852  -0.28397
 Alpha  occ. eigenvalues --   -0.28363  -0.28264  -0.27855  -0.27708  -0.27553
 Alpha  occ. eigenvalues --   -0.27271  -0.27145  -0.26958  -0.26671  -0.26384
 Alpha  occ. eigenvalues --   -0.26262  -0.26164  -0.25864  -0.25647  -0.25178
 Alpha  occ. eigenvalues --   -0.24939  -0.24727  -0.24125  -0.24002  -0.23806
 Alpha  occ. eigenvalues --   -0.23231  -0.22929  -0.21904  -0.21226  -0.20754
 Alpha  occ. eigenvalues --   -0.20415  -0.20165  -0.19034  -0.18557  -0.17020
 Alpha  occ. eigenvalues --   -0.15419
 Alpha virt. eigenvalues --   -0.11134  -0.06490  -0.06060  -0.04115  -0.03853
 Alpha virt. eigenvalues --   -0.02244  -0.01237  -0.00911  -0.00569  -0.00122
 Alpha virt. eigenvalues --    0.01141   0.01437   0.02014   0.02215   0.02707

 Mulliken charges:
               1
     1  Mg   0.701602
     2  C    0.009023
     3  C   -0.056030
     4  C   -0.040269
     5  C   -0.109021
     6  N   -0.154596
     7  C   -0.147876
     8  C    0.040270
     9  C   -0.013884
    10  C   -0.046243
    11  C    0.132199
    12  C    0.111528
    13  C    0.135432
    14  C    0.116625
    15  O   -0.182396
    16  O   -0.305163
    17  N   -0.297019
    18  C    0.162311
    19  C   -0.162753
    20  C    0.019016
    21  C    0.077882
    22  C    0.187744
    23  C   -0.062330
    24  O   -0.167012
    25  C    0.156248
    26  N   -0.271715
    27  C    0.045511
    28  C    0.007400
    29  C    0.027879
    30  C    0.076584
    31  C    0.136914
    32  C    0.083491
    33  C    0.059261
    34  N   -0.296414
    35  C    0.181448
    36  C   -0.187662
    37  C    0.100502
    38  C    0.122988
    39  C    0.161926
    40  C   -0.088210
    41  O   -0.093023
    42  C    0.048155
    43  C    0.101586
    44  O   -0.169579
    45  O   -0.267868
    46  C    0.230525
    47  C    0.303372
    48  C   -0.090612
    49  C   -0.153243
    50  C    0.115118
    51  C    0.113568
    52  C    0.054009
    53  C    0.125667
    54  C   -0.084054
    55  C    0.082881
    56  C    0.097483
    57  C    0.112621
    58  C    0.086518
    59  C   -0.059093
    60  C    0.109872
    61  C    0.080566
    62  C    0.070135
    63  C    0.118363
    64  C   -0.073540
    65  C    0.123402
    66  C    0.098373
    67  H   -0.079750
    68  H   -0.054668
    69  H   -0.076176
    70  H   -0.032908
    71  H   -0.016641
    72  H    0.005869
    73  H   -0.003749
    74  H   -0.007402
    75  H   -0.001845
    76  H    0.007543
    77  H    0.009357
    78  H    0.004457
    79  H    0.004147
    80  H   -0.007088
    81  H    0.010529
    82  H    0.000750
    83  H   -0.005382
    84  H    0.009176
    85  H   -0.014515
    86  H   -0.036026
    87  H   -0.029043
    88  H    0.006373
    89  H   -0.012185
    90  H   -0.027889
    91  H   -0.017210
    92  H   -0.016338
    93  H    0.006442
    94  H   -0.011613
    95  H    0.024114
    96  H   -0.016068
    97  H    0.005819
    98  H   -0.013447
    99  H    0.011916
   100  H   -0.000390
   101  H    0.008607
   102  H    0.008090
   103  H    0.002318
   104  H   -0.035303
   105  H   -0.010021
   106  H   -0.013305
   107  H    0.013747
   108  H   -0.024731
   109  H   -0.023966
   110  H   -0.022051
   111  H   -0.027374
   112  H   -0.032135
   113  H   -0.027236
   114  H   -0.028265
   115  H   -0.013195
   116  H   -0.023277
   117  H   -0.005602
   118  H   -0.042987
   119  H   -0.045071
   120  H   -0.026331
   121  H   -0.019116
   122  H   -0.046512
   123  H   -0.038154
   124  H   -0.047909
   125  H   -0.020203
   126  H   -0.014669
   127  H   -0.011570
   128  H   -0.063181
   129  H   -0.037810
   130  H   -0.035502
   131  H   -0.037847
   132  H   -0.032769
   133  H   -0.050694
   134  H   -0.037700
   135  H   -0.007391
   136  H   -0.012793
   137  H   -0.026384
   138  H   -0.015700
   139  H   -0.013749
   140  H   -0.034819
 Sum of Mulliken charges =  -0.00000

 Dipole moment (field-independent basis, Debye):
    X=             -3.3925    Y=              4.3871    Z=             -2.3659  Tot=              6.0293
 Quadrupole moment (field-independent basis, Debye-Ang):
   XX=           -373.6838   YY=           -430.4283   ZZ=           -401.7969
   XY=              2.8655   XZ=             -3.8706   YZ=             -5.6068

 Normal termination of Gaussian 16 at Thu Apr 28 14:03:55 2022.
