 Gaussian 16, Revision A.03,
 Gaussian 16:  ES64L-G16RevA.03 25-Dec-2016

 -----------------------------------
 #p cam-b3lyp/Def2SVP td=(nstates=5)
 -----------------------------------

 -------------------------------------------------------
 step_1601_chromophore_1 TDDFT with cam-b3lyp functional
 -------------------------------------------------------
 Symbolic Z-matrix:
 Charge =  0 Multiplicity = 1

                         Standard orientation:
 ---------------------------------------------------------------------
 Center     Atomic      Atomic             Coordinates (Angstroms)
 Number     Number       Type             X           Y           Z
 ---------------------------------------------------------------------
      1         12           0        6.222136    0.416705   -0.053768
      2          6           0        4.187419   -2.408650   -0.694317
      3          6           0        3.686609    2.318979   -1.436553
      4          6           0        8.168817    3.147447    0.078178
      5          6           0        8.680972   -1.525928    0.979938
      6          7           0        3.968354   -0.087937   -0.769255
      7          6           0        3.414658   -1.303325   -1.015663
      8          6           0        2.070059   -1.170376   -1.696694
      9          6           0        2.013899    0.417296   -1.966690
     10          6           0        3.316994    0.923301   -1.360546
     11          6           0        1.765866    0.730924   -3.463013
     12          6           0        0.898041   -1.871676   -1.024634
     13          6           0       -0.418788   -1.209072   -1.179703
     14          6           0       -1.568157   -2.159503   -1.041423
     15          8           0       -1.609333   -3.382682   -1.047966
     16          8           0       -2.734378   -1.387952   -0.899279
     17          7           0        5.838170    2.459483   -0.281238
     18          6           0        4.720318    3.055874   -0.888459
     19          6           0        4.864461    4.564591   -0.888169
     20          6           0        6.165249    4.783573   -0.348698
     21          6           0        6.757103    3.486839   -0.188011
     22          6           0        3.829361    5.560223   -1.408298
     23          6           0        6.904596    6.103161   -0.007302
     24          8           0        8.056347    6.163346    0.436421
     25          6           0        6.135281    7.323820   -0.082443
     26          7           0        8.129937    0.781255    0.376529
     27          6           0        8.802080    1.950657    0.278946
     28          6           0       10.271762    1.827029    0.555871
     29          6           0       10.314949    0.335050    1.114435
     30          6           0        8.950115   -0.211223    0.821404
     31          6           0       11.284834    2.026063   -0.642314
     32          6           0       10.845915    0.274609    2.610395
     33          6           0        9.764214    0.114923    3.747960
     34          7           0        6.519912   -1.557172    0.013824
     35          6           0        7.516571   -2.187353    0.638924
     36          6           0        7.309199   -3.614570    0.603452
     37          6           0        5.997815   -3.725113    0.125283
     38          6           0        5.503885   -2.443070   -0.186189
     39          6           0        8.316030   -4.715977    0.988162
     40          6           0        4.967063   -4.698182   -0.123285
     41          8           0        4.932083   -5.882563    0.018267
     42          6           0        3.716335   -3.847313   -0.619807
     43          6           0        2.694389   -4.037700    0.423150
     44          8           0        2.657094   -3.605977    1.545770
     45          8           0        1.695259   -4.774432   -0.127446
     46          6           0        0.581823   -5.183292    0.750287
     47          6           0       -4.010109   -2.137817   -0.670102
     48          6           0       -5.225127   -1.236382   -0.488422
     49          6           0       -6.494966   -1.502193   -0.857050
     50          6           0       -6.926454   -2.892147   -1.350328
     51          6           0       -7.690248   -0.523792   -0.631373
     52          6           0       -8.253029   -0.615845    0.846628
     53          6           0       -8.196936    0.737139    1.714812
     54          6           0       -9.470258    1.602352    1.599162
     55          6           0       -9.130432    3.045551    1.005916
     56          6           0      -10.265974    1.814984    2.937012
     57          6           0      -11.775568    2.012648    2.815952
     58          6           0      -12.481973    0.718472    2.480647
     59          6           0      -14.052789    0.929630    2.336897
     60          6           0      -14.831850    0.302711    3.510604
     61          6           0      -14.577648    0.518720    0.981963
     62          6           0      -14.592049    1.627892   -0.119442
     63          6           0      -13.535047    1.421633   -1.226279
     64          6           0      -13.862739    0.555384   -2.432078
     65          6           0      -13.346441   -0.882172   -2.290855
     66          6           0      -13.502124    1.162246   -3.790702
     67          1           0        2.884145    2.886756   -1.911453
     68          1           0        8.857712    3.992417    0.014204
     69          1           0        9.537600   -2.069254    1.385287
     70          1           0        2.247102   -1.617808   -2.675531
     71          1           0        1.320160    0.894930   -1.274348
     72          1           0        1.188860    0.002842   -4.033156
     73          1           0        2.716000    0.887072   -3.974387
     74          1           0        1.234538    1.683425   -3.468055
     75          1           0        1.070989   -1.973182    0.046258
     76          1           0        0.917202   -2.855224   -1.495678
     77          1           0       -0.427282   -0.593505   -2.079969
     78          1           0       -0.513859   -0.521031   -0.339552
     79          1           0        3.555432    6.113496   -0.510923
     80          1           0        2.952065    5.069696   -1.830497
     81          1           0        4.288620    6.250292   -2.116069
     82          1           0        5.898038    7.567243   -1.116965
     83          1           0        6.700958    8.176383    0.292952
     84          1           0        5.204929    7.137229    0.454539
     85          1           0       10.534941    2.534552    1.342129
     86          1           0       11.055505   -0.207814    0.528070
     87          1           0       10.661708    2.503810   -1.397924
     88          1           0       11.753489    1.179584   -1.143910
     89          1           0       11.948187    2.874871   -0.473160
     90          1           0       11.237332    1.280382    2.768548
     91          1           0       11.655272   -0.441471    2.751612
     92          1           0        9.976945    0.825101    4.547409
     93          1           0        9.600381   -0.910877    4.079091
     94          1           0        8.792940    0.531341    3.482425
     95          1           0        7.670553   -5.455807    1.461600
     96          1           0        9.162267   -4.493697    1.638562
     97          1           0        8.817396   -5.035057    0.074790
     98          1           0        3.391852   -4.268055   -1.570638
     99          1           0       -0.113627   -5.949741    0.409134
    100          1           0       -0.105797   -4.355123    0.919943
    101          1           0        1.000533   -5.508224    1.702322
    102          1           0       -3.962467   -2.786089    0.205128
    103          1           0       -4.256881   -2.786912   -1.510748
    104          1           0       -4.958088   -0.207533   -0.248380
    105          1           0       -7.901733   -3.039528   -0.885332
    106          1           0       -6.198750   -3.576123   -0.912274
    107          1           0       -6.983234   -3.190129   -2.397051
    108          1           0       -8.464522   -0.626038   -1.393233
    109          1           0       -7.275288    0.453413   -0.878683
    110          1           0       -7.903116   -1.452752    1.451033
    111          1           0       -9.277745   -0.938213    0.662973
    112          1           0       -7.363846    1.297187    1.289726
    113          1           0       -7.902526    0.457684    2.726104
    114          1           0      -10.189989    1.118582    0.940196
    115          1           0       -8.848235    3.063720   -0.047451
    116          1           0       -8.174471    3.243308    1.490933
    117          1           0       -9.847941    3.803642    1.318641
    118          1           0       -9.843515    2.694927    3.420762
    119          1           0      -10.007665    0.931989    3.522170
    120          1           0      -11.974022    2.592023    1.914248
    121          1           0      -12.029236    2.459087    3.777281
    122          1           0      -12.259474   -0.107293    3.156972
    123          1           0      -12.193291    0.329472    1.503386
    124          1           0      -14.299203    1.990715    2.360959
    125          1           0      -14.708543   -0.779388    3.481181
    126          1           0      -15.868639    0.537691    3.266563
    127          1           0      -14.478231    0.669374    4.473668
    128          1           0      -15.620489    0.231787    1.113640
    129          1           0      -14.137029   -0.419827    0.646392
    130          1           0      -14.462540    2.619276    0.314093
    131          1           0      -15.618408    1.622256   -0.484481
    132          1           0      -12.622140    1.187348   -0.677973
    133          1           0      -13.351875    2.463094   -1.488951
    134          1           0      -14.930100    0.394828   -2.585400
    135          1           0      -14.240491   -1.495473   -2.187346
    136          1           0      -12.699233   -0.888108   -1.412933
    137          1           0      -12.779450   -1.134100   -3.186535
    138          1           0      -14.303797    1.830078   -4.107439
    139          1           0      -13.110623    0.437453   -4.504884
    140          1           0      -12.710935    1.908917   -3.716374
 ---------------------------------------------------------------------

 SCF Done:  E(RCAM-B3LYP) =  -3007.16547427     A.U. after   18 cycles

 Excitation energies and oscillator strengths:

 Excited State   1:      Singlet-A      1.7314 eV  716.09 nm  f=0.3744  <S**2>=0.000
     245 -> 248        0.17931
     246 -> 247        0.68425
     245 <- 248        0.10614
 This state for optimization and/or second-order correction.
 Total Energy, E(TD-HF/TD-DFT) =  -3007.10184666
 Copying the excited state density for this state as the 1-particle RhoCI density.

 Excited State   2:      Singlet-A      2.2770 eV  544.51 nm  f=0.0920  <S**2>=0.000
     245 -> 247        0.63031
     246 -> 248       -0.30667

 Excited State   3:      Singlet-A      3.4920 eV  355.05 nm  f=0.5354  <S**2>=0.000
     240 -> 247        0.11888
     241 -> 247        0.19775
     242 -> 247       -0.21393
     245 -> 247        0.25421
     246 -> 248        0.56719

 Excited State   4:      Singlet-A      3.5810 eV  346.22 nm  f=0.1012  <S**2>=0.000
     241 -> 247       -0.22944
     242 -> 247        0.21472
     244 -> 247        0.56492
     245 -> 247        0.11400
     246 -> 248        0.20975

 Excited State   5:      Singlet-A      3.6480 eV  339.87 nm  f=0.0001  <S**2>=0.000
     241 -> 247        0.41739
     241 -> 249        0.13644
     241 -> 250       -0.15548
     242 -> 247        0.40528
     242 -> 248        0.11765
     242 -> 249        0.18753
     242 -> 250       -0.20650

 The electronic state is 1-A.
 Alpha  occ. eigenvalues --  -46.87456 -19.24849 -19.23696 -19.21144 -19.19373
 Alpha  occ. eigenvalues --  -19.18719 -19.18659 -14.41811 -14.40510 -14.39843
 Alpha  occ. eigenvalues --  -14.38609 -10.40305 -10.38027 -10.35648 -10.34127
 Alpha  occ. eigenvalues --  -10.32293 -10.31190 -10.31005 -10.30840 -10.30351
 Alpha  occ. eigenvalues --  -10.30110 -10.30094 -10.29902 -10.29211 -10.28415
 Alpha  occ. eigenvalues --  -10.28396 -10.28334 -10.28264 -10.27996 -10.27947
 Alpha  occ. eigenvalues --  -10.27911 -10.27698 -10.27695 -10.27635 -10.27435
 Alpha  occ. eigenvalues --  -10.27080 -10.26960 -10.26875 -10.26656 -10.26576
 Alpha  occ. eigenvalues --  -10.26380 -10.26378 -10.26169 -10.26059 -10.25983
 Alpha  occ. eigenvalues --  -10.25961 -10.25956 -10.25824 -10.25766 -10.25756
 Alpha  occ. eigenvalues --  -10.25432 -10.25231 -10.25152 -10.25078 -10.25062
 Alpha  occ. eigenvalues --  -10.24911 -10.24892 -10.24884 -10.24840 -10.24707
 Alpha  occ. eigenvalues --  -10.24662 -10.24399 -10.24366 -10.24360 -10.24286
 Alpha  occ. eigenvalues --  -10.24214  -3.16277  -1.91170  -1.90734  -1.90591
 Alpha  occ. eigenvalues --   -1.15836  -1.15590  -1.10942  -1.09946  -1.07495
 Alpha  occ. eigenvalues --   -1.07062  -1.04552  -1.03743  -1.03209  -1.01991
 Alpha  occ. eigenvalues --   -0.92631  -0.90759  -0.90261  -0.89649  -0.88880
 Alpha  occ. eigenvalues --   -0.88443  -0.87819  -0.87610  -0.87531  -0.87392
 Alpha  occ. eigenvalues --   -0.85819  -0.85470  -0.84478  -0.83599  -0.83217
 Alpha  occ. eigenvalues --   -0.82727  -0.82201  -0.81357  -0.80978  -0.80227
 Alpha  occ. eigenvalues --   -0.79742  -0.79009  -0.78289  -0.76663  -0.75788
 Alpha  occ. eigenvalues --   -0.75776  -0.75596  -0.75030  -0.74858  -0.74494
 Alpha  occ. eigenvalues --   -0.73551  -0.72570  -0.71896  -0.70601  -0.69391
 Alpha  occ. eigenvalues --   -0.68851  -0.68530  -0.67212  -0.66859  -0.65970
 Alpha  occ. eigenvalues --   -0.65542  -0.64868  -0.64800  -0.64136  -0.63618
 Alpha  occ. eigenvalues --   -0.62915  -0.62756  -0.62684  -0.61306  -0.60390
 Alpha  occ. eigenvalues --   -0.60213  -0.59252  -0.59053  -0.58104  -0.57880
 Alpha  occ. eigenvalues --   -0.57659  -0.57104  -0.56087  -0.55952  -0.55440
 Alpha  occ. eigenvalues --   -0.55056  -0.54507  -0.54331  -0.54184  -0.54002
 Alpha  occ. eigenvalues --   -0.53750  -0.53409  -0.53261  -0.53234  -0.52745
 Alpha  occ. eigenvalues --   -0.52563  -0.52310  -0.52145  -0.52073  -0.51700
 Alpha  occ. eigenvalues --   -0.51672  -0.51390  -0.51095  -0.50721  -0.50644
 Alpha  occ. eigenvalues --   -0.50483  -0.50243  -0.50031  -0.49977  -0.49814
 Alpha  occ. eigenvalues --   -0.49426  -0.49306  -0.48940  -0.48753  -0.48708
 Alpha  occ. eigenvalues --   -0.48468  -0.48405  -0.48113  -0.47996  -0.47821
 Alpha  occ. eigenvalues --   -0.47599  -0.47365  -0.47160  -0.46783  -0.46494
 Alpha  occ. eigenvalues --   -0.46390  -0.46261  -0.46163  -0.45976  -0.45816
 Alpha  occ. eigenvalues --   -0.45746  -0.45486  -0.45034  -0.44757  -0.44675
 Alpha  occ. eigenvalues --   -0.44605  -0.44525  -0.44405  -0.44083  -0.44063
 Alpha  occ. eigenvalues --   -0.43959  -0.43780  -0.43477  -0.43358  -0.43094
 Alpha  occ. eigenvalues --   -0.43004  -0.42869  -0.42550  -0.42407  -0.42276
 Alpha  occ. eigenvalues --   -0.42160  -0.41916  -0.41777  -0.41587  -0.40805
 Alpha  occ. eigenvalues --   -0.40407  -0.40388  -0.40232  -0.39928  -0.39454
 Alpha  occ. eigenvalues --   -0.39386  -0.39228  -0.39205  -0.38625  -0.38484
 Alpha  occ. eigenvalues --   -0.38195  -0.38085  -0.37740  -0.37505  -0.37386
 Alpha  occ. eigenvalues --   -0.37252  -0.36941  -0.36788  -0.36527  -0.35746
 Alpha  occ. eigenvalues --   -0.35726  -0.35425  -0.35368  -0.35195  -0.34517
 Alpha  occ. eigenvalues --   -0.34284  -0.33747  -0.33050  -0.31757  -0.31045
 Alpha  occ. eigenvalues --   -0.30310  -0.30164  -0.29841  -0.29598  -0.23868
 Alpha  occ. eigenvalues --   -0.20700
 Alpha virt. eigenvalues --   -0.08153  -0.01375   0.00511   0.02936   0.04011
 Alpha virt. eigenvalues --    0.04182   0.05262   0.05576   0.06307   0.06932
 Alpha virt. eigenvalues --    0.07328   0.07848   0.08358   0.08941   0.09110

 Mulliken charges:
               1
     1  Mg   0.838333
     2  C   -0.008829
     3  C   -0.067158
     4  C   -0.063328
     5  C   -0.116409
     6  N   -0.216364
     7  C   -0.111398
     8  C    0.002360
     9  C   -0.076748
    10  C   -0.018498
    11  C    0.068738
    12  C    0.051351
    13  C    0.059369
    14  C    0.200323
    15  O   -0.223088
    16  O   -0.371863
    17  N   -0.381632
    18  C    0.167307
    19  C   -0.160861
    20  C   -0.051251
    21  C    0.104176
    22  C    0.132702
    23  C    0.026513
    24  O   -0.205080
    25  C    0.065121
    26  N   -0.356519
    27  C    0.069494
    28  C   -0.046727
    29  C   -0.026631
    30  C    0.089955
    31  C    0.075773
    32  C    0.028443
    33  C   -0.000424
    34  N   -0.385128
    35  C    0.182727
    36  C   -0.183466
    37  C    0.017178
    38  C    0.152636
    39  C    0.116336
    40  C    0.009089
    41  O   -0.132928
    42  C   -0.029171
    43  C    0.187323
    44  O   -0.204561
    45  O   -0.331051
    46  C    0.192371
    47  C    0.272634
    48  C   -0.108426
    49  C   -0.176213
    50  C    0.054431
    51  C    0.059198
    52  C    0.002231
    53  C    0.068798
    54  C   -0.134172
    55  C    0.028927
    56  C    0.043433
    57  C    0.057088
    58  C    0.036445
    59  C   -0.114737
    60  C    0.056640
    61  C    0.023073
    62  C    0.020059
    63  C    0.061115
    64  C   -0.135153
    65  C    0.066398
    66  C    0.039292
    67  H   -0.044737
    68  H   -0.016466
    69  H   -0.041297
    70  H    0.003758
    71  H    0.016983
    72  H    0.030634
    73  H    0.023629
    74  H    0.016119
    75  H    0.027797
    76  H    0.041323
    77  H    0.041159
    78  H    0.038664
    79  H    0.031109
    80  H    0.021778
    81  H    0.037159
    82  H    0.029268
    83  H    0.032177
    84  H    0.035113
    85  H    0.020686
    86  H    0.000414
    87  H   -0.002951
    88  H    0.031491
    89  H    0.013576
    90  H   -0.000176
    91  H    0.010576
    92  H    0.007615
    93  H    0.028483
    94  H    0.010931
    95  H    0.046909
    96  H    0.008424
    97  H    0.030353
    98  H    0.032312
    99  H    0.036500
   100  H    0.019875
   101  H    0.033494
   102  H    0.034560
   103  H    0.028821
   104  H   -0.000972
   105  H    0.013135
   106  H    0.008933
   107  H    0.038907
   108  H    0.005807
   109  H    0.003652
   110  H    0.007314
   111  H   -0.001710
   112  H   -0.004508
   113  H    0.003161
   114  H   -0.002237
   115  H    0.010384
   116  H   -0.000534
   117  H    0.017673
   118  H   -0.013028
   119  H   -0.015515
   120  H   -0.003321
   121  H    0.009291
   122  H   -0.016720
   123  H   -0.014656
   124  H   -0.015441
   125  H    0.002559
   126  H    0.008279
   127  H    0.012358
   128  H   -0.029648
   129  H   -0.010742
   130  H   -0.006738
   131  H   -0.008245
   132  H   -0.010152
   133  H   -0.018744
   134  H   -0.004832
   135  H    0.015945
   136  H    0.006941
   137  H   -0.001528
   138  H    0.008596
   139  H    0.010573
   140  H   -0.009864
 Sum of Mulliken charges =  -0.00000

 Dipole moment (field-independent basis, Debye):
    X=             -3.8047    Y=              5.4930    Z=             -2.7120  Tot=              7.2113
 Quadrupole moment (field-independent basis, Debye-Ang):
   XX=           -377.2487   YY=           -425.3249   ZZ=           -401.5091
   XY=              8.4158   XZ=             -5.1555   YZ=             -6.7567

 Normal termination of Gaussian 16 at Thu Apr 28 13:02:08 2022.
