 Gaussian 16, Revision A.03,
 Gaussian 16:  ES64L-G16RevA.03 25-Dec-2016

 ---------------------------------
 #p PBE1PBE/Def2SVP td=(nstates=5)
 ---------------------------------

 -----------------------------------------------------
 step_1601_chromophore_1 TDDFT with PBE1PBE functional
 -----------------------------------------------------
 Symbolic Z-matrix:
 Charge =  0 Multiplicity = 1

                         Standard orientation:
 ---------------------------------------------------------------------
 Center     Atomic      Atomic             Coordinates (Angstroms)
 Number     Number       Type             X           Y           Z
 ---------------------------------------------------------------------
      1         12           0        6.222136    0.416705   -0.053768
      2          6           0        4.187419   -2.408650   -0.694317
      3          6           0        3.686609    2.318979   -1.436553
      4          6           0        8.168817    3.147447    0.078178
      5          6           0        8.680972   -1.525928    0.979938
      6          7           0        3.968354   -0.087937   -0.769255
      7          6           0        3.414658   -1.303325   -1.015663
      8          6           0        2.070059   -1.170376   -1.696694
      9          6           0        2.013899    0.417296   -1.966690
     10          6           0        3.316994    0.923301   -1.360546
     11          6           0        1.765866    0.730924   -3.463013
     12          6           0        0.898041   -1.871676   -1.024634
     13          6           0       -0.418788   -1.209072   -1.179703
     14          6           0       -1.568157   -2.159503   -1.041423
     15          8           0       -1.609333   -3.382682   -1.047966
     16          8           0       -2.734378   -1.387952   -0.899279
     17          7           0        5.838170    2.459483   -0.281238
     18          6           0        4.720318    3.055874   -0.888459
     19          6           0        4.864461    4.564591   -0.888169
     20          6           0        6.165249    4.783573   -0.348698
     21          6           0        6.757103    3.486839   -0.188011
     22          6           0        3.829361    5.560223   -1.408298
     23          6           0        6.904596    6.103161   -0.007302
     24          8           0        8.056347    6.163346    0.436421
     25          6           0        6.135281    7.323820   -0.082443
     26          7           0        8.129937    0.781255    0.376529
     27          6           0        8.802080    1.950657    0.278946
     28          6           0       10.271762    1.827029    0.555871
     29          6           0       10.314949    0.335050    1.114435
     30          6           0        8.950115   -0.211223    0.821404
     31          6           0       11.284834    2.026063   -0.642314
     32          6           0       10.845915    0.274609    2.610395
     33          6           0        9.764214    0.114923    3.747960
     34          7           0        6.519912   -1.557172    0.013824
     35          6           0        7.516571   -2.187353    0.638924
     36          6           0        7.309199   -3.614570    0.603452
     37          6           0        5.997815   -3.725113    0.125283
     38          6           0        5.503885   -2.443070   -0.186189
     39          6           0        8.316030   -4.715977    0.988162
     40          6           0        4.967063   -4.698182   -0.123285
     41          8           0        4.932083   -5.882563    0.018267
     42          6           0        3.716335   -3.847313   -0.619807
     43          6           0        2.694389   -4.037700    0.423150
     44          8           0        2.657094   -3.605977    1.545770
     45          8           0        1.695259   -4.774432   -0.127446
     46          6           0        0.581823   -5.183292    0.750287
     47          6           0       -4.010109   -2.137817   -0.670102
     48          6           0       -5.225127   -1.236382   -0.488422
     49          6           0       -6.494966   -1.502193   -0.857050
     50          6           0       -6.926454   -2.892147   -1.350328
     51          6           0       -7.690248   -0.523792   -0.631373
     52          6           0       -8.253029   -0.615845    0.846628
     53          6           0       -8.196936    0.737139    1.714812
     54          6           0       -9.470258    1.602352    1.599162
     55          6           0       -9.130432    3.045551    1.005916
     56          6           0      -10.265974    1.814984    2.937012
     57          6           0      -11.775568    2.012648    2.815952
     58          6           0      -12.481973    0.718472    2.480647
     59          6           0      -14.052789    0.929630    2.336897
     60          6           0      -14.831850    0.302711    3.510604
     61          6           0      -14.577648    0.518720    0.981963
     62          6           0      -14.592049    1.627892   -0.119442
     63          6           0      -13.535047    1.421633   -1.226279
     64          6           0      -13.862739    0.555384   -2.432078
     65          6           0      -13.346441   -0.882172   -2.290855
     66          6           0      -13.502124    1.162246   -3.790702
     67          1           0        2.884145    2.886756   -1.911453
     68          1           0        8.857712    3.992417    0.014204
     69          1           0        9.537600   -2.069254    1.385287
     70          1           0        2.247102   -1.617808   -2.675531
     71          1           0        1.320160    0.894930   -1.274348
     72          1           0        1.188860    0.002842   -4.033156
     73          1           0        2.716000    0.887072   -3.974387
     74          1           0        1.234538    1.683425   -3.468055
     75          1           0        1.070989   -1.973182    0.046258
     76          1           0        0.917202   -2.855224   -1.495678
     77          1           0       -0.427282   -0.593505   -2.079969
     78          1           0       -0.513859   -0.521031   -0.339552
     79          1           0        3.555432    6.113496   -0.510923
     80          1           0        2.952065    5.069696   -1.830497
     81          1           0        4.288620    6.250292   -2.116069
     82          1           0        5.898038    7.567243   -1.116965
     83          1           0        6.700958    8.176383    0.292952
     84          1           0        5.204929    7.137229    0.454539
     85          1           0       10.534941    2.534552    1.342129
     86          1           0       11.055505   -0.207814    0.528070
     87          1           0       10.661708    2.503810   -1.397924
     88          1           0       11.753489    1.179584   -1.143910
     89          1           0       11.948187    2.874871   -0.473160
     90          1           0       11.237332    1.280382    2.768548
     91          1           0       11.655272   -0.441471    2.751612
     92          1           0        9.976945    0.825101    4.547409
     93          1           0        9.600381   -0.910877    4.079091
     94          1           0        8.792940    0.531341    3.482425
     95          1           0        7.670553   -5.455807    1.461600
     96          1           0        9.162267   -4.493697    1.638562
     97          1           0        8.817396   -5.035057    0.074790
     98          1           0        3.391852   -4.268055   -1.570638
     99          1           0       -0.113627   -5.949741    0.409134
    100          1           0       -0.105797   -4.355123    0.919943
    101          1           0        1.000533   -5.508224    1.702322
    102          1           0       -3.962467   -2.786089    0.205128
    103          1           0       -4.256881   -2.786912   -1.510748
    104          1           0       -4.958088   -0.207533   -0.248380
    105          1           0       -7.901733   -3.039528   -0.885332
    106          1           0       -6.198750   -3.576123   -0.912274
    107          1           0       -6.983234   -3.190129   -2.397051
    108          1           0       -8.464522   -0.626038   -1.393233
    109          1           0       -7.275288    0.453413   -0.878683
    110          1           0       -7.903116   -1.452752    1.451033
    111          1           0       -9.277745   -0.938213    0.662973
    112          1           0       -7.363846    1.297187    1.289726
    113          1           0       -7.902526    0.457684    2.726104
    114          1           0      -10.189989    1.118582    0.940196
    115          1           0       -8.848235    3.063720   -0.047451
    116          1           0       -8.174471    3.243308    1.490933
    117          1           0       -9.847941    3.803642    1.318641
    118          1           0       -9.843515    2.694927    3.420762
    119          1           0      -10.007665    0.931989    3.522170
    120          1           0      -11.974022    2.592023    1.914248
    121          1           0      -12.029236    2.459087    3.777281
    122          1           0      -12.259474   -0.107293    3.156972
    123          1           0      -12.193291    0.329472    1.503386
    124          1           0      -14.299203    1.990715    2.360959
    125          1           0      -14.708543   -0.779388    3.481181
    126          1           0      -15.868639    0.537691    3.266563
    127          1           0      -14.478231    0.669374    4.473668
    128          1           0      -15.620489    0.231787    1.113640
    129          1           0      -14.137029   -0.419827    0.646392
    130          1           0      -14.462540    2.619276    0.314093
    131          1           0      -15.618408    1.622256   -0.484481
    132          1           0      -12.622140    1.187348   -0.677973
    133          1           0      -13.351875    2.463094   -1.488951
    134          1           0      -14.930100    0.394828   -2.585400
    135          1           0      -14.240491   -1.495473   -2.187346
    136          1           0      -12.699233   -0.888108   -1.412933
    137          1           0      -12.779450   -1.134100   -3.186535
    138          1           0      -14.303797    1.830078   -4.107439
    139          1           0      -13.110623    0.437453   -4.504884
    140          1           0      -12.710935    1.908917   -3.716374
 ---------------------------------------------------------------------

 SCF Done:  E(RPBE1PBE) =  -3005.35254610     A.U. after   16 cycles

 Excitation energies and oscillator strengths:

 Excited State   1:      Singlet-A      1.8723 eV  662.19 nm  f=0.3594  <S**2>=0.000
     245 -> 248       -0.17605
     246 -> 247        0.69224
     246 <- 247       -0.10801
 This state for optimization and/or second-order correction.
 Total Energy, E(TD-HF/TD-DFT) =  -3005.28373857
 Copying the excited state density for this state as the 1-particle RhoCI density.

 Excited State   2:      Singlet-A      2.2660 eV  547.16 nm  f=0.0973  <S**2>=0.000
     245 -> 247        0.64570
     246 -> 248        0.27900

 Excited State   3:      Singlet-A      3.0923 eV  400.95 nm  f=0.0007  <S**2>=0.000
     243 -> 247        0.67792
     243 -> 249        0.12816
     243 -> 250        0.11217

 Excited State   4:      Singlet-A      3.2218 eV  384.83 nm  f=0.0004  <S**2>=0.000
     241 -> 247       -0.21434
     242 -> 247        0.66416

 Excited State   5:      Singlet-A      3.2897 eV  376.89 nm  f=0.0933  <S**2>=0.000
     239 -> 247        0.18851
     240 -> 247        0.53124
     240 -> 249       -0.17887
     241 -> 247        0.11526
     245 -> 247        0.11448
     246 -> 248       -0.30249

 The electronic state is 1-A.
 Alpha  occ. eigenvalues --  -46.90886 -19.25558 -19.24355 -19.21390 -19.19448
 Alpha  occ. eigenvalues --  -19.18978 -19.18924 -14.41129 -14.40249 -14.39419
 Alpha  occ. eigenvalues --  -14.38355 -10.37325 -10.35031 -10.32616 -10.31377
 Alpha  occ. eigenvalues --  -10.29703 -10.28797 -10.28450 -10.28345 -10.27981
 Alpha  occ. eigenvalues --  -10.27724 -10.27498 -10.27343 -10.27081 -10.26221
 Alpha  occ. eigenvalues --  -10.26215 -10.26159 -10.25825 -10.25639 -10.25432
 Alpha  occ. eigenvalues --  -10.25392 -10.25363 -10.25354 -10.25309 -10.25096
 Alpha  occ. eigenvalues --  -10.25070 -10.24606 -10.24547 -10.24379 -10.24139
 Alpha  occ. eigenvalues --  -10.24118 -10.23771 -10.23766 -10.23573 -10.23526
 Alpha  occ. eigenvalues --  -10.23512 -10.23446 -10.23348 -10.23339 -10.23282
 Alpha  occ. eigenvalues --  -10.23076 -10.23033 -10.22767 -10.22749 -10.22652
 Alpha  occ. eigenvalues --  -10.22598 -10.22456 -10.22389 -10.22255 -10.22253
 Alpha  occ. eigenvalues --  -10.22209 -10.22174 -10.21780 -10.21764 -10.21752
 Alpha  occ. eigenvalues --  -10.21745  -3.13280  -1.86115  -1.85657  -1.85518
 Alpha  occ. eigenvalues --   -1.10593  -1.10365  -1.05815  -1.04521  -1.02363
 Alpha  occ. eigenvalues --   -1.01890  -0.99311  -0.98363  -0.97946  -0.96508
 Alpha  occ. eigenvalues --   -0.87057  -0.84963  -0.84323  -0.83761  -0.82980
 Alpha  occ. eigenvalues --   -0.82746  -0.82011  -0.81826  -0.81749  -0.81641
 Alpha  occ. eigenvalues --   -0.80076  -0.79929  -0.78619  -0.77762  -0.77557
 Alpha  occ. eigenvalues --   -0.76873  -0.76407  -0.75592  -0.75213  -0.74610
 Alpha  occ. eigenvalues --   -0.73938  -0.73169  -0.72587  -0.71031  -0.70154
 Alpha  occ. eigenvalues --   -0.69862  -0.69735  -0.69385  -0.69005  -0.68629
 Alpha  occ. eigenvalues --   -0.67870  -0.67036  -0.66266  -0.64957  -0.63820
 Alpha  occ. eigenvalues --   -0.63248  -0.62849  -0.61488  -0.61185  -0.60276
 Alpha  occ. eigenvalues --   -0.59870  -0.59418  -0.59326  -0.58759  -0.57784
 Alpha  occ. eigenvalues --   -0.57212  -0.57046  -0.56881  -0.55930  -0.54765
 Alpha  occ. eigenvalues --   -0.54647  -0.53833  -0.53624  -0.52706  -0.52359
 Alpha  occ. eigenvalues --   -0.52099  -0.51690  -0.50615  -0.50513  -0.49954
 Alpha  occ. eigenvalues --   -0.49567  -0.49069  -0.48749  -0.48704  -0.48561
 Alpha  occ. eigenvalues --   -0.48033  -0.47865  -0.47737  -0.47658  -0.47193
 Alpha  occ. eigenvalues --   -0.47155  -0.46869  -0.46634  -0.46530  -0.46301
 Alpha  occ. eigenvalues --   -0.46140  -0.45979  -0.45644  -0.45326  -0.45153
 Alpha  occ. eigenvalues --   -0.45013  -0.44883  -0.44601  -0.44502  -0.44320
 Alpha  occ. eigenvalues --   -0.43982  -0.43755  -0.43598  -0.43378  -0.43291
 Alpha  occ. eigenvalues --   -0.43092  -0.42963  -0.42749  -0.42676  -0.42408
 Alpha  occ. eigenvalues --   -0.42256  -0.42017  -0.41726  -0.41434  -0.41245
 Alpha  occ. eigenvalues --   -0.41112  -0.40876  -0.40838  -0.40658  -0.40562
 Alpha  occ. eigenvalues --   -0.40544  -0.40206  -0.39673  -0.39547  -0.39450
 Alpha  occ. eigenvalues --   -0.39364  -0.39239  -0.39097  -0.38789  -0.38772
 Alpha  occ. eigenvalues --   -0.38716  -0.38636  -0.38227  -0.38119  -0.37871
 Alpha  occ. eigenvalues --   -0.37838  -0.37551  -0.37455  -0.37309  -0.37154
 Alpha  occ. eigenvalues --   -0.36951  -0.36633  -0.36590  -0.36375  -0.35672
 Alpha  occ. eigenvalues --   -0.35189  -0.35186  -0.35151  -0.34716  -0.34333
 Alpha  occ. eigenvalues --   -0.34179  -0.34142  -0.34042  -0.33514  -0.33379
 Alpha  occ. eigenvalues --   -0.33222  -0.32902  -0.32567  -0.32540  -0.32223
 Alpha  occ. eigenvalues --   -0.32164  -0.32026  -0.31647  -0.31313  -0.30734
 Alpha  occ. eigenvalues --   -0.30655  -0.30345  -0.30331  -0.30040  -0.29487
 Alpha  occ. eigenvalues --   -0.29470  -0.28772  -0.28371  -0.26823  -0.26129
 Alpha  occ. eigenvalues --   -0.25831  -0.25369  -0.25234  -0.25091  -0.20747
 Alpha  occ. eigenvalues --   -0.18345
 Alpha virt. eigenvalues --   -0.10687  -0.04872  -0.03725  -0.01523  -0.00558
 Alpha virt. eigenvalues --    0.00758   0.01361   0.01850   0.02153   0.02525
 Alpha virt. eigenvalues --    0.03964   0.04089   0.04849   0.05365   0.05646

 Mulliken charges:
               1
     1  Mg   0.995635
     2  C   -0.026958
     3  C   -0.066839
     4  C   -0.050998
     5  C   -0.095849
     6  N   -0.322146
     7  C   -0.030102
     8  C   -0.059728
     9  C   -0.164218
    10  C    0.032277
    11  C    0.008011
    12  C   -0.003796
    13  C   -0.021834
    14  C    0.268214
    15  O   -0.257088
    16  O   -0.402516
    17  N   -0.487705
    18  C    0.182329
    19  C   -0.184962
    20  C   -0.093851
    21  C    0.126698
    22  C    0.069384
    23  C    0.079810
    24  O   -0.244475
    25  C   -0.010560
    26  N   -0.470221
    27  C    0.097160
    28  C   -0.121482
    29  C   -0.093103
    30  C    0.117298
    31  C    0.017078
    32  C   -0.035044
    33  C   -0.073289
    34  N   -0.513344
    35  C    0.196091
    36  C   -0.184658
    37  C   -0.046021
    38  C    0.210200
    39  C    0.064582
    40  C    0.105861
    41  O   -0.180461
    42  C   -0.134994
    43  C    0.279947
    44  O   -0.241568
    45  O   -0.363552
    46  C    0.135574
    47  C    0.230637
    48  C   -0.115454
    49  C   -0.221779
    50  C   -0.009187
    51  C   -0.001997
    52  C   -0.057702
    53  C    0.013855
    54  C   -0.219235
    55  C   -0.034218
    56  C   -0.010867
    57  C   -0.019413
    58  C   -0.011884
    59  C   -0.198141
    60  C   -0.006821
    61  C   -0.032567
    62  C   -0.038128
    63  C   -0.006230
    64  C   -0.224903
    65  C    0.005604
    66  C   -0.020682
    67  H   -0.011543
    68  H    0.016157
    69  H   -0.007230
    70  H    0.043859
    71  H    0.055739
    72  H    0.056178
    73  H    0.052086
    74  H    0.043554
    75  H    0.061584
    76  H    0.075377
    77  H    0.075313
    78  H    0.071624
    79  H    0.058537
    80  H    0.048364
    81  H    0.063535
    82  H    0.056558
    83  H    0.058900
    84  H    0.062296
    85  H    0.056021
    86  H    0.038582
    87  H    0.026629
    88  H    0.056791
    89  H    0.041435
    90  H    0.034383
    91  H    0.041979
    92  H    0.036559
    93  H    0.055283
    94  H    0.041480
    95  H    0.074305
    96  H    0.035392
    97  H    0.059409
    98  H    0.068347
    99  H    0.058216
   100  H    0.043955
   101  H    0.055168
   102  H    0.061147
   103  H    0.055797
   104  H    0.029093
   105  H    0.041910
   106  H    0.036697
   107  H    0.065243
   108  H    0.037073
   109  H    0.035366
   110  H    0.038523
   111  H    0.030440
   112  H    0.028440
   113  H    0.033940
   114  H    0.040641
   115  H    0.038679
   116  H    0.027987
   117  H    0.044849
   118  H    0.020091
   119  H    0.018538
   120  H    0.033065
   121  H    0.041624
   122  H    0.015073
   123  H    0.018835
   124  H    0.023482
   125  H    0.031139
   126  H    0.036284
   127  H    0.040568
   128  H    0.003690
   129  H    0.023805
   130  H    0.023557
   131  H    0.024322
   132  H    0.028148
   133  H    0.015052
   134  H    0.033155
   135  H    0.042786
   136  H    0.033101
   137  H    0.025981
   138  H    0.036207
   139  H    0.036900
   140  H    0.018274
 Sum of Mulliken charges =  -0.00000

 Dipole moment (field-independent basis, Debye):
    X=             -3.5540    Y=              5.0710    Z=             -2.5735  Tot=              6.7058
 Quadrupole moment (field-independent basis, Debye-Ang):
   XX=           -368.3499   YY=           -423.1821   ZZ=           -398.9087
   XY=              5.5886   XZ=             -3.7817   YZ=             -6.8060

 Normal termination of Gaussian 16 at Thu Apr 28 13:24:21 2022.
