 Gaussian 16, Revision A.03,
 Gaussian 16:  ES64L-G16RevA.03 25-Dec-2016

 --------------------------------
 #p wB97XD/Def2SVP td=(nstates=5)
 --------------------------------

 ----------------------------------------------------
 step_1601_chromophore_1 TDDFT with wB97XD functional
 ----------------------------------------------------
 Symbolic Z-matrix:
 Charge =  0 Multiplicity = 1

                         Standard orientation:
 ---------------------------------------------------------------------
 Center     Atomic      Atomic             Coordinates (Angstroms)
 Number     Number       Type             X           Y           Z
 ---------------------------------------------------------------------
      1         12           0        6.222136    0.416705   -0.053768
      2          6           0        4.187419   -2.408650   -0.694317
      3          6           0        3.686609    2.318979   -1.436553
      4          6           0        8.168817    3.147447    0.078178
      5          6           0        8.680972   -1.525928    0.979938
      6          7           0        3.968354   -0.087937   -0.769255
      7          6           0        3.414658   -1.303325   -1.015663
      8          6           0        2.070059   -1.170376   -1.696694
      9          6           0        2.013899    0.417296   -1.966690
     10          6           0        3.316994    0.923301   -1.360546
     11          6           0        1.765866    0.730924   -3.463013
     12          6           0        0.898041   -1.871676   -1.024634
     13          6           0       -0.418788   -1.209072   -1.179703
     14          6           0       -1.568157   -2.159503   -1.041423
     15          8           0       -1.609333   -3.382682   -1.047966
     16          8           0       -2.734378   -1.387952   -0.899279
     17          7           0        5.838170    2.459483   -0.281238
     18          6           0        4.720318    3.055874   -0.888459
     19          6           0        4.864461    4.564591   -0.888169
     20          6           0        6.165249    4.783573   -0.348698
     21          6           0        6.757103    3.486839   -0.188011
     22          6           0        3.829361    5.560223   -1.408298
     23          6           0        6.904596    6.103161   -0.007302
     24          8           0        8.056347    6.163346    0.436421
     25          6           0        6.135281    7.323820   -0.082443
     26          7           0        8.129937    0.781255    0.376529
     27          6           0        8.802080    1.950657    0.278946
     28          6           0       10.271762    1.827029    0.555871
     29          6           0       10.314949    0.335050    1.114435
     30          6           0        8.950115   -0.211223    0.821404
     31          6           0       11.284834    2.026063   -0.642314
     32          6           0       10.845915    0.274609    2.610395
     33          6           0        9.764214    0.114923    3.747960
     34          7           0        6.519912   -1.557172    0.013824
     35          6           0        7.516571   -2.187353    0.638924
     36          6           0        7.309199   -3.614570    0.603452
     37          6           0        5.997815   -3.725113    0.125283
     38          6           0        5.503885   -2.443070   -0.186189
     39          6           0        8.316030   -4.715977    0.988162
     40          6           0        4.967063   -4.698182   -0.123285
     41          8           0        4.932083   -5.882563    0.018267
     42          6           0        3.716335   -3.847313   -0.619807
     43          6           0        2.694389   -4.037700    0.423150
     44          8           0        2.657094   -3.605977    1.545770
     45          8           0        1.695259   -4.774432   -0.127446
     46          6           0        0.581823   -5.183292    0.750287
     47          6           0       -4.010109   -2.137817   -0.670102
     48          6           0       -5.225127   -1.236382   -0.488422
     49          6           0       -6.494966   -1.502193   -0.857050
     50          6           0       -6.926454   -2.892147   -1.350328
     51          6           0       -7.690248   -0.523792   -0.631373
     52          6           0       -8.253029   -0.615845    0.846628
     53          6           0       -8.196936    0.737139    1.714812
     54          6           0       -9.470258    1.602352    1.599162
     55          6           0       -9.130432    3.045551    1.005916
     56          6           0      -10.265974    1.814984    2.937012
     57          6           0      -11.775568    2.012648    2.815952
     58          6           0      -12.481973    0.718472    2.480647
     59          6           0      -14.052789    0.929630    2.336897
     60          6           0      -14.831850    0.302711    3.510604
     61          6           0      -14.577648    0.518720    0.981963
     62          6           0      -14.592049    1.627892   -0.119442
     63          6           0      -13.535047    1.421633   -1.226279
     64          6           0      -13.862739    0.555384   -2.432078
     65          6           0      -13.346441   -0.882172   -2.290855
     66          6           0      -13.502124    1.162246   -3.790702
     67          1           0        2.884145    2.886756   -1.911453
     68          1           0        8.857712    3.992417    0.014204
     69          1           0        9.537600   -2.069254    1.385287
     70          1           0        2.247102   -1.617808   -2.675531
     71          1           0        1.320160    0.894930   -1.274348
     72          1           0        1.188860    0.002842   -4.033156
     73          1           0        2.716000    0.887072   -3.974387
     74          1           0        1.234538    1.683425   -3.468055
     75          1           0        1.070989   -1.973182    0.046258
     76          1           0        0.917202   -2.855224   -1.495678
     77          1           0       -0.427282   -0.593505   -2.079969
     78          1           0       -0.513859   -0.521031   -0.339552
     79          1           0        3.555432    6.113496   -0.510923
     80          1           0        2.952065    5.069696   -1.830497
     81          1           0        4.288620    6.250292   -2.116069
     82          1           0        5.898038    7.567243   -1.116965
     83          1           0        6.700958    8.176383    0.292952
     84          1           0        5.204929    7.137229    0.454539
     85          1           0       10.534941    2.534552    1.342129
     86          1           0       11.055505   -0.207814    0.528070
     87          1           0       10.661708    2.503810   -1.397924
     88          1           0       11.753489    1.179584   -1.143910
     89          1           0       11.948187    2.874871   -0.473160
     90          1           0       11.237332    1.280382    2.768548
     91          1           0       11.655272   -0.441471    2.751612
     92          1           0        9.976945    0.825101    4.547409
     93          1           0        9.600381   -0.910877    4.079091
     94          1           0        8.792940    0.531341    3.482425
     95          1           0        7.670553   -5.455807    1.461600
     96          1           0        9.162267   -4.493697    1.638562
     97          1           0        8.817396   -5.035057    0.074790
     98          1           0        3.391852   -4.268055   -1.570638
     99          1           0       -0.113627   -5.949741    0.409134
    100          1           0       -0.105797   -4.355123    0.919943
    101          1           0        1.000533   -5.508224    1.702322
    102          1           0       -3.962467   -2.786089    0.205128
    103          1           0       -4.256881   -2.786912   -1.510748
    104          1           0       -4.958088   -0.207533   -0.248380
    105          1           0       -7.901733   -3.039528   -0.885332
    106          1           0       -6.198750   -3.576123   -0.912274
    107          1           0       -6.983234   -3.190129   -2.397051
    108          1           0       -8.464522   -0.626038   -1.393233
    109          1           0       -7.275288    0.453413   -0.878683
    110          1           0       -7.903116   -1.452752    1.451033
    111          1           0       -9.277745   -0.938213    0.662973
    112          1           0       -7.363846    1.297187    1.289726
    113          1           0       -7.902526    0.457684    2.726104
    114          1           0      -10.189989    1.118582    0.940196
    115          1           0       -8.848235    3.063720   -0.047451
    116          1           0       -8.174471    3.243308    1.490933
    117          1           0       -9.847941    3.803642    1.318641
    118          1           0       -9.843515    2.694927    3.420762
    119          1           0      -10.007665    0.931989    3.522170
    120          1           0      -11.974022    2.592023    1.914248
    121          1           0      -12.029236    2.459087    3.777281
    122          1           0      -12.259474   -0.107293    3.156972
    123          1           0      -12.193291    0.329472    1.503386
    124          1           0      -14.299203    1.990715    2.360959
    125          1           0      -14.708543   -0.779388    3.481181
    126          1           0      -15.868639    0.537691    3.266563
    127          1           0      -14.478231    0.669374    4.473668
    128          1           0      -15.620489    0.231787    1.113640
    129          1           0      -14.137029   -0.419827    0.646392
    130          1           0      -14.462540    2.619276    0.314093
    131          1           0      -15.618408    1.622256   -0.484481
    132          1           0      -12.622140    1.187348   -0.677973
    133          1           0      -13.351875    2.463094   -1.488951
    134          1           0      -14.930100    0.394828   -2.585400
    135          1           0      -14.240491   -1.495473   -2.187346
    136          1           0      -12.699233   -0.888108   -1.412933
    137          1           0      -12.779450   -1.134100   -3.186535
    138          1           0      -14.303797    1.830078   -4.107439
    139          1           0      -13.110623    0.437453   -4.504884
    140          1           0      -12.710935    1.908917   -3.716374
 ---------------------------------------------------------------------

 SCF Done:  E(RwB97XD) =  -3007.86472202     A.U. after   19 cycles

 Excitation energies and oscillator strengths:

 Excited State   1:      Singlet-A      1.6826 eV  736.86 nm  f=0.3729  <S**2>=0.000
     245 -> 248        0.18386
     246 -> 247        0.68171
     245 <- 248        0.11434
 This state for optimization and/or second-order correction.
 Total Energy, E(TD-HF/TD-DFT) =  -3007.80288793
 Copying the excited state density for this state as the 1-particle RhoCI density.

 Excited State   2:      Singlet-A      2.2260 eV  556.97 nm  f=0.0895  <S**2>=0.000
     245 -> 247        0.62855
     246 -> 248       -0.30734

 Excited State   3:      Singlet-A      3.4982 eV  354.42 nm  f=0.5045  <S**2>=0.000
     240 -> 247       -0.12934
     241 -> 247        0.29931
     242 -> 247       -0.10762
     245 -> 247        0.24072
     246 -> 248        0.55172
     245 <- 247       -0.10014

 Excited State   4:      Singlet-A      3.6056 eV  343.86 nm  f=0.1534  <S**2>=0.000
     240 -> 247        0.10445
     241 -> 247       -0.32883
     244 -> 247        0.52196
     245 -> 247        0.13910
     246 -> 248        0.24762

 Excited State   5:      Singlet-A      3.6900 eV  336.00 nm  f=0.0003  <S**2>=0.000
     241 -> 247        0.17609
     242 -> 247        0.52863
     242 -> 248        0.15335
     242 -> 249        0.24676
     242 -> 250        0.27647

 The electronic state is 1-A.
 Alpha  occ. eigenvalues --  -46.93790 -19.30115 -19.28897 -19.26057 -19.24454
 Alpha  occ. eigenvalues --  -19.23654 -19.23624 -14.46430 -14.45076 -14.44505
 Alpha  occ. eigenvalues --  -14.43170 -10.44108 -10.41842 -10.39655 -10.38092
 Alpha  occ. eigenvalues --  -10.36208 -10.35245 -10.35134 -10.34977 -10.34618
 Alpha  occ. eigenvalues --  -10.34068 -10.33949 -10.33858 -10.33159 -10.32469
 Alpha  occ. eigenvalues --  -10.32418 -10.32261 -10.32212 -10.32112 -10.32061
 Alpha  occ. eigenvalues --  -10.31837 -10.31828 -10.31765 -10.31708 -10.31492
 Alpha  occ. eigenvalues --  -10.31131 -10.30895 -10.30861 -10.30688 -10.30520
 Alpha  occ. eigenvalues --  -10.30304 -10.30277 -10.30121 -10.30053 -10.29946
 Alpha  occ. eigenvalues --  -10.29918 -10.29795 -10.29711 -10.29656 -10.29633
 Alpha  occ. eigenvalues --  -10.29362 -10.29279 -10.29057 -10.29053 -10.28968
 Alpha  occ. eigenvalues --  -10.28824 -10.28823 -10.28692 -10.28691 -10.28644
 Alpha  occ. eigenvalues --  -10.28587 -10.28283 -10.28228 -10.28179 -10.28167
 Alpha  occ. eigenvalues --  -10.28129  -3.20028  -1.93618  -1.93155  -1.93015
 Alpha  occ. eigenvalues --   -1.17968  -1.17747  -1.13142  -1.12205  -1.09708
 Alpha  occ. eigenvalues --   -1.09230  -1.06538  -1.05745  -1.05224  -1.04085
 Alpha  occ. eigenvalues --   -0.94584  -0.92609  -0.92006  -0.91450  -0.90650
 Alpha  occ. eigenvalues --   -0.90388  -0.89809  -0.89546  -0.89308  -0.89248
 Alpha  occ. eigenvalues --   -0.87739  -0.87372  -0.86300  -0.85551  -0.85133
 Alpha  occ. eigenvalues --   -0.84621  -0.84070  -0.83202  -0.82843  -0.82187
 Alpha  occ. eigenvalues --   -0.81617  -0.81012  -0.80187  -0.78553  -0.77715
 Alpha  occ. eigenvalues --   -0.77558  -0.77433  -0.76950  -0.76675  -0.76318
 Alpha  occ. eigenvalues --   -0.75482  -0.74544  -0.73847  -0.72549  -0.71285
 Alpha  occ. eigenvalues --   -0.70796  -0.70451  -0.69107  -0.68867  -0.67879
 Alpha  occ. eigenvalues --   -0.67463  -0.66869  -0.66730  -0.66139  -0.65435
 Alpha  occ. eigenvalues --   -0.64728  -0.64678  -0.64547  -0.63287  -0.62318
 Alpha  occ. eigenvalues --   -0.62240  -0.61246  -0.61001  -0.60068  -0.59832
 Alpha  occ. eigenvalues --   -0.59578  -0.59090  -0.58013  -0.57955  -0.57355
 Alpha  occ. eigenvalues --   -0.56975  -0.56422  -0.56195  -0.56116  -0.55941
 Alpha  occ. eigenvalues --   -0.55715  -0.55340  -0.55174  -0.55090  -0.54635
 Alpha  occ. eigenvalues --   -0.54503  -0.54229  -0.54032  -0.53928  -0.53589
 Alpha  occ. eigenvalues --   -0.53537  -0.53365  -0.52985  -0.52621  -0.52570
 Alpha  occ. eigenvalues --   -0.52410  -0.52152  -0.51973  -0.51912  -0.51759
 Alpha  occ. eigenvalues --   -0.51339  -0.51281  -0.50888  -0.50632  -0.50594
 Alpha  occ. eigenvalues --   -0.50344  -0.50269  -0.50024  -0.49898  -0.49737
 Alpha  occ. eigenvalues --   -0.49518  -0.49281  -0.49127  -0.48683  -0.48429
 Alpha  occ. eigenvalues --   -0.48330  -0.48108  -0.48086  -0.47814  -0.47712
 Alpha  occ. eigenvalues --   -0.47658  -0.47371  -0.46885  -0.46703  -0.46598
 Alpha  occ. eigenvalues --   -0.46533  -0.46393  -0.46277  -0.46025  -0.45942
 Alpha  occ. eigenvalues --   -0.45860  -0.45720  -0.45386  -0.45263  -0.44960
 Alpha  occ. eigenvalues --   -0.44907  -0.44721  -0.44491  -0.44305  -0.44235
 Alpha  occ. eigenvalues --   -0.44072  -0.43763  -0.43747  -0.43596  -0.42709
 Alpha  occ. eigenvalues --   -0.42317  -0.42241  -0.42107  -0.41772  -0.41368
 Alpha  occ. eigenvalues --   -0.41244  -0.41159  -0.41072  -0.40465  -0.40412
 Alpha  occ. eigenvalues --   -0.40129  -0.39928  -0.39574  -0.39404  -0.39291
 Alpha  occ. eigenvalues --   -0.39204  -0.39014  -0.38632  -0.38350  -0.37710
 Alpha  occ. eigenvalues --   -0.37554  -0.37346  -0.37271  -0.37101  -0.36346
 Alpha  occ. eigenvalues --   -0.36283  -0.35705  -0.35252  -0.33786  -0.33219
 Alpha  occ. eigenvalues --   -0.32498  -0.32157  -0.31867  -0.31729  -0.25809
 Alpha  occ. eigenvalues --   -0.22523
 Alpha virt. eigenvalues --   -0.06494   0.00539   0.02539   0.05041   0.06330
 Alpha virt. eigenvalues --    0.07215   0.07455   0.08471   0.08619   0.09136
 Alpha virt. eigenvalues --    0.10552   0.10555   0.11491   0.12248   0.12499

 Mulliken charges:
               1
     1  Mg   0.982456
     2  C   -0.020287
     3  C   -0.076235
     4  C   -0.074297
     5  C   -0.121401
     6  N   -0.280959
     7  C   -0.069608
     8  C   -0.037325
     9  C   -0.132494
    10  C    0.011148
    11  C    0.016764
    12  C    0.011181
    13  C   -0.001884
    14  C    0.256994
    15  O   -0.253125
    16  O   -0.401850
    17  N   -0.461350
    18  C    0.180145
    19  C   -0.175234
    20  C   -0.091472
    21  C    0.126284
    22  C    0.084112
    23  C    0.077060
    24  O   -0.236199
    25  C    0.000638
    26  N   -0.437233
    27  C    0.091492
    28  C   -0.097333
    29  C   -0.071875
    30  C    0.109503
    31  C    0.027959
    32  C   -0.020959
    33  C   -0.054513
    34  N   -0.476501
    35  C    0.191598
    36  C   -0.190604
    37  C   -0.035585
    38  C    0.185756
    39  C    0.075446
    40  C    0.087721
    41  O   -0.171742
    42  C   -0.098567
    43  C    0.252661
    44  O   -0.233741
    45  O   -0.360955
    46  C    0.152983
    47  C    0.245518
    48  C   -0.127748
    49  C   -0.205356
    50  C    0.003874
    51  C    0.015138
    52  C   -0.042085
    53  C    0.028106
    54  C   -0.186549
    55  C   -0.017656
    56  C    0.004744
    57  C    0.007425
    58  C    0.003214
    59  C   -0.169532
    60  C    0.008252
    61  C   -0.015494
    62  C   -0.024494
    63  C    0.018901
    64  C   -0.199280
    65  C    0.019587
    66  C   -0.008202
    67  H   -0.020591
    68  H    0.010178
    69  H   -0.015047
    70  H    0.032135
    71  H    0.042712
    72  H    0.052272
    73  H    0.046543
    74  H    0.037822
    75  H    0.051600
    76  H    0.063613
    77  H    0.066567
    78  H    0.065381
    79  H    0.053223
    80  H    0.046131
    81  H    0.059344
    82  H    0.051184
    83  H    0.059179
    84  H    0.055195
    85  H    0.046434
    86  H    0.027497
    87  H    0.017938
    88  H    0.053226
    89  H    0.036445
    90  H    0.023781
    91  H    0.036193
    92  H    0.030613
    93  H    0.050185
    94  H    0.030919
    95  H    0.068972
    96  H    0.029826
    97  H    0.053139
    98  H    0.063689
    99  H    0.055880
   100  H    0.036014
   101  H    0.051448
   102  H    0.056392
   103  H    0.048957
   104  H    0.026586
   105  H    0.035343
   106  H    0.029386
   107  H    0.061831
   108  H    0.031344
   109  H    0.025890
   110  H    0.031415
   111  H    0.020677
   112  H    0.016328
   113  H    0.028202
   114  H    0.018763
   115  H    0.033147
   116  H    0.018857
   117  H    0.038864
   118  H    0.011663
   119  H    0.008118
   120  H    0.017561
   121  H    0.035105
   122  H    0.007641
   123  H    0.000060
   124  H    0.008497
   125  H    0.024062
   126  H    0.029282
   127  H    0.035094
   128  H   -0.004687
   129  H    0.011236
   130  H    0.016146
   131  H    0.016934
   132  H    0.010309
   133  H    0.006622
   134  H    0.022093
   135  H    0.037929
   136  H    0.024863
   137  H    0.019998
   138  H    0.030563
   139  H    0.031367
   140  H    0.010992
 Sum of Mulliken charges =  -0.00000

 Dipole moment (field-independent basis, Debye):
    X=             -3.8758    Y=              5.7189    Z=             -2.7386  Tot=              7.4316
 Quadrupole moment (field-independent basis, Debye-Ang):
   XX=           -372.5344   YY=           -420.5947   ZZ=           -398.4334
   XY=              9.4414   XZ=             -5.0284   YZ=             -7.1149

 Normal termination of Gaussian 16 at Thu Apr 28 13:51:52 2022.
