 Gaussian 16, Revision A.03,
 Gaussian 16:  ES64L-G16RevA.03 25-Dec-2016

 --------------------
 #p ZINDO=(nstates=5)
 --------------------

 -----------------------------
 step_1601_chromophore_1 ZINDO
 -----------------------------
 Symbolic Z-matrix:
 Charge =  0 Multiplicity = 1

                         Standard orientation:
 ---------------------------------------------------------------------
 Center     Atomic      Atomic             Coordinates (Angstroms)
 Number     Number       Type             X           Y           Z
 ---------------------------------------------------------------------
      1         12           0        6.222136    0.416705   -0.053768
      2          6           0        4.187419   -2.408650   -0.694317
      3          6           0        3.686609    2.318979   -1.436553
      4          6           0        8.168817    3.147447    0.078178
      5          6           0        8.680972   -1.525928    0.979938
      6          7           0        3.968354   -0.087937   -0.769255
      7          6           0        3.414658   -1.303325   -1.015663
      8          6           0        2.070059   -1.170376   -1.696694
      9          6           0        2.013899    0.417296   -1.966690
     10          6           0        3.316994    0.923301   -1.360546
     11          6           0        1.765866    0.730924   -3.463013
     12          6           0        0.898041   -1.871676   -1.024634
     13          6           0       -0.418788   -1.209072   -1.179703
     14          6           0       -1.568157   -2.159503   -1.041423
     15          8           0       -1.609333   -3.382682   -1.047966
     16          8           0       -2.734378   -1.387952   -0.899279
     17          7           0        5.838170    2.459483   -0.281238
     18          6           0        4.720318    3.055874   -0.888459
     19          6           0        4.864461    4.564591   -0.888169
     20          6           0        6.165249    4.783573   -0.348698
     21          6           0        6.757103    3.486839   -0.188011
     22          6           0        3.829361    5.560223   -1.408298
     23          6           0        6.904596    6.103161   -0.007302
     24          8           0        8.056347    6.163346    0.436421
     25          6           0        6.135281    7.323820   -0.082443
     26          7           0        8.129937    0.781255    0.376529
     27          6           0        8.802080    1.950657    0.278946
     28          6           0       10.271762    1.827029    0.555871
     29          6           0       10.314949    0.335050    1.114435
     30          6           0        8.950115   -0.211223    0.821404
     31          6           0       11.284834    2.026063   -0.642314
     32          6           0       10.845915    0.274609    2.610395
     33          6           0        9.764214    0.114923    3.747960
     34          7           0        6.519912   -1.557172    0.013824
     35          6           0        7.516571   -2.187353    0.638924
     36          6           0        7.309199   -3.614570    0.603452
     37          6           0        5.997815   -3.725113    0.125283
     38          6           0        5.503885   -2.443070   -0.186189
     39          6           0        8.316030   -4.715977    0.988162
     40          6           0        4.967063   -4.698182   -0.123285
     41          8           0        4.932083   -5.882563    0.018267
     42          6           0        3.716335   -3.847313   -0.619807
     43          6           0        2.694389   -4.037700    0.423150
     44          8           0        2.657094   -3.605977    1.545770
     45          8           0        1.695259   -4.774432   -0.127446
     46          6           0        0.581823   -5.183292    0.750287
     47          6           0       -4.010109   -2.137817   -0.670102
     48          6           0       -5.225127   -1.236382   -0.488422
     49          6           0       -6.494966   -1.502193   -0.857050
     50          6           0       -6.926454   -2.892147   -1.350328
     51          6           0       -7.690248   -0.523792   -0.631373
     52          6           0       -8.253029   -0.615845    0.846628
     53          6           0       -8.196936    0.737139    1.714812
     54          6           0       -9.470258    1.602352    1.599162
     55          6           0       -9.130432    3.045551    1.005916
     56          6           0      -10.265974    1.814984    2.937012
     57          6           0      -11.775568    2.012648    2.815952
     58          6           0      -12.481973    0.718472    2.480647
     59          6           0      -14.052789    0.929630    2.336897
     60          6           0      -14.831850    0.302711    3.510604
     61          6           0      -14.577648    0.518720    0.981963
     62          6           0      -14.592049    1.627892   -0.119442
     63          6           0      -13.535047    1.421633   -1.226279
     64          6           0      -13.862739    0.555384   -2.432078
     65          6           0      -13.346441   -0.882172   -2.290855
     66          6           0      -13.502124    1.162246   -3.790702
     67          1           0        2.884145    2.886756   -1.911453
     68          1           0        8.857712    3.992417    0.014204
     69          1           0        9.537600   -2.069254    1.385287
     70          1           0        2.247102   -1.617808   -2.675531
     71          1           0        1.320160    0.894930   -1.274348
     72          1           0        1.188860    0.002842   -4.033156
     73          1           0        2.716000    0.887072   -3.974387
     74          1           0        1.234538    1.683425   -3.468055
     75          1           0        1.070989   -1.973182    0.046258
     76          1           0        0.917202   -2.855224   -1.495678
     77          1           0       -0.427282   -0.593505   -2.079969
     78          1           0       -0.513859   -0.521031   -0.339552
     79          1           0        3.555432    6.113496   -0.510923
     80          1           0        2.952065    5.069696   -1.830497
     81          1           0        4.288620    6.250292   -2.116069
     82          1           0        5.898038    7.567243   -1.116965
     83          1           0        6.700958    8.176383    0.292952
     84          1           0        5.204929    7.137229    0.454539
     85          1           0       10.534941    2.534552    1.342129
     86          1           0       11.055505   -0.207814    0.528070
     87          1           0       10.661708    2.503810   -1.397924
     88          1           0       11.753489    1.179584   -1.143910
     89          1           0       11.948187    2.874871   -0.473160
     90          1           0       11.237332    1.280382    2.768548
     91          1           0       11.655272   -0.441471    2.751612
     92          1           0        9.976945    0.825101    4.547409
     93          1           0        9.600381   -0.910877    4.079091
     94          1           0        8.792940    0.531341    3.482425
     95          1           0        7.670553   -5.455807    1.461600
     96          1           0        9.162267   -4.493697    1.638562
     97          1           0        8.817396   -5.035057    0.074790
     98          1           0        3.391852   -4.268055   -1.570638
     99          1           0       -0.113627   -5.949741    0.409134
    100          1           0       -0.105797   -4.355123    0.919943
    101          1           0        1.000533   -5.508224    1.702322
    102          1           0       -3.962467   -2.786089    0.205128
    103          1           0       -4.256881   -2.786912   -1.510748
    104          1           0       -4.958088   -0.207533   -0.248380
    105          1           0       -7.901733   -3.039528   -0.885332
    106          1           0       -6.198750   -3.576123   -0.912274
    107          1           0       -6.983234   -3.190129   -2.397051
    108          1           0       -8.464522   -0.626038   -1.393233
    109          1           0       -7.275288    0.453413   -0.878683
    110          1           0       -7.903116   -1.452752    1.451033
    111          1           0       -9.277745   -0.938213    0.662973
    112          1           0       -7.363846    1.297187    1.289726
    113          1           0       -7.902526    0.457684    2.726104
    114          1           0      -10.189989    1.118582    0.940196
    115          1           0       -8.848235    3.063720   -0.047451
    116          1           0       -8.174471    3.243308    1.490933
    117          1           0       -9.847941    3.803642    1.318641
    118          1           0       -9.843515    2.694927    3.420762
    119          1           0      -10.007665    0.931989    3.522170
    120          1           0      -11.974022    2.592023    1.914248
    121          1           0      -12.029236    2.459087    3.777281
    122          1           0      -12.259474   -0.107293    3.156972
    123          1           0      -12.193291    0.329472    1.503386
    124          1           0      -14.299203    1.990715    2.360959
    125          1           0      -14.708543   -0.779388    3.481181
    126          1           0      -15.868639    0.537691    3.266563
    127          1           0      -14.478231    0.669374    4.473668
    128          1           0      -15.620489    0.231787    1.113640
    129          1           0      -14.137029   -0.419827    0.646392
    130          1           0      -14.462540    2.619276    0.314093
    131          1           0      -15.618408    1.622256   -0.484481
    132          1           0      -12.622140    1.187348   -0.677973
    133          1           0      -13.351875    2.463094   -1.488951
    134          1           0      -14.930100    0.394828   -2.585400
    135          1           0      -14.240491   -1.495473   -2.187346
    136          1           0      -12.699233   -0.888108   -1.412933
    137          1           0      -12.779450   -1.134100   -3.186535
    138          1           0      -14.303797    1.830078   -4.107439
    139          1           0      -13.110623    0.437453   -4.504884
    140          1           0      -12.710935    1.908917   -3.716374
 ---------------------------------------------------------------------

 SCF Done:  E(RZINDO/S) =  -474.398209054     A.U. after   19 cycles

 Excitation energies and oscillator strengths:

 Excited State   1:      Singlet-A      1.2721 eV  974.66 nm  f=0.5693  <S**2>=0.000
     175 ->178        -0.17525
     176 ->177         0.66482
 This state for optimization and/or second-order correction.
 Total Energy, E(CIS/TDA) =  -474.351461026
 Copying the excited state density for this state as the 1-particle RhoCI density.

 Excited State   2:      Singlet-A      1.9487 eV  636.24 nm  f=0.0126  <S**2>=0.000
     175 ->177         0.50629
     176 ->178         0.46160

 Excited State   3:      Singlet-A      2.9248 eV  423.91 nm  f=0.9166  <S**2>=0.000
     175 ->177        -0.39445
     176 ->178         0.47767
     176 ->179        -0.20887
     176 ->181        -0.15408

 Excited State   4:      Singlet-A      2.9909 eV  414.54 nm  f=0.0018  <S**2>=0.000
     167 ->179         0.16079
     168 ->177        -0.27093
     168 ->179         0.48498
     168 ->181        -0.18145
     168 ->184        -0.13306
     168 ->186         0.18933

 Excited State   5:      Singlet-A      3.0520 eV  406.25 nm  f=0.0408  <S**2>=0.000
     171 ->177         0.30191
     171 ->178        -0.22487
     171 ->179         0.18597
     171 ->181         0.42094
     171 ->186         0.18325
     171 ->189         0.17015
     171 ->205        -0.11184

 The electronic state is 1-A.
 Alpha  occ. eigenvalues --   -1.86225  -1.82220  -1.79578  -1.73377  -1.71931
 Alpha  occ. eigenvalues --   -1.69802  -1.65963  -1.59803  -1.59686  -1.59121
 Alpha  occ. eigenvalues --   -1.54725  -1.52076  -1.49247  -1.48569  -1.44653
 Alpha  occ. eigenvalues --   -1.44016  -1.42913  -1.40324  -1.38926  -1.38732
 Alpha  occ. eigenvalues --   -1.36608  -1.33111  -1.32032  -1.31366  -1.28950
 Alpha  occ. eigenvalues --   -1.28198  -1.24465  -1.23220  -1.21531  -1.18353
 Alpha  occ. eigenvalues --   -1.17590  -1.16272  -1.15246  -1.13674  -1.12688
 Alpha  occ. eigenvalues --   -1.12117  -1.11929  -1.11702  -1.05153  -1.04125
 Alpha  occ. eigenvalues --   -1.02862  -1.01483  -0.99928  -0.98075  -0.97799
 Alpha  occ. eigenvalues --   -0.96502  -0.94681  -0.93272  -0.92866  -0.91711
 Alpha  occ. eigenvalues --   -0.90862  -0.89457  -0.89102  -0.88036  -0.87802
 Alpha  occ. eigenvalues --   -0.85379  -0.83458  -0.82715  -0.82436  -0.80082
 Alpha  occ. eigenvalues --   -0.79001  -0.77980  -0.77686  -0.76210  -0.75598
 Alpha  occ. eigenvalues --   -0.75174  -0.74966  -0.74250  -0.73803  -0.73667
 Alpha  occ. eigenvalues --   -0.72998  -0.71937  -0.71852  -0.71388  -0.71145
 Alpha  occ. eigenvalues --   -0.70424  -0.69319  -0.68754  -0.68469  -0.68020
 Alpha  occ. eigenvalues --   -0.67892  -0.67133  -0.66955  -0.66082  -0.65596
 Alpha  occ. eigenvalues --   -0.64703  -0.64081  -0.63956  -0.63450  -0.63127
 Alpha  occ. eigenvalues --   -0.62920  -0.62559  -0.62082  -0.61689  -0.61626
 Alpha  occ. eigenvalues --   -0.61379  -0.61245  -0.60722  -0.60358  -0.59824
 Alpha  occ. eigenvalues --   -0.59129  -0.59086  -0.58773  -0.58475  -0.58286
 Alpha  occ. eigenvalues --   -0.58104  -0.57253  -0.57073  -0.56655  -0.56234
 Alpha  occ. eigenvalues --   -0.56177  -0.55905  -0.55603  -0.55566  -0.54997
 Alpha  occ. eigenvalues --   -0.54663  -0.54345  -0.53557  -0.53113  -0.52903
 Alpha  occ. eigenvalues --   -0.52723  -0.52552  -0.51825  -0.51464  -0.51322
 Alpha  occ. eigenvalues --   -0.51125  -0.51053  -0.50570  -0.50271  -0.49893
 Alpha  occ. eigenvalues --   -0.49247  -0.49191  -0.49093  -0.48809  -0.48458
 Alpha  occ. eigenvalues --   -0.48007  -0.47779  -0.47732  -0.47461  -0.47268
 Alpha  occ. eigenvalues --   -0.47107  -0.46738  -0.46576  -0.46501  -0.46450
 Alpha  occ. eigenvalues --   -0.46273  -0.46041  -0.45447  -0.45189  -0.45038
 Alpha  occ. eigenvalues --   -0.44947  -0.44751  -0.44655  -0.44371  -0.43926
 Alpha  occ. eigenvalues --   -0.43653  -0.43411  -0.42954  -0.42840  -0.42141
 Alpha  occ. eigenvalues --   -0.41994  -0.41714  -0.40643  -0.39512  -0.38488
 Alpha  occ. eigenvalues --   -0.37487  -0.36695  -0.36121  -0.34737  -0.33879
 Alpha  occ. eigenvalues --   -0.33667  -0.32290  -0.32235  -0.31484  -0.26658
 Alpha  occ. eigenvalues --   -0.21286
 Alpha virt. eigenvalues --   -0.07958  -0.01988  -0.00350   0.01529   0.01785
 Alpha virt. eigenvalues --    0.03047   0.03652   0.04280   0.04516   0.05179
 Alpha virt. eigenvalues --    0.06005   0.06716   0.06970   0.07836   0.08103

 Mulliken charges:
               1
     1  Mg   0.432495
     2  C   -0.014822
     3  C   -0.072378
     4  C   -0.101403
     5  C   -0.073288
     6  N   -0.272134
     7  C    0.088750
     8  C    0.000167
     9  C   -0.002310
    10  C    0.146112
    11  C   -0.047526
    12  C   -0.018311
    13  C    0.014569
    14  C    0.469076
    15  O   -0.502979
    16  O   -0.290098
    17  N   -0.342133
    18  C    0.115976
    19  C    0.024646
    20  C   -0.039876
    21  C    0.173490
    22  C   -0.035177
    23  C    0.336268
    24  O   -0.519018
    25  C   -0.023921
    26  N   -0.292725
    27  C    0.176663
    28  C    0.004132
    29  C   -0.005125
    30  C    0.120960
    31  C   -0.061563
    32  C   -0.033976
    33  C   -0.062152
    34  N   -0.303622
    35  C    0.102166
    36  C   -0.002480
    37  C   -0.048767
    38  C    0.079745
    39  C   -0.042850
    40  C    0.332750
    41  O   -0.512278
    42  C    0.048532
    43  C    0.505008
    44  O   -0.532136
    45  O   -0.273864
    46  C    0.069711
    47  C    0.103197
    48  C   -0.087155
    49  C   -0.007967
    50  C   -0.053939
    51  C   -0.019986
    52  C   -0.038519
    53  C   -0.030867
    54  C   -0.015675
    55  C   -0.068502
    56  C   -0.039755
    57  C   -0.028673
    58  C   -0.035378
    59  C   -0.019193
    60  C   -0.058147
    61  C   -0.034183
    62  C   -0.037035
    63  C   -0.026405
    64  C   -0.005287
    65  C   -0.061782
    66  C   -0.061351
    67  H    0.016238
    68  H    0.031896
    69  H    0.020087
    70  H    0.025568
    71  H    0.035423
    72  H    0.027996
    73  H    0.025129
    74  H    0.013221
    75  H    0.040071
    76  H    0.035142
    77  H    0.048774
    78  H    0.040122
    79  H    0.035758
    80  H    0.032408
    81  H    0.036537
    82  H    0.035796
    83  H    0.039497
    84  H    0.039086
    85  H    0.037649
    86  H    0.021769
    87  H    0.009559
    88  H    0.039091
    89  H    0.025667
    90  H    0.015985
    91  H    0.026153
    92  H    0.016419
    93  H    0.029250
    94  H    0.019499
    95  H    0.037426
    96  H    0.024349
    97  H    0.031186
    98  H    0.052156
    99  H    0.040658
   100  H    0.037065
   101  H    0.043267
   102  H    0.052582
   103  H    0.047333
   104  H    0.028156
   105  H    0.020266
   106  H    0.018302
   107  H    0.041048
   108  H    0.024862
   109  H    0.016677
   110  H    0.026184
   111  H    0.011013
   112  H    0.018954
   113  H    0.025332
   114  H    0.020401
   115  H    0.021908
   116  H    0.011573
   117  H    0.026884
   118  H    0.012144
   119  H    0.015347
   120  H    0.026831
   121  H    0.029665
   122  H    0.019332
   123  H    0.017343
   124  H    0.014632
   125  H    0.017014
   126  H    0.019156
   127  H    0.022440
   128  H    0.003454
   129  H    0.018852
   130  H    0.018844
   131  H    0.015409
   132  H    0.022228
   133  H    0.004569
   134  H    0.016686
   135  H    0.023626
   136  H    0.022394
   137  H    0.021961
   138  H    0.019206
   139  H    0.027949
   140  H    0.005842
 Sum of Mulliken charges =  -0.00000

 Dipole moment (field-independent basis, Debye):
    X=             -4.8852    Y=              9.7310    Z=             -5.6038  Tot=             12.2458
 N-N= 4.236050508677D+03 E-N= 0.000000000000D+00  KE=-9.146929803674D+03
 Leave Link  601 at Thu Apr 28 14:04:02 2022, MaxMem=  6710886400 cpu:               2.7 elap:               0.1
 (Enter /sw/apps/gaussian-16.0/g16/l9999.exe)
 1\1\GINC-BP1-COMPUTE155\SP\RZINDO CIS\STO-3G\C55H74Mg1N4O6\OF15641\28-
 Apr-2022\0\\#p ZINDO=(nstates=5)\\step_1601_chromophore_1 ZINDO\\0,1\M
 g,0,-2.442,17.201,25.891\C,0,-2.666,14.862,28.539\C,0,-3.457,19.594,28
 .172\C,0,-2.703,19.468,23.43\C,0,-1.758,14.786,23.749\N,0,-2.773,17.17
 8,28.286\C,0,-2.892,16.105,29.11\C,0,-3.353,16.517,30.491\C,0,-3.657,1
 8.083,30.263\C,0,-3.282,18.305,28.803\C,0,-5.103,18.448,30.681\C,0,-2.
 482,16.071,31.657\C,0,-2.444,16.993,32.817\C,0,-2.096,16.301,34.099\O,

 Normal termination of Gaussian 16 at Thu Apr 28 14:04:02 2022.
