 Gaussian 16, Revision A.03,
 Gaussian 16:  ES64L-G16RevA.03 25-Dec-2016

 ------------------------------
 #p blyp/Def2SVP td=(nstates=5)
 ------------------------------

 ---------------------------------------------------
 step_1501_chromophore_18 TDDFT with blyp functional
 ---------------------------------------------------
 Symbolic Z-matrix:
 Charge =  0 Multiplicity = 1

                         Standard orientation:
 ---------------------------------------------------------------------
 Center     Atomic      Atomic             Coordinates (Angstroms)
 Number     Number       Type             X           Y           Z
 ---------------------------------------------------------------------
      1         12           0        5.300304    1.198264    0.426470
      2          6           0        4.558880   -2.302370    0.320194
      3          6           0        1.928668    1.814344    0.247685
      4          6           0        6.148185    4.345664    0.110554
      5          6           0        8.656732    0.372650   -0.299867
      6          7           0        3.513958   -0.092131    0.245188
      7          6           0        3.441792   -1.511638    0.367198
      8          6           0        2.023158   -2.010670    0.560544
      9          6           0        1.171910   -0.702281    0.341499
     10          6           0        2.230983    0.397296    0.285912
     11          6           0        0.185836   -0.712115   -0.853092
     12          6           0        1.662506   -2.842279    1.832647
     13          6           0        0.874274   -4.188380    1.690401
     14          6           0       -0.085321   -4.307631    0.397744
     15          8           0        0.170983   -4.927793   -0.696374
     16          8           0       -1.303063   -3.645535    0.538846
     17          7           0        4.170563    2.849115    0.272185
     18          6           0        2.800216    2.920640    0.174012
     19          6           0        2.416525    4.302401   -0.023473
     20          6           0        3.628762    5.083475    0.122542
     21          6           0        4.711684    4.073278    0.206996
     22          6           0        1.050978    4.623062   -0.608560
     23          6           0        3.815118    6.605219   -0.016873
     24          8           0        4.894519    7.159027    0.153976
     25          6           0        2.608581    7.420756   -0.487091
     26          7           0        7.177213    2.246935   -0.137416
     27          6           0        7.261512    3.571017   -0.133109
     28          6           0        8.698529    4.178096   -0.304414
     29          6           0        9.464351    2.801421   -0.403914
     30          6           0        8.380972    1.709719   -0.260094
     31          6           0        9.000310    5.105089   -1.503825
     32          6           0       10.426802    2.684687    0.784621
     33          6           0        9.917928    2.357477    2.233560
     34          7           0        6.463240   -0.579952    0.162207
     35          6           0        7.814829   -0.781801   -0.158230
     36          6           0        8.096490   -2.172106   -0.248611
     37          6           0        6.890212   -2.821975   -0.098419
     38          6           0        5.925139   -1.809111    0.161670
     39          6           0        9.502535   -2.788976   -0.404462
     40          6           0        6.241315   -4.111105    0.025014
     41          8           0        6.654832   -5.263734   -0.088284
     42          6           0        4.731911   -3.806961    0.194484
     43          6           0        4.080878   -4.407600   -1.056738
     44          8           0        4.095430   -3.847306   -2.137875
     45          8           0        3.602474   -5.681060   -0.840002
     46          6           0        2.772264   -6.205262   -1.945860
     47          6           0       -2.165259   -3.892283   -0.643962
     48          6           0       -3.410558   -3.064619   -0.631413
     49          6           0       -4.641451   -3.421898   -1.068870
     50          6           0       -4.833078   -4.766037   -1.758579
     51          6           0       -5.837968   -2.514934   -0.878339
     52          6           0       -6.915470   -2.787381    0.227354
     53          6           0       -6.929494   -1.617805    1.283479
     54          6           0       -8.269320   -1.455372    1.980850
     55          6           0       -8.213572   -1.184839    3.488132
     56          6           0       -9.018397   -0.315260    1.334107
     57          6           0      -10.454117   -0.651497    1.241482
     58          6           0      -11.317694    0.601141    1.786536
     59          6           0      -12.186313    1.282006    0.671779
     60          6           0      -11.546999    2.586867    0.119103
     61          6           0      -13.594516    1.515719    1.235649
     62          6           0      -14.623777    0.992802    0.125404
     63          6           0      -15.526846    2.078824   -0.481092
     64          6           0      -15.004870    2.801964   -1.828174
     65          6           0      -14.736874    4.315856   -1.617824
     66          6           0      -15.905258    2.662773   -3.106447
     67          1           0        0.858170    2.026172    0.222671
     68          1           0        6.303372    5.425345    0.048432
     69          1           0        9.658448   -0.024413   -0.479343
     70          1           0        1.956313   -2.644375   -0.323763
     71          1           0        0.507046   -0.648508    1.203897
     72          1           0        0.481616   -1.467426   -1.580335
     73          1           0        0.110723    0.215551   -1.419593
     74          1           0       -0.812288   -1.045087   -0.568807
     75          1           0        1.037016   -2.221806    2.474142
     76          1           0        2.637193   -3.018574    2.287479
     77          1           0        0.199003   -4.241038    2.544313
     78          1           0        1.441620   -5.111835    1.804510
     79          1           0        0.982892    5.375087   -1.393944
     80          1           0        0.311372    4.876150    0.151606
     81          1           0        0.608976    3.741485   -1.072204
     82          1           0        1.764159    7.174417    0.156370
     83          1           0        2.499434    7.210693   -1.551540
     84          1           0        2.868656    8.459300   -0.285875
     85          1           0        9.021686    4.728466    0.579180
     86          1           0        9.938452    2.520381   -1.344601
     87          1           0        8.168839    5.090269   -2.207505
     88          1           0        9.970004    4.806519   -1.902660
     89          1           0        9.242876    6.118008   -1.183400
     90          1           0       11.029739    3.581337    0.929009
     91          1           0       11.077788    1.901778    0.397551
     92          1           0        8.997165    2.912095    2.415231
     93          1           0       10.659189    2.723409    2.943306
     94          1           0        9.754628    1.287077    2.360574
     95          1           0        9.642865   -3.580984    0.331381
     96          1           0       10.307120   -2.063845   -0.279341
     97          1           0        9.565891   -3.309786   -1.360018
     98          1           0        4.340457   -4.448473    0.983680
     99          1           0        3.393920   -6.858395   -2.559078
    100          1           0        2.274581   -5.443162   -2.544976
    101          1           0        2.000078   -6.850297   -1.526058
    102          1           0       -2.495420   -4.929297   -0.704172
    103          1           0       -1.655169   -3.658776   -1.577889
    104          1           0       -3.324662   -2.133233   -0.071521
    105          1           0       -3.906780   -5.321922   -1.904997
    106          1           0       -5.209839   -4.664093   -2.776160
    107          1           0       -5.449473   -5.435815   -1.158241
    108          1           0       -6.304593   -2.765015   -1.832076
    109          1           0       -5.516947   -1.474169   -0.886964
    110          1           0       -6.811106   -3.680176    0.844779
    111          1           0       -7.890578   -2.724822   -0.255353
    112          1           0       -6.425219   -0.704137    0.970107
    113          1           0       -6.213000   -1.756166    2.092979
    114          1           0       -8.747644   -2.432860    1.915517
    115          1           0       -7.422733   -1.789748    3.931812
    116          1           0       -9.090923   -1.640730    3.946527
    117          1           0       -8.191776   -0.147895    3.823459
    118          1           0       -8.674466   -0.088052    0.324971
    119          1           0       -8.818483    0.610551    1.874055
    120          1           0      -10.754052   -1.476882    1.886624
    121          1           0      -10.736460   -1.021342    0.255561
    122          1           0      -10.759018    1.401940    2.270092
    123          1           0      -11.937452    0.051692    2.496963
    124          1           0      -12.058991    0.663330   -0.216802
    125          1           0      -11.165643    2.479327   -0.896131
    126          1           0      -10.705053    2.919453    0.726007
    127          1           0      -12.256161    3.402166   -0.029982
    128          1           0      -13.621460    2.582889    1.455525
    129          1           0      -13.849658    0.924384    2.115705
    130          1           0      -15.338187    0.349276    0.639017
    131          1           0      -14.152351    0.343343   -0.612679
    132          1           0      -15.766161    2.716036    0.370111
    133          1           0      -16.513140    1.695501   -0.740316
    134          1           0      -13.995209    2.505609   -2.114320
    135          1           0      -13.874650    4.522934   -0.984657
    136          1           0      -15.552877    4.813683   -1.094158
    137          1           0      -14.567088    4.808254   -2.574919
    138          1           0      -16.415464    3.586655   -3.380365
    139          1           0      -16.517219    1.760308   -3.088818
    140          1           0      -15.335440    2.516185   -4.023576
 ---------------------------------------------------------------------

 SCF Done:  E(RB-LYP) =  -3007.36085682     A.U. after   21 cycles

 Excitation energies and oscillator strengths:

 Excited State   1:      Singlet-A      1.7883 eV  693.32 nm  f=0.2859  <S**2>=0.000
     245 -> 248        0.14663
     245 -> 249        0.10251
     246 -> 247        0.69527
     246 <- 247       -0.15932
 This state for optimization and/or second-order correction.
 Total Energy, E(TD-HF/TD-DFT) =  -3007.29513935
 Copying the excited state density for this state as the 1-particle RhoCI density.

 Excited State   2:      Singlet-A      1.8542 eV  668.66 nm  f=0.0017  <S**2>=0.000
     244 -> 247        0.70498

 Excited State   3:      Singlet-A      2.0077 eV  617.53 nm  f=0.1202  <S**2>=0.000
     245 -> 247        0.65207
     246 -> 248       -0.17498
     246 -> 249       -0.12219

 Excited State   4:      Singlet-A      2.0217 eV  613.28 nm  f=0.0032  <S**2>=0.000
     243 -> 247        0.69996

 Excited State   5:      Singlet-A      2.3848 eV  519.90 nm  f=0.0000  <S**2>=0.000
     241 -> 247        0.17266
     242 -> 247        0.68549

 The electronic state is 1-A.
 Alpha  occ. eigenvalues --  -46.27637 -18.84023 -18.80967 -18.78061 -18.76031
 Alpha  occ. eigenvalues --  -18.75549 -18.75047 -14.03437 -14.02756 -14.01334
 Alpha  occ. eigenvalues --  -14.00564 -10.06077 -10.02857 -10.00211  -9.99079
 Alpha  occ. eigenvalues --   -9.98129  -9.97179  -9.96425  -9.96366  -9.95980
 Alpha  occ. eigenvalues --   -9.95758  -9.95756  -9.95623  -9.95592  -9.95001
 Alpha  occ. eigenvalues --   -9.94753  -9.94428  -9.94351  -9.94323  -9.94164
 Alpha  occ. eigenvalues --   -9.93884  -9.93448  -9.93373  -9.93341  -9.93270
 Alpha  occ. eigenvalues --   -9.93214  -9.93207  -9.93176  -9.93135  -9.92987
 Alpha  occ. eigenvalues --   -9.92699  -9.92667  -9.92594  -9.92371  -9.92278
 Alpha  occ. eigenvalues --   -9.92251  -9.92241  -9.92090  -9.92018  -9.91974
 Alpha  occ. eigenvalues --   -9.91941  -9.91685  -9.91612  -9.91464  -9.91438
 Alpha  occ. eigenvalues --   -9.91307  -9.91261  -9.91026  -9.90989  -9.90919
 Alpha  occ. eigenvalues --   -9.90888  -9.90873  -9.90785  -9.90617  -9.90560
 Alpha  occ. eigenvalues --   -9.90347  -2.92212  -1.72624  -1.72109  -1.71922
 Alpha  occ. eigenvalues --   -0.97676  -0.96188  -0.91682  -0.90362  -0.88569
 Alpha  occ. eigenvalues --   -0.88320  -0.87404  -0.85887  -0.85465  -0.84264
 Alpha  occ. eigenvalues --   -0.74660  -0.74177  -0.73365  -0.72731  -0.72292
 Alpha  occ. eigenvalues --   -0.71945  -0.71364  -0.70534  -0.70119  -0.70046
 Alpha  occ. eigenvalues --   -0.69273  -0.69125  -0.68299  -0.66912  -0.66713
 Alpha  occ. eigenvalues --   -0.66328  -0.65581  -0.65255  -0.64602  -0.64277
 Alpha  occ. eigenvalues --   -0.63888  -0.62392  -0.62265  -0.61431  -0.61112
 Alpha  occ. eigenvalues --   -0.60244  -0.59937  -0.59733  -0.59651  -0.58911
 Alpha  occ. eigenvalues --   -0.58399  -0.57817  -0.56663  -0.56068  -0.54975
 Alpha  occ. eigenvalues --   -0.54033  -0.53728  -0.52678  -0.52363  -0.51423
 Alpha  occ. eigenvalues --   -0.51249  -0.50856  -0.50674  -0.50401  -0.50157
 Alpha  occ. eigenvalues --   -0.49788  -0.49571  -0.48856  -0.47153  -0.46725
 Alpha  occ. eigenvalues --   -0.46481  -0.45685  -0.45231  -0.44812  -0.43605
 Alpha  occ. eigenvalues --   -0.43272  -0.43160  -0.42803  -0.42619  -0.42282
 Alpha  occ. eigenvalues --   -0.41986  -0.41625  -0.41447  -0.41406  -0.40994
 Alpha  occ. eigenvalues --   -0.40928  -0.40467  -0.40181  -0.39961  -0.39923
 Alpha  occ. eigenvalues --   -0.39877  -0.39695  -0.39504  -0.39110  -0.38986
 Alpha  occ. eigenvalues --   -0.38704  -0.38630  -0.38403  -0.38015  -0.37886
 Alpha  occ. eigenvalues --   -0.37784  -0.37706  -0.37629  -0.37535  -0.37215
 Alpha  occ. eigenvalues --   -0.37102  -0.36785  -0.36466  -0.36396  -0.36262
 Alpha  occ. eigenvalues --   -0.35962  -0.35892  -0.35718  -0.35587  -0.35269
 Alpha  occ. eigenvalues --   -0.35067  -0.34783  -0.34643  -0.34562  -0.34365
 Alpha  occ. eigenvalues --   -0.34323  -0.34133  -0.34027  -0.33957  -0.33769
 Alpha  occ. eigenvalues --   -0.33614  -0.33402  -0.33320  -0.33075  -0.33022
 Alpha  occ. eigenvalues --   -0.32754  -0.32549  -0.32409  -0.32231  -0.32147
 Alpha  occ. eigenvalues --   -0.32027  -0.31940  -0.31832  -0.31653  -0.31525
 Alpha  occ. eigenvalues --   -0.31488  -0.31191  -0.31006  -0.30825  -0.30726
 Alpha  occ. eigenvalues --   -0.30600  -0.30545  -0.30442  -0.30397  -0.30309
 Alpha  occ. eigenvalues --   -0.30038  -0.29695  -0.29513  -0.29343  -0.29018
 Alpha  occ. eigenvalues --   -0.28758  -0.28646  -0.28426  -0.28304  -0.28146
 Alpha  occ. eigenvalues --   -0.27770  -0.27153  -0.26677  -0.26598  -0.26479
 Alpha  occ. eigenvalues --   -0.26348  -0.26238  -0.25927  -0.25556  -0.25310
 Alpha  occ. eigenvalues --   -0.25306  -0.24246  -0.23716  -0.23646  -0.23268
 Alpha  occ. eigenvalues --   -0.22467  -0.22023  -0.21623  -0.20905  -0.20592
 Alpha  occ. eigenvalues --   -0.20418  -0.20354  -0.18936  -0.18316  -0.17144
 Alpha  occ. eigenvalues --   -0.15717
 Alpha virt. eigenvalues --   -0.11596  -0.06304  -0.06102  -0.05446  -0.04555
 Alpha virt. eigenvalues --   -0.02983  -0.02469  -0.01412  -0.01223   0.00451
 Alpha virt. eigenvalues --    0.01852   0.02054   0.02383   0.02603   0.02863

 Mulliken charges:
               1
     1  Mg   0.709488
     2  C    0.095197
     3  C   -0.072283
     4  C   -0.022530
     5  C   -0.058096
     6  N   -0.238000
     7  C   -0.113064
     8  C    0.027046
     9  C    0.008680
    10  C    0.049527
    11  C    0.101314
    12  C    0.145088
    13  C    0.135325
    14  C    0.125678
    15  O   -0.246688
    16  O   -0.280407
    17  N   -0.301492
    18  C    0.147710
    19  C   -0.117650
    20  C    0.018134
    21  C    0.060789
    22  C    0.146288
    23  C   -0.084535
    24  O   -0.157527
    25  C    0.127477
    26  N   -0.148631
    27  C    0.004581
    28  C    0.029115
    29  C    0.047766
    30  C    0.038671
    31  C    0.140545
    32  C    0.031759
    33  C    0.087349
    34  N   -0.243613
    35  C    0.027377
    36  C   -0.156688
    37  C    0.106548
    38  C    0.014929
    39  C    0.166846
    40  C   -0.046409
    41  O   -0.135882
    42  C    0.048983
    43  C    0.098483
    44  O   -0.186305
    45  O   -0.269354
    46  C    0.225562
    47  C    0.309850
    48  C   -0.112737
    49  C   -0.162125
    50  C    0.123014
    51  C    0.161288
    52  C    0.116607
    53  C    0.081219
    54  C   -0.078245
    55  C    0.109670
    56  C    0.157156
    57  C    0.053396
    58  C    0.079846
    59  C   -0.078271
    60  C    0.094851
    61  C    0.133371
    62  C    0.057182
    63  C    0.115009
    64  C   -0.045428
    65  C    0.062204
    66  C    0.093682
    67  H   -0.065329
    68  H   -0.048895
    69  H   -0.080598
    70  H    0.004516
    71  H   -0.024940
    72  H   -0.006433
    73  H   -0.006915
    74  H   -0.009473
    75  H   -0.012332
    76  H   -0.007574
    77  H   -0.011927
    78  H    0.014994
    79  H   -0.000563
    80  H   -0.007093
    81  H   -0.012136
    82  H    0.008370
    83  H    0.030404
    84  H   -0.008837
    85  H   -0.012651
    86  H   -0.019013
    87  H    0.007654
    88  H   -0.015633
    89  H   -0.015420
    90  H   -0.023638
    91  H   -0.028232
    92  H   -0.007456
    93  H   -0.006853
    94  H    0.004439
    95  H    0.003182
    96  H   -0.011859
    97  H    0.008721
    98  H   -0.022852
    99  H    0.004953
   100  H    0.024270
   101  H    0.007606
   102  H    0.005839
   103  H    0.016999
   104  H   -0.038784
   105  H   -0.022511
   106  H    0.002302
   107  H    0.003785
   108  H   -0.041096
   109  H   -0.020058
   110  H   -0.006664
   111  H   -0.020231
   112  H   -0.055501
   113  H   -0.069580
   114  H   -0.039749
   115  H   -0.027089
   116  H   -0.029368
   117  H   -0.008310
   118  H   -0.046340
   119  H   -0.034424
   120  H   -0.036103
   121  H   -0.029640
   122  H   -0.024555
   123  H   -0.035718
   124  H   -0.027991
   125  H   -0.025798
   126  H   -0.023568
   127  H   -0.024693
   128  H   -0.022097
   129  H   -0.026291
   130  H   -0.042525
   131  H   -0.026836
   132  H   -0.036514
   133  H   -0.046478
   134  H   -0.028780
   135  H   -0.024553
   136  H   -0.019048
   137  H   -0.019145
   138  H   -0.013758
   139  H   -0.015119
   140  H   -0.031110
 Sum of Mulliken charges =  -0.00000

 Dipole moment (field-independent basis, Debye):
    X=             -5.0838    Y=              1.7506    Z=              1.9885  Tot=              5.7327
 Quadrupole moment (field-independent basis, Debye-Ang):
   XX=           -390.3039   YY=           -436.0259   ZZ=           -402.8708
   XY=             34.6183   XZ=              9.6331   YZ=            -10.1347

 Normal termination of Gaussian 16 at Wed May  4 08:22:48 2022.
