 Gaussian 16, Revision A.03,
 Gaussian 16:  ES64L-G16RevA.03 25-Dec-2016

 -----------------------------------
 #p cam-b3lyp/Def2SVP td=(nstates=5)
 -----------------------------------

 --------------------------------------------------------
 step_1501_chromophore_18 TDDFT with cam-b3lyp functional
 --------------------------------------------------------
 Symbolic Z-matrix:
 Charge =  0 Multiplicity = 1

                         Standard orientation:
 ---------------------------------------------------------------------
 Center     Atomic      Atomic             Coordinates (Angstroms)
 Number     Number       Type             X           Y           Z
 ---------------------------------------------------------------------
      1         12           0        5.300304    1.198264    0.426470
      2          6           0        4.558880   -2.302370    0.320194
      3          6           0        1.928668    1.814344    0.247685
      4          6           0        6.148185    4.345664    0.110554
      5          6           0        8.656732    0.372650   -0.299867
      6          7           0        3.513958   -0.092131    0.245188
      7          6           0        3.441792   -1.511638    0.367198
      8          6           0        2.023158   -2.010670    0.560544
      9          6           0        1.171910   -0.702281    0.341499
     10          6           0        2.230983    0.397296    0.285912
     11          6           0        0.185836   -0.712115   -0.853092
     12          6           0        1.662506   -2.842279    1.832647
     13          6           0        0.874274   -4.188380    1.690401
     14          6           0       -0.085321   -4.307631    0.397744
     15          8           0        0.170983   -4.927793   -0.696374
     16          8           0       -1.303063   -3.645535    0.538846
     17          7           0        4.170563    2.849115    0.272185
     18          6           0        2.800216    2.920640    0.174012
     19          6           0        2.416525    4.302401   -0.023473
     20          6           0        3.628762    5.083475    0.122542
     21          6           0        4.711684    4.073278    0.206996
     22          6           0        1.050978    4.623062   -0.608560
     23          6           0        3.815118    6.605219   -0.016873
     24          8           0        4.894519    7.159027    0.153976
     25          6           0        2.608581    7.420756   -0.487091
     26          7           0        7.177213    2.246935   -0.137416
     27          6           0        7.261512    3.571017   -0.133109
     28          6           0        8.698529    4.178096   -0.304414
     29          6           0        9.464351    2.801421   -0.403914
     30          6           0        8.380972    1.709719   -0.260094
     31          6           0        9.000310    5.105089   -1.503825
     32          6           0       10.426802    2.684687    0.784621
     33          6           0        9.917928    2.357477    2.233560
     34          7           0        6.463240   -0.579952    0.162207
     35          6           0        7.814829   -0.781801   -0.158230
     36          6           0        8.096490   -2.172106   -0.248611
     37          6           0        6.890212   -2.821975   -0.098419
     38          6           0        5.925139   -1.809111    0.161670
     39          6           0        9.502535   -2.788976   -0.404462
     40          6           0        6.241315   -4.111105    0.025014
     41          8           0        6.654832   -5.263734   -0.088284
     42          6           0        4.731911   -3.806961    0.194484
     43          6           0        4.080878   -4.407600   -1.056738
     44          8           0        4.095430   -3.847306   -2.137875
     45          8           0        3.602474   -5.681060   -0.840002
     46          6           0        2.772264   -6.205262   -1.945860
     47          6           0       -2.165259   -3.892283   -0.643962
     48          6           0       -3.410558   -3.064619   -0.631413
     49          6           0       -4.641451   -3.421898   -1.068870
     50          6           0       -4.833078   -4.766037   -1.758579
     51          6           0       -5.837968   -2.514934   -0.878339
     52          6           0       -6.915470   -2.787381    0.227354
     53          6           0       -6.929494   -1.617805    1.283479
     54          6           0       -8.269320   -1.455372    1.980850
     55          6           0       -8.213572   -1.184839    3.488132
     56          6           0       -9.018397   -0.315260    1.334107
     57          6           0      -10.454117   -0.651497    1.241482
     58          6           0      -11.317694    0.601141    1.786536
     59          6           0      -12.186313    1.282006    0.671779
     60          6           0      -11.546999    2.586867    0.119103
     61          6           0      -13.594516    1.515719    1.235649
     62          6           0      -14.623777    0.992802    0.125404
     63          6           0      -15.526846    2.078824   -0.481092
     64          6           0      -15.004870    2.801964   -1.828174
     65          6           0      -14.736874    4.315856   -1.617824
     66          6           0      -15.905258    2.662773   -3.106447
     67          1           0        0.858170    2.026172    0.222671
     68          1           0        6.303372    5.425345    0.048432
     69          1           0        9.658448   -0.024413   -0.479343
     70          1           0        1.956313   -2.644375   -0.323763
     71          1           0        0.507046   -0.648508    1.203897
     72          1           0        0.481616   -1.467426   -1.580335
     73          1           0        0.110723    0.215551   -1.419593
     74          1           0       -0.812288   -1.045087   -0.568807
     75          1           0        1.037016   -2.221806    2.474142
     76          1           0        2.637193   -3.018574    2.287479
     77          1           0        0.199003   -4.241038    2.544313
     78          1           0        1.441620   -5.111835    1.804510
     79          1           0        0.982892    5.375087   -1.393944
     80          1           0        0.311372    4.876150    0.151606
     81          1           0        0.608976    3.741485   -1.072204
     82          1           0        1.764159    7.174417    0.156370
     83          1           0        2.499434    7.210693   -1.551540
     84          1           0        2.868656    8.459300   -0.285875
     85          1           0        9.021686    4.728466    0.579180
     86          1           0        9.938452    2.520381   -1.344601
     87          1           0        8.168839    5.090269   -2.207505
     88          1           0        9.970004    4.806519   -1.902660
     89          1           0        9.242876    6.118008   -1.183400
     90          1           0       11.029739    3.581337    0.929009
     91          1           0       11.077788    1.901778    0.397551
     92          1           0        8.997165    2.912095    2.415231
     93          1           0       10.659189    2.723409    2.943306
     94          1           0        9.754628    1.287077    2.360574
     95          1           0        9.642865   -3.580984    0.331381
     96          1           0       10.307120   -2.063845   -0.279341
     97          1           0        9.565891   -3.309786   -1.360018
     98          1           0        4.340457   -4.448473    0.983680
     99          1           0        3.393920   -6.858395   -2.559078
    100          1           0        2.274581   -5.443162   -2.544976
    101          1           0        2.000078   -6.850297   -1.526058
    102          1           0       -2.495420   -4.929297   -0.704172
    103          1           0       -1.655169   -3.658776   -1.577889
    104          1           0       -3.324662   -2.133233   -0.071521
    105          1           0       -3.906780   -5.321922   -1.904997
    106          1           0       -5.209839   -4.664093   -2.776160
    107          1           0       -5.449473   -5.435815   -1.158241
    108          1           0       -6.304593   -2.765015   -1.832076
    109          1           0       -5.516947   -1.474169   -0.886964
    110          1           0       -6.811106   -3.680176    0.844779
    111          1           0       -7.890578   -2.724822   -0.255353
    112          1           0       -6.425219   -0.704137    0.970107
    113          1           0       -6.213000   -1.756166    2.092979
    114          1           0       -8.747644   -2.432860    1.915517
    115          1           0       -7.422733   -1.789748    3.931812
    116          1           0       -9.090923   -1.640730    3.946527
    117          1           0       -8.191776   -0.147895    3.823459
    118          1           0       -8.674466   -0.088052    0.324971
    119          1           0       -8.818483    0.610551    1.874055
    120          1           0      -10.754052   -1.476882    1.886624
    121          1           0      -10.736460   -1.021342    0.255561
    122          1           0      -10.759018    1.401940    2.270092
    123          1           0      -11.937452    0.051692    2.496963
    124          1           0      -12.058991    0.663330   -0.216802
    125          1           0      -11.165643    2.479327   -0.896131
    126          1           0      -10.705053    2.919453    0.726007
    127          1           0      -12.256161    3.402166   -0.029982
    128          1           0      -13.621460    2.582889    1.455525
    129          1           0      -13.849658    0.924384    2.115705
    130          1           0      -15.338187    0.349276    0.639017
    131          1           0      -14.152351    0.343343   -0.612679
    132          1           0      -15.766161    2.716036    0.370111
    133          1           0      -16.513140    1.695501   -0.740316
    134          1           0      -13.995209    2.505609   -2.114320
    135          1           0      -13.874650    4.522934   -0.984657
    136          1           0      -15.552877    4.813683   -1.094158
    137          1           0      -14.567088    4.808254   -2.574919
    138          1           0      -16.415464    3.586655   -3.380365
    139          1           0      -16.517219    1.760308   -3.088818
    140          1           0      -15.335440    2.516185   -4.023576
 ---------------------------------------------------------------------

 SCF Done:  E(RCAM-B3LYP) =  -3007.14375351     A.U. after   19 cycles

 Excitation energies and oscillator strengths:

 Excited State   1:      Singlet-A      1.6850 eV  735.82 nm  f=0.3807  <S**2>=0.000
     245 -> 248       -0.16537
     246 -> 247        0.68955
     245 <- 248       -0.10510
 This state for optimization and/or second-order correction.
 Total Energy, E(TD-HF/TD-DFT) =  -3007.08183144
 Copying the excited state density for this state as the 1-particle RhoCI density.

 Excited State   2:      Singlet-A      2.2199 eV  558.51 nm  f=0.1623  <S**2>=0.000
     245 -> 247        0.65482
     246 -> 248        0.25448

 Excited State   3:      Singlet-A      3.4037 eV  364.27 nm  f=0.0014  <S**2>=0.000
     241 -> 247       -0.29409
     244 -> 247        0.62739

 Excited State   4:      Singlet-A      3.5234 eV  351.89 nm  f=0.0117  <S**2>=0.000
     239 -> 249        0.10416
     240 -> 247       -0.17156
     241 -> 247        0.47546
     242 -> 247        0.26194
     244 -> 247        0.25296
     246 -> 248       -0.23059

 Excited State   5:      Singlet-A      3.5401 eV  350.22 nm  f=0.0023  <S**2>=0.000
     241 -> 247       -0.26241
     242 -> 247        0.51437
     242 -> 249        0.22920
     242 -> 250       -0.10658
     242 -> 251       -0.12985
     242 -> 252        0.21211

 The electronic state is 1-A.
 Alpha  occ. eigenvalues --  -46.89203 -19.26911 -19.23707 -19.21024 -19.19561
 Alpha  occ. eigenvalues --  -19.18484 -19.17975 -14.42398 -14.41594 -14.39929
 Alpha  occ. eigenvalues --  -14.38814 -10.41599 -10.38146 -10.35744 -10.34176
 Alpha  occ. eigenvalues --  -10.32181 -10.32050 -10.31121 -10.30801 -10.30538
 Alpha  occ. eigenvalues --  -10.30485 -10.29754 -10.29664 -10.29577 -10.29340
 Alpha  occ. eigenvalues --  -10.28778 -10.28724 -10.28521 -10.28404 -10.28216
 Alpha  occ. eigenvalues --  -10.28069 -10.27872 -10.27619 -10.27601 -10.27489
 Alpha  occ. eigenvalues --  -10.27431 -10.27384 -10.27152 -10.27076 -10.26694
 Alpha  occ. eigenvalues --  -10.26425 -10.26412 -10.26385 -10.26383 -10.26258
 Alpha  occ. eigenvalues --  -10.26047 -10.25987 -10.25973 -10.25901 -10.25754
 Alpha  occ. eigenvalues --  -10.25693 -10.25469 -10.25268 -10.25187 -10.25155
 Alpha  occ. eigenvalues --  -10.24981 -10.24944 -10.24653 -10.24652 -10.24593
 Alpha  occ. eigenvalues --  -10.24564 -10.24552 -10.24417 -10.24268 -10.24257
 Alpha  occ. eigenvalues --  -10.23929  -3.17678  -1.92566  -1.92134  -1.91982
 Alpha  occ. eigenvalues --   -1.16000  -1.14554  -1.10387  -1.08503  -1.06318
 Alpha  occ. eigenvalues --   -1.06059  -1.05128  -1.03723  -1.02882  -1.01813
 Alpha  occ. eigenvalues --   -0.91628  -0.91068  -0.90190  -0.89501  -0.88939
 Alpha  occ. eigenvalues --   -0.88654  -0.88125  -0.87140  -0.86745  -0.86646
 Alpha  occ. eigenvalues --   -0.85676  -0.85529  -0.84594  -0.83077  -0.82731
 Alpha  occ. eigenvalues --   -0.82425  -0.81814  -0.81186  -0.80640  -0.80044
 Alpha  occ. eigenvalues --   -0.79543  -0.78239  -0.77954  -0.76803  -0.76513
 Alpha  occ. eigenvalues --   -0.75525  -0.75283  -0.74970  -0.74969  -0.74119
 Alpha  occ. eigenvalues --   -0.73482  -0.72799  -0.71597  -0.70898  -0.69583
 Alpha  occ. eigenvalues --   -0.68592  -0.68300  -0.67063  -0.66918  -0.65659
 Alpha  occ. eigenvalues --   -0.65441  -0.64847  -0.64695  -0.64455  -0.64041
 Alpha  occ. eigenvalues --   -0.63613  -0.63566  -0.62772  -0.60766  -0.60349
 Alpha  occ. eigenvalues --   -0.60169  -0.59140  -0.58678  -0.58052  -0.56952
 Alpha  occ. eigenvalues --   -0.56740  -0.56410  -0.56047  -0.55830  -0.55284
 Alpha  occ. eigenvalues --   -0.55168  -0.54696  -0.54562  -0.54081  -0.53855
 Alpha  occ. eigenvalues --   -0.53641  -0.53173  -0.52989  -0.52951  -0.52626
 Alpha  occ. eigenvalues --   -0.52501  -0.52315  -0.51929  -0.51903  -0.51692
 Alpha  occ. eigenvalues --   -0.51501  -0.51145  -0.50882  -0.50516  -0.50309
 Alpha  occ. eigenvalues --   -0.50128  -0.50083  -0.50002  -0.49841  -0.49617
 Alpha  occ. eigenvalues --   -0.49392  -0.49263  -0.48920  -0.48551  -0.48412
 Alpha  occ. eigenvalues --   -0.48332  -0.48239  -0.47930  -0.47851  -0.47674
 Alpha  occ. eigenvalues --   -0.47430  -0.46901  -0.46511  -0.46438  -0.46232
 Alpha  occ. eigenvalues --   -0.46173  -0.45940  -0.45809  -0.45739  -0.45436
 Alpha  occ. eigenvalues --   -0.45413  -0.45237  -0.44933  -0.44709  -0.44548
 Alpha  occ. eigenvalues --   -0.44381  -0.44174  -0.44053  -0.43993  -0.43938
 Alpha  occ. eigenvalues --   -0.43756  -0.43524  -0.43402  -0.43330  -0.43104
 Alpha  occ. eigenvalues --   -0.43016  -0.42802  -0.42578  -0.42247  -0.42083
 Alpha  occ. eigenvalues --   -0.41979  -0.41842  -0.41781  -0.41757  -0.41712
 Alpha  occ. eigenvalues --   -0.41249  -0.40933  -0.40731  -0.40516  -0.40423
 Alpha  occ. eigenvalues --   -0.40087  -0.40019  -0.39465  -0.39336  -0.39019
 Alpha  occ. eigenvalues --   -0.38608  -0.38068  -0.37959  -0.37662  -0.37393
 Alpha  occ. eigenvalues --   -0.37245  -0.36944  -0.36851  -0.36202  -0.35946
 Alpha  occ. eigenvalues --   -0.35909  -0.35063  -0.34763  -0.34529  -0.34494
 Alpha  occ. eigenvalues --   -0.33008  -0.32469  -0.31872  -0.31492  -0.31061
 Alpha  occ. eigenvalues --   -0.30436  -0.30192  -0.29996  -0.29537  -0.23903
 Alpha  occ. eigenvalues --   -0.21049
 Alpha virt. eigenvalues --   -0.08825  -0.00926   0.00316   0.02037   0.02310
 Alpha virt. eigenvalues --    0.02555   0.04939   0.05807   0.06719   0.07173
 Alpha virt. eigenvalues --    0.08092   0.08601   0.08796   0.09186   0.09222

 Mulliken charges:
               1
     1  Mg   0.839718
     2  C    0.063807
     3  C   -0.088985
     4  C   -0.043339
     5  C   -0.060605
     6  N   -0.307288
     7  C   -0.065430
     8  C   -0.029712
     9  C   -0.039584
    10  C    0.069024
    11  C    0.048365
    12  C    0.091671
    13  C    0.074889
    14  C    0.195581
    15  O   -0.289837
    16  O   -0.342602
    17  N   -0.394089
    18  C    0.156150
    19  C   -0.116825
    20  C   -0.045814
    21  C    0.092392
    22  C    0.079675
    23  C   -0.004023
    24  O   -0.197341
    25  C    0.047481
    26  N   -0.218975
    27  C    0.020956
    28  C   -0.020535
    29  C   -0.007922
    30  C    0.048191
    31  C    0.081219
    32  C   -0.019166
    33  C    0.028392
    34  N   -0.328997
    35  C    0.028959
    36  C   -0.161007
    37  C    0.028558
    38  C    0.053575
    39  C    0.121443
    40  C    0.048291
    41  O   -0.176332
    42  C   -0.020761
    43  C    0.184207
    44  O   -0.222407
    45  O   -0.332759
    46  C    0.187111
    47  C    0.272862
    48  C   -0.124677
    49  C   -0.184680
    50  C    0.061208
    51  C    0.102031
    52  C    0.059618
    53  C    0.028682
    54  C   -0.142583
    55  C    0.054577
    56  C    0.099648
    57  C    0.001852
    58  C    0.029267
    59  C   -0.134156
    60  C    0.044011
    61  C    0.076181
    62  C    0.002408
    63  C    0.059635
    64  C   -0.106539
    65  C    0.010303
    66  C    0.032458
    67  H   -0.029195
    68  H   -0.009076
    69  H   -0.045349
    70  H    0.034947
    71  H    0.011097
    72  H    0.018781
    73  H    0.018318
    74  H    0.012283
    75  H    0.017685
    76  H    0.023583
    77  H    0.023625
    78  H    0.046260
    79  H    0.027975
    80  H    0.022315
    81  H    0.017546
    82  H    0.035613
    83  H    0.056753
    84  H    0.027059
    85  H    0.021421
    86  H    0.016953
    87  H    0.032222
    88  H    0.009790
    89  H    0.009964
    90  H    0.003442
    91  H   -0.000286
    92  H    0.012039
    93  H    0.017368
    94  H    0.027471
    95  H    0.028274
    96  H    0.010369
    97  H    0.033866
    98  H    0.019512
    99  H    0.027717
   100  H    0.047817
   101  H    0.030317
   102  H    0.032111
   103  H    0.045341
   104  H   -0.006970
   105  H    0.002969
   106  H    0.026757
   107  H    0.027760
   108  H   -0.011722
   109  H    0.009686
   110  H    0.020397
   111  H    0.007377
   112  H   -0.025735
   113  H   -0.037951
   114  H   -0.006553
   115  H   -0.001378
   116  H   -0.004177
   117  H    0.014619
   118  H   -0.015610
   119  H   -0.006469
   120  H   -0.007828
   121  H   -0.001487
   122  H    0.001225
   123  H   -0.006253
   124  H    0.001769
   125  H   -0.001697
   126  H    0.000191
   127  H   -0.006565
   128  H    0.005157
   129  H    0.003775
   130  H   -0.011944
   131  H    0.000688
   132  H   -0.007937
   133  H   -0.015761
   134  H    0.000264
   135  H   -0.003623
   136  H    0.004155
   137  H    0.005063
   138  H    0.010593
   139  H    0.009333
   140  H   -0.005468
 Sum of Mulliken charges =  -0.00000

 Dipole moment (field-independent basis, Debye):
    X=             -5.8021    Y=              2.7548    Z=              2.1063  Tot=              6.7594
 Quadrupole moment (field-independent basis, Debye-Ang):
   XX=           -394.4233   YY=           -431.2357   ZZ=           -402.6885
   XY=             38.0242   XZ=             10.5455   YZ=            -11.5391

 Normal termination of Gaussian 16 at Wed May  4 07:26:43 2022.
