 Gaussian 16, Revision A.03,
 Gaussian 16:  ES64L-G16RevA.03 25-Dec-2016

 ---------------------------------
 #p PBE1PBE/Def2SVP td=(nstates=5)
 ---------------------------------

 ------------------------------------------------------
 step_1501_chromophore_18 TDDFT with PBE1PBE functional
 ------------------------------------------------------
 Symbolic Z-matrix:
 Charge =  0 Multiplicity = 1

                         Standard orientation:
 ---------------------------------------------------------------------
 Center     Atomic      Atomic             Coordinates (Angstroms)
 Number     Number       Type             X           Y           Z
 ---------------------------------------------------------------------
      1         12           0        5.300304    1.198264    0.426470
      2          6           0        4.558880   -2.302370    0.320194
      3          6           0        1.928668    1.814344    0.247685
      4          6           0        6.148185    4.345664    0.110554
      5          6           0        8.656732    0.372650   -0.299867
      6          7           0        3.513958   -0.092131    0.245188
      7          6           0        3.441792   -1.511638    0.367198
      8          6           0        2.023158   -2.010670    0.560544
      9          6           0        1.171910   -0.702281    0.341499
     10          6           0        2.230983    0.397296    0.285912
     11          6           0        0.185836   -0.712115   -0.853092
     12          6           0        1.662506   -2.842279    1.832647
     13          6           0        0.874274   -4.188380    1.690401
     14          6           0       -0.085321   -4.307631    0.397744
     15          8           0        0.170983   -4.927793   -0.696374
     16          8           0       -1.303063   -3.645535    0.538846
     17          7           0        4.170563    2.849115    0.272185
     18          6           0        2.800216    2.920640    0.174012
     19          6           0        2.416525    4.302401   -0.023473
     20          6           0        3.628762    5.083475    0.122542
     21          6           0        4.711684    4.073278    0.206996
     22          6           0        1.050978    4.623062   -0.608560
     23          6           0        3.815118    6.605219   -0.016873
     24          8           0        4.894519    7.159027    0.153976
     25          6           0        2.608581    7.420756   -0.487091
     26          7           0        7.177213    2.246935   -0.137416
     27          6           0        7.261512    3.571017   -0.133109
     28          6           0        8.698529    4.178096   -0.304414
     29          6           0        9.464351    2.801421   -0.403914
     30          6           0        8.380972    1.709719   -0.260094
     31          6           0        9.000310    5.105089   -1.503825
     32          6           0       10.426802    2.684687    0.784621
     33          6           0        9.917928    2.357477    2.233560
     34          7           0        6.463240   -0.579952    0.162207
     35          6           0        7.814829   -0.781801   -0.158230
     36          6           0        8.096490   -2.172106   -0.248611
     37          6           0        6.890212   -2.821975   -0.098419
     38          6           0        5.925139   -1.809111    0.161670
     39          6           0        9.502535   -2.788976   -0.404462
     40          6           0        6.241315   -4.111105    0.025014
     41          8           0        6.654832   -5.263734   -0.088284
     42          6           0        4.731911   -3.806961    0.194484
     43          6           0        4.080878   -4.407600   -1.056738
     44          8           0        4.095430   -3.847306   -2.137875
     45          8           0        3.602474   -5.681060   -0.840002
     46          6           0        2.772264   -6.205262   -1.945860
     47          6           0       -2.165259   -3.892283   -0.643962
     48          6           0       -3.410558   -3.064619   -0.631413
     49          6           0       -4.641451   -3.421898   -1.068870
     50          6           0       -4.833078   -4.766037   -1.758579
     51          6           0       -5.837968   -2.514934   -0.878339
     52          6           0       -6.915470   -2.787381    0.227354
     53          6           0       -6.929494   -1.617805    1.283479
     54          6           0       -8.269320   -1.455372    1.980850
     55          6           0       -8.213572   -1.184839    3.488132
     56          6           0       -9.018397   -0.315260    1.334107
     57          6           0      -10.454117   -0.651497    1.241482
     58          6           0      -11.317694    0.601141    1.786536
     59          6           0      -12.186313    1.282006    0.671779
     60          6           0      -11.546999    2.586867    0.119103
     61          6           0      -13.594516    1.515719    1.235649
     62          6           0      -14.623777    0.992802    0.125404
     63          6           0      -15.526846    2.078824   -0.481092
     64          6           0      -15.004870    2.801964   -1.828174
     65          6           0      -14.736874    4.315856   -1.617824
     66          6           0      -15.905258    2.662773   -3.106447
     67          1           0        0.858170    2.026172    0.222671
     68          1           0        6.303372    5.425345    0.048432
     69          1           0        9.658448   -0.024413   -0.479343
     70          1           0        1.956313   -2.644375   -0.323763
     71          1           0        0.507046   -0.648508    1.203897
     72          1           0        0.481616   -1.467426   -1.580335
     73          1           0        0.110723    0.215551   -1.419593
     74          1           0       -0.812288   -1.045087   -0.568807
     75          1           0        1.037016   -2.221806    2.474142
     76          1           0        2.637193   -3.018574    2.287479
     77          1           0        0.199003   -4.241038    2.544313
     78          1           0        1.441620   -5.111835    1.804510
     79          1           0        0.982892    5.375087   -1.393944
     80          1           0        0.311372    4.876150    0.151606
     81          1           0        0.608976    3.741485   -1.072204
     82          1           0        1.764159    7.174417    0.156370
     83          1           0        2.499434    7.210693   -1.551540
     84          1           0        2.868656    8.459300   -0.285875
     85          1           0        9.021686    4.728466    0.579180
     86          1           0        9.938452    2.520381   -1.344601
     87          1           0        8.168839    5.090269   -2.207505
     88          1           0        9.970004    4.806519   -1.902660
     89          1           0        9.242876    6.118008   -1.183400
     90          1           0       11.029739    3.581337    0.929009
     91          1           0       11.077788    1.901778    0.397551
     92          1           0        8.997165    2.912095    2.415231
     93          1           0       10.659189    2.723409    2.943306
     94          1           0        9.754628    1.287077    2.360574
     95          1           0        9.642865   -3.580984    0.331381
     96          1           0       10.307120   -2.063845   -0.279341
     97          1           0        9.565891   -3.309786   -1.360018
     98          1           0        4.340457   -4.448473    0.983680
     99          1           0        3.393920   -6.858395   -2.559078
    100          1           0        2.274581   -5.443162   -2.544976
    101          1           0        2.000078   -6.850297   -1.526058
    102          1           0       -2.495420   -4.929297   -0.704172
    103          1           0       -1.655169   -3.658776   -1.577889
    104          1           0       -3.324662   -2.133233   -0.071521
    105          1           0       -3.906780   -5.321922   -1.904997
    106          1           0       -5.209839   -4.664093   -2.776160
    107          1           0       -5.449473   -5.435815   -1.158241
    108          1           0       -6.304593   -2.765015   -1.832076
    109          1           0       -5.516947   -1.474169   -0.886964
    110          1           0       -6.811106   -3.680176    0.844779
    111          1           0       -7.890578   -2.724822   -0.255353
    112          1           0       -6.425219   -0.704137    0.970107
    113          1           0       -6.213000   -1.756166    2.092979
    114          1           0       -8.747644   -2.432860    1.915517
    115          1           0       -7.422733   -1.789748    3.931812
    116          1           0       -9.090923   -1.640730    3.946527
    117          1           0       -8.191776   -0.147895    3.823459
    118          1           0       -8.674466   -0.088052    0.324971
    119          1           0       -8.818483    0.610551    1.874055
    120          1           0      -10.754052   -1.476882    1.886624
    121          1           0      -10.736460   -1.021342    0.255561
    122          1           0      -10.759018    1.401940    2.270092
    123          1           0      -11.937452    0.051692    2.496963
    124          1           0      -12.058991    0.663330   -0.216802
    125          1           0      -11.165643    2.479327   -0.896131
    126          1           0      -10.705053    2.919453    0.726007
    127          1           0      -12.256161    3.402166   -0.029982
    128          1           0      -13.621460    2.582889    1.455525
    129          1           0      -13.849658    0.924384    2.115705
    130          1           0      -15.338187    0.349276    0.639017
    131          1           0      -14.152351    0.343343   -0.612679
    132          1           0      -15.766161    2.716036    0.370111
    133          1           0      -16.513140    1.695501   -0.740316
    134          1           0      -13.995209    2.505609   -2.114320
    135          1           0      -13.874650    4.522934   -0.984657
    136          1           0      -15.552877    4.813683   -1.094158
    137          1           0      -14.567088    4.808254   -2.574919
    138          1           0      -16.415464    3.586655   -3.380365
    139          1           0      -16.517219    1.760308   -3.088818
    140          1           0      -15.335440    2.516185   -4.023576
 ---------------------------------------------------------------------

 SCF Done:  E(RPBE1PBE) =  -3005.33175740     A.U. after   16 cycles

 Excitation energies and oscillator strengths:

 Excited State   1:      Singlet-A      1.8343 eV  675.94 nm  f=0.3635  <S**2>=0.000
     245 -> 248        0.15997
     246 -> 247        0.69746
     246 <- 247       -0.11703
 This state for optimization and/or second-order correction.
 Total Energy, E(TD-HF/TD-DFT) =  -3005.26434967
 Copying the excited state density for this state as the 1-particle RhoCI density.

 Excited State   2:      Singlet-A      2.2201 eV  558.47 nm  f=0.1552  <S**2>=0.000
     245 -> 247        0.66368
     246 -> 248       -0.23122

 Excited State   3:      Singlet-A      2.9522 eV  419.97 nm  f=0.0001  <S**2>=0.000
     244 -> 247        0.67643
     244 -> 249       -0.13517
     244 -> 251       -0.11484

 Excited State   4:      Singlet-A      3.0591 eV  405.30 nm  f=0.0008  <S**2>=0.000
     241 -> 247        0.26610
     242 -> 247        0.62060
     243 -> 247       -0.16375

 Excited State   5:      Singlet-A      3.0937 eV  400.76 nm  f=0.0028  <S**2>=0.000
     240 -> 247        0.30348
     240 -> 249        0.10654
     241 -> 247        0.54943
     242 -> 247       -0.24999

 The electronic state is 1-A.
 Alpha  occ. eigenvalues --  -46.92610 -19.27609 -19.24455 -19.21383 -19.19582
 Alpha  occ. eigenvalues --  -19.18800 -19.18403 -14.41932 -14.41028 -14.39475
 Alpha  occ. eigenvalues --  -14.38595 -10.38753 -10.35275 -10.32699 -10.31489
 Alpha  occ. eigenvalues --  -10.29622 -10.29580 -10.28655 -10.28618 -10.28116
 Alpha  occ. eigenvalues --  -10.27903 -10.27555 -10.27258 -10.26892 -10.26820
 Alpha  occ. eigenvalues --  -10.26771 -10.26363 -10.26318 -10.26258 -10.26045
 Alpha  occ. eigenvalues --  -10.25669 -10.25544 -10.25381 -10.25332 -10.25285
 Alpha  occ. eigenvalues --  -10.25092 -10.25030 -10.24969 -10.24651 -10.24265
 Alpha  occ. eigenvalues --  -10.24047 -10.23979 -10.23956 -10.23798 -10.23687
 Alpha  occ. eigenvalues --  -10.23542 -10.23521 -10.23484 -10.23456 -10.23355
 Alpha  occ. eigenvalues --  -10.23134 -10.22967 -10.22922 -10.22905 -10.22695
 Alpha  occ. eigenvalues --  -10.22531 -10.22520 -10.22266 -10.22241 -10.22142
 Alpha  occ. eigenvalues --  -10.22113 -10.22034 -10.22003 -10.21813 -10.21631
 Alpha  occ. eigenvalues --  -10.21458  -3.14666  -1.87493  -1.87040  -1.86893
 Alpha  occ. eigenvalues --   -1.10829  -1.09399  -1.04930  -1.03416  -1.01232
 Alpha  occ. eigenvalues --   -1.00932  -0.99758  -0.98240  -0.97689  -0.96436
 Alpha  occ. eigenvalues --   -0.86077  -0.85190  -0.84342  -0.83724  -0.83234
 Alpha  occ. eigenvalues --   -0.82733  -0.82363  -0.81435  -0.80992  -0.80722
 Alpha  occ. eigenvalues --   -0.80067  -0.79732  -0.78762  -0.77305  -0.77065
 Alpha  occ. eigenvalues --   -0.76627  -0.75937  -0.75349  -0.74853  -0.74235
 Alpha  occ. eigenvalues --   -0.73923  -0.72360  -0.72265  -0.71117  -0.70673
 Alpha  occ. eigenvalues --   -0.69906  -0.69371  -0.69349  -0.69059  -0.68309
 Alpha  occ. eigenvalues --   -0.67812  -0.67245  -0.65918  -0.65284  -0.63933
 Alpha  occ. eigenvalues --   -0.62964  -0.62667  -0.61395  -0.61227  -0.59931
 Alpha  occ. eigenvalues --   -0.59813  -0.59364  -0.59203  -0.58642  -0.58569
 Alpha  occ. eigenvalues --   -0.58243  -0.57683  -0.56967  -0.55380  -0.54799
 Alpha  occ. eigenvalues --   -0.54609  -0.53723  -0.53274  -0.52765  -0.51555
 Alpha  occ. eigenvalues --   -0.51199  -0.50804  -0.50599  -0.50384  -0.49844
 Alpha  occ. eigenvalues --   -0.49738  -0.49291  -0.49068  -0.48508  -0.48379
 Alpha  occ. eigenvalues --   -0.48086  -0.47740  -0.47545  -0.47156  -0.47125
 Alpha  occ. eigenvalues --   -0.47049  -0.46942  -0.46505  -0.46397  -0.46219
 Alpha  occ. eigenvalues --   -0.46037  -0.45711  -0.45375  -0.45225  -0.44717
 Alpha  occ. eigenvalues --   -0.44689  -0.44606  -0.44550  -0.44360  -0.44234
 Alpha  occ. eigenvalues --   -0.43919  -0.43794  -0.43479  -0.43190  -0.43019
 Alpha  occ. eigenvalues --   -0.42936  -0.42917  -0.42566  -0.42503  -0.42321
 Alpha  occ. eigenvalues --   -0.41991  -0.41602  -0.41230  -0.41065  -0.40931
 Alpha  occ. eigenvalues --   -0.40731  -0.40687  -0.40555  -0.40414  -0.40257
 Alpha  occ. eigenvalues --   -0.40043  -0.39987  -0.39616  -0.39529  -0.39248
 Alpha  occ. eigenvalues --   -0.39109  -0.38930  -0.38902  -0.38748  -0.38663
 Alpha  occ. eigenvalues --   -0.38549  -0.38207  -0.38080  -0.38024  -0.37869
 Alpha  occ. eigenvalues --   -0.37710  -0.37601  -0.37314  -0.37077  -0.36976
 Alpha  occ. eigenvalues --   -0.36764  -0.36734  -0.36717  -0.36560  -0.36523
 Alpha  occ. eigenvalues --   -0.35974  -0.35763  -0.35654  -0.35420  -0.35197
 Alpha  occ. eigenvalues --   -0.34952  -0.34816  -0.34340  -0.34262  -0.33777
 Alpha  occ. eigenvalues --   -0.33459  -0.33052  -0.32808  -0.32653  -0.32159
 Alpha  occ. eigenvalues --   -0.32000  -0.31973  -0.31925  -0.31046  -0.31014
 Alpha  occ. eigenvalues --   -0.30771  -0.30061  -0.29726  -0.29635  -0.29377
 Alpha  occ. eigenvalues --   -0.28330  -0.27747  -0.26858  -0.26730  -0.26128
 Alpha  occ. eigenvalues --   -0.25752  -0.25347  -0.25316  -0.25198  -0.20819
 Alpha  occ. eigenvalues --   -0.18665
 Alpha virt. eigenvalues --   -0.11237  -0.04500  -0.03844  -0.02318  -0.01969
 Alpha virt. eigenvalues --   -0.00728   0.00486   0.01402   0.01963   0.03449
 Alpha virt. eigenvalues --    0.04590   0.05033   0.05278   0.05582   0.05802

 Mulliken charges:
               1
     1  Mg   0.983900
     2  C    0.049327
     3  C   -0.078173
     4  C   -0.039331
     5  C   -0.058426
     6  N   -0.406461
     7  C   -0.002687
     8  C   -0.093679
     9  C   -0.113238
    10  C    0.101470
    11  C   -0.010700
    12  C    0.036832
    13  C    0.005798
    14  C    0.246495
    15  O   -0.317298
    16  O   -0.369223
    17  N   -0.513892
    18  C    0.169840
    19  C   -0.139865
    20  C   -0.090653
    21  C    0.127768
    22  C    0.017530
    23  C    0.044138
    24  O   -0.236022
    25  C   -0.027037
    26  N   -0.327721
    27  C    0.053027
    28  C   -0.086095
    29  C   -0.090545
    30  C    0.089265
    31  C    0.023080
    32  C   -0.075659
    33  C   -0.048140
    34  N   -0.451129
    35  C    0.059957
    36  C   -0.180755
    37  C   -0.016991
    38  C    0.115199
    39  C    0.072541
    40  C    0.133997
    41  O   -0.220640
    42  C   -0.123389
    43  C    0.272924
    44  O   -0.254485
    45  O   -0.365334
    46  C    0.132921
    47  C    0.226208
    48  C   -0.127835
    49  C   -0.229135
    50  C    0.000000
    51  C    0.037202
    52  C   -0.009337
    53  C   -0.015495
    54  C   -0.241043
    55  C    0.000445
    56  C    0.047677
    57  C   -0.054787
    58  C   -0.024629
    59  C   -0.216336
    60  C   -0.015374
    61  C    0.020389
    62  C   -0.063175
    63  C    0.005154
    64  C   -0.196245
    65  C   -0.054035
    66  C   -0.028812
    67  H    0.002974
    68  H    0.024168
    69  H   -0.010512
    70  H    0.079767
    71  H    0.047607
    72  H    0.045450
    73  H    0.045452
    74  H    0.043870
    75  H    0.048853
    76  H    0.056765
    77  H    0.056113
    78  H    0.075159
    79  H    0.054442
    80  H    0.049891
    81  H    0.043272
    82  H    0.062444
    83  H    0.082440
    84  H    0.054159
    85  H    0.056412
    86  H    0.052357
    87  H    0.059644
    88  H    0.037251
    89  H    0.037578
    90  H    0.037479
    91  H    0.033269
    92  H    0.042545
    93  H    0.045951
    94  H    0.055668
    95  H    0.056685
    96  H    0.036603
    97  H    0.062304
    98  H    0.057463
    99  H    0.050809
   100  H    0.068646
   101  H    0.052579
   102  H    0.059188
   103  H    0.072550
   104  H    0.022722
   105  H    0.029122
   106  H    0.053925
   107  H    0.055534
   108  H    0.022377
   109  H    0.040150
   110  H    0.051699
   111  H    0.041209
   112  H    0.004895
   113  H   -0.004500
   114  H    0.030879
   115  H    0.026547
   116  H    0.024100
   117  H    0.040672
   118  H    0.018006
   119  H    0.025147
   120  H    0.024222
   121  H    0.028788
   122  H    0.031685
   123  H    0.026525
   124  H    0.038733
   125  H    0.025306
   126  H    0.027049
   127  H    0.025746
   128  H    0.035862
   129  H    0.035340
   130  H    0.022050
   131  H    0.032042
   132  H    0.023632
   133  H    0.016618
   134  H    0.039129
   135  H    0.026734
   136  H    0.032343
   137  H    0.032976
   138  H    0.037258
   139  H    0.036364
   140  H    0.022540
 Sum of Mulliken charges =  -0.00000

 Dipole moment (field-independent basis, Debye):
    X=             -5.5190    Y=              2.2924    Z=              2.0656  Tot=              6.3231
 Quadrupole moment (field-independent basis, Debye-Ang):
   XX=           -385.8347   YY=           -429.2366   ZZ=           -400.1615
   XY=             36.9870   XZ=             10.3968   YZ=            -11.4133

 Normal termination of Gaussian 16 at Wed May  4 07:43:48 2022.
