 Gaussian 16, Revision A.03,
 Gaussian 16:  ES64L-G16RevA.03 25-Dec-2016

 --------------------------------
 #p wB97XD/Def2SVP td=(nstates=5)
 --------------------------------

 -----------------------------------------------------
 step_1501_chromophore_18 TDDFT with wB97XD functional
 -----------------------------------------------------
 Symbolic Z-matrix:
 Charge =  0 Multiplicity = 1

                         Standard orientation:
 ---------------------------------------------------------------------
 Center     Atomic      Atomic             Coordinates (Angstroms)
 Number     Number       Type             X           Y           Z
 ---------------------------------------------------------------------
      1         12           0        5.300304    1.198264    0.426470
      2          6           0        4.558880   -2.302370    0.320194
      3          6           0        1.928668    1.814344    0.247685
      4          6           0        6.148185    4.345664    0.110554
      5          6           0        8.656732    0.372650   -0.299867
      6          7           0        3.513958   -0.092131    0.245188
      7          6           0        3.441792   -1.511638    0.367198
      8          6           0        2.023158   -2.010670    0.560544
      9          6           0        1.171910   -0.702281    0.341499
     10          6           0        2.230983    0.397296    0.285912
     11          6           0        0.185836   -0.712115   -0.853092
     12          6           0        1.662506   -2.842279    1.832647
     13          6           0        0.874274   -4.188380    1.690401
     14          6           0       -0.085321   -4.307631    0.397744
     15          8           0        0.170983   -4.927793   -0.696374
     16          8           0       -1.303063   -3.645535    0.538846
     17          7           0        4.170563    2.849115    0.272185
     18          6           0        2.800216    2.920640    0.174012
     19          6           0        2.416525    4.302401   -0.023473
     20          6           0        3.628762    5.083475    0.122542
     21          6           0        4.711684    4.073278    0.206996
     22          6           0        1.050978    4.623062   -0.608560
     23          6           0        3.815118    6.605219   -0.016873
     24          8           0        4.894519    7.159027    0.153976
     25          6           0        2.608581    7.420756   -0.487091
     26          7           0        7.177213    2.246935   -0.137416
     27          6           0        7.261512    3.571017   -0.133109
     28          6           0        8.698529    4.178096   -0.304414
     29          6           0        9.464351    2.801421   -0.403914
     30          6           0        8.380972    1.709719   -0.260094
     31          6           0        9.000310    5.105089   -1.503825
     32          6           0       10.426802    2.684687    0.784621
     33          6           0        9.917928    2.357477    2.233560
     34          7           0        6.463240   -0.579952    0.162207
     35          6           0        7.814829   -0.781801   -0.158230
     36          6           0        8.096490   -2.172106   -0.248611
     37          6           0        6.890212   -2.821975   -0.098419
     38          6           0        5.925139   -1.809111    0.161670
     39          6           0        9.502535   -2.788976   -0.404462
     40          6           0        6.241315   -4.111105    0.025014
     41          8           0        6.654832   -5.263734   -0.088284
     42          6           0        4.731911   -3.806961    0.194484
     43          6           0        4.080878   -4.407600   -1.056738
     44          8           0        4.095430   -3.847306   -2.137875
     45          8           0        3.602474   -5.681060   -0.840002
     46          6           0        2.772264   -6.205262   -1.945860
     47          6           0       -2.165259   -3.892283   -0.643962
     48          6           0       -3.410558   -3.064619   -0.631413
     49          6           0       -4.641451   -3.421898   -1.068870
     50          6           0       -4.833078   -4.766037   -1.758579
     51          6           0       -5.837968   -2.514934   -0.878339
     52          6           0       -6.915470   -2.787381    0.227354
     53          6           0       -6.929494   -1.617805    1.283479
     54          6           0       -8.269320   -1.455372    1.980850
     55          6           0       -8.213572   -1.184839    3.488132
     56          6           0       -9.018397   -0.315260    1.334107
     57          6           0      -10.454117   -0.651497    1.241482
     58          6           0      -11.317694    0.601141    1.786536
     59          6           0      -12.186313    1.282006    0.671779
     60          6           0      -11.546999    2.586867    0.119103
     61          6           0      -13.594516    1.515719    1.235649
     62          6           0      -14.623777    0.992802    0.125404
     63          6           0      -15.526846    2.078824   -0.481092
     64          6           0      -15.004870    2.801964   -1.828174
     65          6           0      -14.736874    4.315856   -1.617824
     66          6           0      -15.905258    2.662773   -3.106447
     67          1           0        0.858170    2.026172    0.222671
     68          1           0        6.303372    5.425345    0.048432
     69          1           0        9.658448   -0.024413   -0.479343
     70          1           0        1.956313   -2.644375   -0.323763
     71          1           0        0.507046   -0.648508    1.203897
     72          1           0        0.481616   -1.467426   -1.580335
     73          1           0        0.110723    0.215551   -1.419593
     74          1           0       -0.812288   -1.045087   -0.568807
     75          1           0        1.037016   -2.221806    2.474142
     76          1           0        2.637193   -3.018574    2.287479
     77          1           0        0.199003   -4.241038    2.544313
     78          1           0        1.441620   -5.111835    1.804510
     79          1           0        0.982892    5.375087   -1.393944
     80          1           0        0.311372    4.876150    0.151606
     81          1           0        0.608976    3.741485   -1.072204
     82          1           0        1.764159    7.174417    0.156370
     83          1           0        2.499434    7.210693   -1.551540
     84          1           0        2.868656    8.459300   -0.285875
     85          1           0        9.021686    4.728466    0.579180
     86          1           0        9.938452    2.520381   -1.344601
     87          1           0        8.168839    5.090269   -2.207505
     88          1           0        9.970004    4.806519   -1.902660
     89          1           0        9.242876    6.118008   -1.183400
     90          1           0       11.029739    3.581337    0.929009
     91          1           0       11.077788    1.901778    0.397551
     92          1           0        8.997165    2.912095    2.415231
     93          1           0       10.659189    2.723409    2.943306
     94          1           0        9.754628    1.287077    2.360574
     95          1           0        9.642865   -3.580984    0.331381
     96          1           0       10.307120   -2.063845   -0.279341
     97          1           0        9.565891   -3.309786   -1.360018
     98          1           0        4.340457   -4.448473    0.983680
     99          1           0        3.393920   -6.858395   -2.559078
    100          1           0        2.274581   -5.443162   -2.544976
    101          1           0        2.000078   -6.850297   -1.526058
    102          1           0       -2.495420   -4.929297   -0.704172
    103          1           0       -1.655169   -3.658776   -1.577889
    104          1           0       -3.324662   -2.133233   -0.071521
    105          1           0       -3.906780   -5.321922   -1.904997
    106          1           0       -5.209839   -4.664093   -2.776160
    107          1           0       -5.449473   -5.435815   -1.158241
    108          1           0       -6.304593   -2.765015   -1.832076
    109          1           0       -5.516947   -1.474169   -0.886964
    110          1           0       -6.811106   -3.680176    0.844779
    111          1           0       -7.890578   -2.724822   -0.255353
    112          1           0       -6.425219   -0.704137    0.970107
    113          1           0       -6.213000   -1.756166    2.092979
    114          1           0       -8.747644   -2.432860    1.915517
    115          1           0       -7.422733   -1.789748    3.931812
    116          1           0       -9.090923   -1.640730    3.946527
    117          1           0       -8.191776   -0.147895    3.823459
    118          1           0       -8.674466   -0.088052    0.324971
    119          1           0       -8.818483    0.610551    1.874055
    120          1           0      -10.754052   -1.476882    1.886624
    121          1           0      -10.736460   -1.021342    0.255561
    122          1           0      -10.759018    1.401940    2.270092
    123          1           0      -11.937452    0.051692    2.496963
    124          1           0      -12.058991    0.663330   -0.216802
    125          1           0      -11.165643    2.479327   -0.896131
    126          1           0      -10.705053    2.919453    0.726007
    127          1           0      -12.256161    3.402166   -0.029982
    128          1           0      -13.621460    2.582889    1.455525
    129          1           0      -13.849658    0.924384    2.115705
    130          1           0      -15.338187    0.349276    0.639017
    131          1           0      -14.152351    0.343343   -0.612679
    132          1           0      -15.766161    2.716036    0.370111
    133          1           0      -16.513140    1.695501   -0.740316
    134          1           0      -13.995209    2.505609   -2.114320
    135          1           0      -13.874650    4.522934   -0.984657
    136          1           0      -15.552877    4.813683   -1.094158
    137          1           0      -14.567088    4.808254   -2.574919
    138          1           0      -16.415464    3.586655   -3.380365
    139          1           0      -16.517219    1.760308   -3.088818
    140          1           0      -15.335440    2.516185   -4.023576
 ---------------------------------------------------------------------

 SCF Done:  E(RwB97XD) =  -3007.84275298     A.U. after   20 cycles

 Excitation energies and oscillator strengths:

 Excited State   1:      Singlet-A      1.6329 eV  759.29 nm  f=0.3795  <S**2>=0.000
     245 -> 248       -0.17025
     246 -> 247        0.68739
     245 <- 248       -0.11347
 This state for optimization and/or second-order correction.
 Total Energy, E(TD-HF/TD-DFT) =  -3007.78274486
 Copying the excited state density for this state as the 1-particle RhoCI density.

 Excited State   2:      Singlet-A      2.1676 eV  571.98 nm  f=0.1583  <S**2>=0.000
     245 -> 247        0.65267
     246 -> 248        0.25766

 Excited State   3:      Singlet-A      3.4294 eV  361.53 nm  f=0.0016  <S**2>=0.000
     241 -> 247       -0.37106
     244 -> 247        0.58033

 Excited State   4:      Singlet-A      3.5424 eV  350.00 nm  f=0.0276  <S**2>=0.000
     240 -> 247       -0.18055
     240 -> 249        0.10873
     241 -> 247        0.47539
     244 -> 247        0.32040
     246 -> 248       -0.28223

 Excited State   5:      Singlet-A      3.5982 eV  344.57 nm  f=0.0008  <S**2>=0.000
     242 -> 247        0.54881
     242 -> 249        0.26819
     242 -> 250       -0.24488
     242 -> 251        0.18531

 The electronic state is 1-A.
 Alpha  occ. eigenvalues --  -46.95529 -19.32139 -19.28917 -19.25970 -19.24629
 Alpha  occ. eigenvalues --  -19.23399 -19.22986 -14.47025 -14.46169 -14.44537
 Alpha  occ. eigenvalues --  -14.43372 -10.45470 -10.41988 -10.39758 -10.38152
 Alpha  occ. eigenvalues --  -10.36133 -10.36099 -10.35228 -10.34812 -10.34600
 Alpha  occ. eigenvalues --  -10.34587 -10.33666 -10.33602 -10.33563 -10.33333
 Alpha  occ. eigenvalues --  -10.32728 -10.32699 -10.32574 -10.32351 -10.32275
 Alpha  occ. eigenvalues --  -10.32252 -10.31931 -10.31636 -10.31626 -10.31582
 Alpha  occ. eigenvalues --  -10.31513 -10.31375 -10.31198 -10.31105 -10.30642
 Alpha  occ. eigenvalues --  -10.30371 -10.30352 -10.30324 -10.30265 -10.30236
 Alpha  occ. eigenvalues --  -10.29994 -10.29921 -10.29918 -10.29917 -10.29592
 Alpha  occ. eigenvalues --  -10.29545 -10.29290 -10.29247 -10.29182 -10.29079
 Alpha  occ. eigenvalues --  -10.28897 -10.28884 -10.28613 -10.28494 -10.28483
 Alpha  occ. eigenvalues --  -10.28476 -10.28434 -10.28258 -10.28240 -10.28091
 Alpha  occ. eigenvalues --  -10.27838  -3.21464  -1.95039  -1.94584  -1.94431
 Alpha  occ. eigenvalues --   -1.18178  -1.16698  -1.12642  -1.10695  -1.08496
 Alpha  occ. eigenvalues --   -1.08248  -1.07129  -1.05801  -1.04867  -1.03822
 Alpha  occ. eigenvalues --   -0.93566  -0.92856  -0.92006  -0.91353  -0.90804
 Alpha  occ. eigenvalues --   -0.90415  -0.90065  -0.89074  -0.88697  -0.88410
 Alpha  occ. eigenvalues --   -0.87608  -0.87399  -0.86438  -0.84974  -0.84605
 Alpha  occ. eigenvalues --   -0.84292  -0.83746  -0.83044  -0.82558  -0.81895
 Alpha  occ. eigenvalues --   -0.81485  -0.80225  -0.79844  -0.78682  -0.78353
 Alpha  occ. eigenvalues --   -0.77461  -0.77081  -0.76906  -0.76767  -0.75971
 Alpha  occ. eigenvalues --   -0.75400  -0.74752  -0.73531  -0.72851  -0.71491
 Alpha  occ. eigenvalues --   -0.70529  -0.70240  -0.69014  -0.68873  -0.67530
 Alpha  occ. eigenvalues --   -0.67398  -0.66800  -0.66668  -0.66280  -0.66020
 Alpha  occ. eigenvalues --   -0.65607  -0.65370  -0.64607  -0.62782  -0.62325
 Alpha  occ. eigenvalues --   -0.62123  -0.61099  -0.60669  -0.60048  -0.58950
 Alpha  occ. eigenvalues --   -0.58656  -0.58289  -0.57983  -0.57817  -0.57215
 Alpha  occ. eigenvalues --   -0.57097  -0.56687  -0.56476  -0.55948  -0.55774
 Alpha  occ. eigenvalues --   -0.55507  -0.55080  -0.54918  -0.54871  -0.54522
 Alpha  occ. eigenvalues --   -0.54411  -0.54239  -0.53809  -0.53780  -0.53631
 Alpha  occ. eigenvalues --   -0.53385  -0.53063  -0.52761  -0.52437  -0.52304
 Alpha  occ. eigenvalues --   -0.52020  -0.51951  -0.51904  -0.51729  -0.51523
 Alpha  occ. eigenvalues --   -0.51329  -0.51147  -0.50861  -0.50454  -0.50354
 Alpha  occ. eigenvalues --   -0.50246  -0.50163  -0.49857  -0.49759  -0.49606
 Alpha  occ. eigenvalues --   -0.49377  -0.48822  -0.48427  -0.48316  -0.48168
 Alpha  occ. eigenvalues --   -0.48026  -0.47869  -0.47686  -0.47618  -0.47329
 Alpha  occ. eigenvalues --   -0.47286  -0.47164  -0.46811  -0.46616  -0.46418
 Alpha  occ. eigenvalues --   -0.46281  -0.46106  -0.45973  -0.45901  -0.45874
 Alpha  occ. eigenvalues --   -0.45685  -0.45394  -0.45330  -0.45190  -0.45027
 Alpha  occ. eigenvalues --   -0.44880  -0.44781  -0.44495  -0.44199  -0.43977
 Alpha  occ. eigenvalues --   -0.43837  -0.43732  -0.43669  -0.43645  -0.43632
 Alpha  occ. eigenvalues --   -0.43098  -0.42840  -0.42654  -0.42486  -0.42276
 Alpha  occ. eigenvalues --   -0.41968  -0.41868  -0.41341  -0.41236  -0.40859
 Alpha  occ. eigenvalues --   -0.40459  -0.39998  -0.39822  -0.39670  -0.39244
 Alpha  occ. eigenvalues --   -0.39083  -0.38986  -0.38783  -0.38045  -0.37921
 Alpha  occ. eigenvalues --   -0.37794  -0.37048  -0.36611  -0.36465  -0.36418
 Alpha  occ. eigenvalues --   -0.35067  -0.34613  -0.33710  -0.33539  -0.33197
 Alpha  occ. eigenvalues --   -0.32642  -0.32129  -0.32032  -0.31655  -0.25821
 Alpha  occ. eigenvalues --   -0.22856
 Alpha virt. eigenvalues --   -0.07176   0.00994   0.02388   0.04455   0.04711
 Alpha virt. eigenvalues --    0.05228   0.07152   0.08115   0.08872   0.09957
 Alpha virt. eigenvalues --    0.10881   0.11835   0.12100   0.12291   0.12593

 Mulliken charges:
               1
     1  Mg   0.974867
     2  C    0.046751
     3  C   -0.100157
     4  C   -0.051857
     5  C   -0.069446
     6  N   -0.376397
     7  C   -0.025651
     8  C   -0.067750
     9  C   -0.088249
    10  C    0.092502
    11  C    0.003312
    12  C    0.048013
    13  C    0.022179
    14  C    0.234709
    15  O   -0.315221
    16  O   -0.368538
    17  N   -0.482195
    18  C    0.171058
    19  C   -0.131319
    20  C   -0.084626
    21  C    0.118182
    22  C    0.028740
    23  C    0.041911
    24  O   -0.229056
    25  C   -0.014844
    26  N   -0.289736
    27  C    0.038875
    28  C   -0.066667
    29  C   -0.065375
    30  C    0.074920
    31  C    0.032953
    32  C   -0.061343
    33  C   -0.027285
    34  N   -0.414996
    35  C    0.045366
    36  C   -0.178708
    37  C   -0.014717
    38  C    0.092946
    39  C    0.082893
    40  C    0.118794
    41  O   -0.212822
    42  C   -0.084467
    43  C    0.249558
    44  O   -0.250125
    45  O   -0.363644
    46  C    0.145005
    47  C    0.243520
    48  C   -0.138097
    49  C   -0.216699
    50  C    0.012619
    51  C    0.058429
    52  C    0.007485
    53  C   -0.004332
    54  C   -0.204575
    55  C    0.010022
    56  C    0.061083
    57  C   -0.040851
    58  C   -0.007121
    59  C   -0.186451
    60  C    0.001630
    61  C    0.034197
    62  C   -0.044948
    63  C    0.018068
    64  C   -0.169672
    65  C   -0.037905
    66  C   -0.016297
    67  H   -0.003457
    68  H    0.018101
    69  H   -0.020873
    70  H    0.056869
    71  H    0.037642
    72  H    0.040322
    73  H    0.039868
    74  H    0.033695
    75  H    0.041838
    76  H    0.047961
    77  H    0.050896
    78  H    0.072016
    79  H    0.050683
    80  H    0.046829
    81  H    0.039000
    82  H    0.056786
    83  H    0.078416
    84  H    0.053463
    85  H    0.047155
    86  H    0.044049
    87  H    0.054386
    88  H    0.031285
    89  H    0.032549
    90  H    0.028231
    91  H    0.024572
    92  H    0.031614
    93  H    0.040959
    94  H    0.048663
    95  H    0.050959
    96  H    0.030908
    97  H    0.056598
    98  H    0.049584
    99  H    0.047464
   100  H    0.065490
   101  H    0.049612
   102  H    0.051137
   103  H    0.066968
   104  H    0.018717
   105  H    0.023840
   106  H    0.048768
   107  H    0.050063
   108  H    0.013101
   109  H    0.032695
   110  H    0.045049
   111  H    0.031475
   112  H   -0.004285
   113  H   -0.014335
   114  H    0.017892
   115  H    0.020116
   116  H    0.017741
   117  H    0.035194
   118  H    0.009231
   119  H    0.013355
   120  H    0.014400
   121  H    0.022072
   122  H    0.021244
   123  H    0.017357
   124  H    0.022050
   125  H    0.020300
   126  H    0.021023
   127  H    0.009563
   128  H    0.026479
   129  H    0.028001
   130  H    0.014888
   131  H    0.023526
   132  H    0.015234
   133  H    0.008990
   134  H    0.025996
   135  H    0.018469
   136  H    0.025418
   137  H    0.026995
   138  H    0.031220
   139  H    0.030759
   140  H    0.016713
 Sum of Mulliken charges =  -0.00000

 Dipole moment (field-independent basis, Debye):
    X=             -5.9409    Y=              2.9006    Z=              2.1130  Tot=              6.9406
 Quadrupole moment (field-independent basis, Debye-Ang):
   XX=           -390.1332   YY=           -426.5659   ZZ=           -399.7557
   XY=             38.8499   XZ=             10.9614   YZ=            -11.7502

 Normal termination of Gaussian 16 at Wed May  4 08:10:47 2022.
