 Gaussian 16, Revision A.03,
 Gaussian 16:  ES64L-G16RevA.03 25-Dec-2016

 --------------------
 #p ZINDO=(nstates=5)
 --------------------

 ------------------------------
 step_1501_chromophore_18 ZINDO
 ------------------------------
 Symbolic Z-matrix:
 Charge =  0 Multiplicity = 1

                         Standard orientation:
 ---------------------------------------------------------------------
 Center     Atomic      Atomic             Coordinates (Angstroms)
 Number     Number       Type             X           Y           Z
 ---------------------------------------------------------------------
      1         12           0        5.300304    1.198264    0.426470
      2          6           0        4.558880   -2.302370    0.320194
      3          6           0        1.928668    1.814344    0.247685
      4          6           0        6.148185    4.345664    0.110554
      5          6           0        8.656732    0.372650   -0.299867
      6          7           0        3.513958   -0.092131    0.245188
      7          6           0        3.441792   -1.511638    0.367198
      8          6           0        2.023158   -2.010670    0.560544
      9          6           0        1.171910   -0.702281    0.341499
     10          6           0        2.230983    0.397296    0.285912
     11          6           0        0.185836   -0.712115   -0.853092
     12          6           0        1.662506   -2.842279    1.832647
     13          6           0        0.874274   -4.188380    1.690401
     14          6           0       -0.085321   -4.307631    0.397744
     15          8           0        0.170983   -4.927793   -0.696374
     16          8           0       -1.303063   -3.645535    0.538846
     17          7           0        4.170563    2.849115    0.272185
     18          6           0        2.800216    2.920640    0.174012
     19          6           0        2.416525    4.302401   -0.023473
     20          6           0        3.628762    5.083475    0.122542
     21          6           0        4.711684    4.073278    0.206996
     22          6           0        1.050978    4.623062   -0.608560
     23          6           0        3.815118    6.605219   -0.016873
     24          8           0        4.894519    7.159027    0.153976
     25          6           0        2.608581    7.420756   -0.487091
     26          7           0        7.177213    2.246935   -0.137416
     27          6           0        7.261512    3.571017   -0.133109
     28          6           0        8.698529    4.178096   -0.304414
     29          6           0        9.464351    2.801421   -0.403914
     30          6           0        8.380972    1.709719   -0.260094
     31          6           0        9.000310    5.105089   -1.503825
     32          6           0       10.426802    2.684687    0.784621
     33          6           0        9.917928    2.357477    2.233560
     34          7           0        6.463240   -0.579952    0.162207
     35          6           0        7.814829   -0.781801   -0.158230
     36          6           0        8.096490   -2.172106   -0.248611
     37          6           0        6.890212   -2.821975   -0.098419
     38          6           0        5.925139   -1.809111    0.161670
     39          6           0        9.502535   -2.788976   -0.404462
     40          6           0        6.241315   -4.111105    0.025014
     41          8           0        6.654832   -5.263734   -0.088284
     42          6           0        4.731911   -3.806961    0.194484
     43          6           0        4.080878   -4.407600   -1.056738
     44          8           0        4.095430   -3.847306   -2.137875
     45          8           0        3.602474   -5.681060   -0.840002
     46          6           0        2.772264   -6.205262   -1.945860
     47          6           0       -2.165259   -3.892283   -0.643962
     48          6           0       -3.410558   -3.064619   -0.631413
     49          6           0       -4.641451   -3.421898   -1.068870
     50          6           0       -4.833078   -4.766037   -1.758579
     51          6           0       -5.837968   -2.514934   -0.878339
     52          6           0       -6.915470   -2.787381    0.227354
     53          6           0       -6.929494   -1.617805    1.283479
     54          6           0       -8.269320   -1.455372    1.980850
     55          6           0       -8.213572   -1.184839    3.488132
     56          6           0       -9.018397   -0.315260    1.334107
     57          6           0      -10.454117   -0.651497    1.241482
     58          6           0      -11.317694    0.601141    1.786536
     59          6           0      -12.186313    1.282006    0.671779
     60          6           0      -11.546999    2.586867    0.119103
     61          6           0      -13.594516    1.515719    1.235649
     62          6           0      -14.623777    0.992802    0.125404
     63          6           0      -15.526846    2.078824   -0.481092
     64          6           0      -15.004870    2.801964   -1.828174
     65          6           0      -14.736874    4.315856   -1.617824
     66          6           0      -15.905258    2.662773   -3.106447
     67          1           0        0.858170    2.026172    0.222671
     68          1           0        6.303372    5.425345    0.048432
     69          1           0        9.658448   -0.024413   -0.479343
     70          1           0        1.956313   -2.644375   -0.323763
     71          1           0        0.507046   -0.648508    1.203897
     72          1           0        0.481616   -1.467426   -1.580335
     73          1           0        0.110723    0.215551   -1.419593
     74          1           0       -0.812288   -1.045087   -0.568807
     75          1           0        1.037016   -2.221806    2.474142
     76          1           0        2.637193   -3.018574    2.287479
     77          1           0        0.199003   -4.241038    2.544313
     78          1           0        1.441620   -5.111835    1.804510
     79          1           0        0.982892    5.375087   -1.393944
     80          1           0        0.311372    4.876150    0.151606
     81          1           0        0.608976    3.741485   -1.072204
     82          1           0        1.764159    7.174417    0.156370
     83          1           0        2.499434    7.210693   -1.551540
     84          1           0        2.868656    8.459300   -0.285875
     85          1           0        9.021686    4.728466    0.579180
     86          1           0        9.938452    2.520381   -1.344601
     87          1           0        8.168839    5.090269   -2.207505
     88          1           0        9.970004    4.806519   -1.902660
     89          1           0        9.242876    6.118008   -1.183400
     90          1           0       11.029739    3.581337    0.929009
     91          1           0       11.077788    1.901778    0.397551
     92          1           0        8.997165    2.912095    2.415231
     93          1           0       10.659189    2.723409    2.943306
     94          1           0        9.754628    1.287077    2.360574
     95          1           0        9.642865   -3.580984    0.331381
     96          1           0       10.307120   -2.063845   -0.279341
     97          1           0        9.565891   -3.309786   -1.360018
     98          1           0        4.340457   -4.448473    0.983680
     99          1           0        3.393920   -6.858395   -2.559078
    100          1           0        2.274581   -5.443162   -2.544976
    101          1           0        2.000078   -6.850297   -1.526058
    102          1           0       -2.495420   -4.929297   -0.704172
    103          1           0       -1.655169   -3.658776   -1.577889
    104          1           0       -3.324662   -2.133233   -0.071521
    105          1           0       -3.906780   -5.321922   -1.904997
    106          1           0       -5.209839   -4.664093   -2.776160
    107          1           0       -5.449473   -5.435815   -1.158241
    108          1           0       -6.304593   -2.765015   -1.832076
    109          1           0       -5.516947   -1.474169   -0.886964
    110          1           0       -6.811106   -3.680176    0.844779
    111          1           0       -7.890578   -2.724822   -0.255353
    112          1           0       -6.425219   -0.704137    0.970107
    113          1           0       -6.213000   -1.756166    2.092979
    114          1           0       -8.747644   -2.432860    1.915517
    115          1           0       -7.422733   -1.789748    3.931812
    116          1           0       -9.090923   -1.640730    3.946527
    117          1           0       -8.191776   -0.147895    3.823459
    118          1           0       -8.674466   -0.088052    0.324971
    119          1           0       -8.818483    0.610551    1.874055
    120          1           0      -10.754052   -1.476882    1.886624
    121          1           0      -10.736460   -1.021342    0.255561
    122          1           0      -10.759018    1.401940    2.270092
    123          1           0      -11.937452    0.051692    2.496963
    124          1           0      -12.058991    0.663330   -0.216802
    125          1           0      -11.165643    2.479327   -0.896131
    126          1           0      -10.705053    2.919453    0.726007
    127          1           0      -12.256161    3.402166   -0.029982
    128          1           0      -13.621460    2.582889    1.455525
    129          1           0      -13.849658    0.924384    2.115705
    130          1           0      -15.338187    0.349276    0.639017
    131          1           0      -14.152351    0.343343   -0.612679
    132          1           0      -15.766161    2.716036    0.370111
    133          1           0      -16.513140    1.695501   -0.740316
    134          1           0      -13.995209    2.505609   -2.114320
    135          1           0      -13.874650    4.522934   -0.984657
    136          1           0      -15.552877    4.813683   -1.094158
    137          1           0      -14.567088    4.808254   -2.574919
    138          1           0      -16.415464    3.586655   -3.380365
    139          1           0      -16.517219    1.760308   -3.088818
    140          1           0      -15.335440    2.516185   -4.023576
 ---------------------------------------------------------------------

 SCF Done:  E(RZINDO/S) =  -473.966623606     A.U. after   19 cycles

 Excitation energies and oscillator strengths:

 Excited State   1:      Singlet-A      1.2265 eV 1010.89 nm  f=0.6125  <S**2>=0.000
     175 ->178         0.17744
     176 ->177         0.66636
 This state for optimization and/or second-order correction.
 Total Energy, E(CIS/TDA) =  -473.921551261
 Copying the excited state density for this state as the 1-particle RhoCI density.

 Excited State   2:      Singlet-A      1.9344 eV  640.95 nm  f=0.0948  <S**2>=0.000
     175 ->177         0.57818
     176 ->178        -0.37508

 Excited State   3:      Singlet-A      3.0006 eV  413.20 nm  f=0.0009  <S**2>=0.000
     168 ->177        -0.27854
     168 ->179         0.40434
     168 ->181        -0.19173
     168 ->184        -0.15413
     168 ->186         0.19957
     171 ->177         0.11462
     176 ->179         0.22094

 Excited State   4:      Singlet-A      3.0048 eV  412.62 nm  f=0.4813  <S**2>=0.000
     175 ->177         0.25597
     176 ->178         0.45979
     176 ->179        -0.32805
     176 ->181        -0.16068
     176 ->182        -0.10724

 Excited State   5:      Singlet-A      3.0236 eV  410.05 nm  f=0.0266  <S**2>=0.000
     169 ->177         0.30527
     169 ->178        -0.18034
     169 ->179         0.27712
     169 ->181         0.40566
     169 ->186         0.15062
     169 ->187         0.12301
     169 ->204        -0.11283

 The electronic state is 1-A.
 Alpha  occ. eigenvalues --   -1.83215  -1.81462  -1.79384  -1.71779  -1.70684
 Alpha  occ. eigenvalues --   -1.69495  -1.66648  -1.60020  -1.58619  -1.57246
 Alpha  occ. eigenvalues --   -1.53526  -1.50097  -1.47442  -1.47261  -1.45343
 Alpha  occ. eigenvalues --   -1.42204  -1.41326  -1.39487  -1.39030  -1.38153
 Alpha  occ. eigenvalues --   -1.35066  -1.33598  -1.32065  -1.31394  -1.28623
 Alpha  occ. eigenvalues --   -1.28170  -1.24420  -1.22486  -1.19944  -1.17769
 Alpha  occ. eigenvalues --   -1.16576  -1.15767  -1.14934  -1.14528  -1.13743
 Alpha  occ. eigenvalues --   -1.13206  -1.11024  -1.10251  -1.05079  -1.03289
 Alpha  occ. eigenvalues --   -1.03125  -1.01748  -0.99957  -0.98116  -0.97491
 Alpha  occ. eigenvalues --   -0.96660  -0.94909  -0.94075  -0.92884  -0.92176
 Alpha  occ. eigenvalues --   -0.90572  -0.90224  -0.89345  -0.88371  -0.87314
 Alpha  occ. eigenvalues --   -0.84868  -0.84524  -0.82703  -0.81365  -0.80980
 Alpha  occ. eigenvalues --   -0.79412  -0.77681  -0.76631  -0.76142  -0.75416
 Alpha  occ. eigenvalues --   -0.75080  -0.74621  -0.74184  -0.73745  -0.73408
 Alpha  occ. eigenvalues --   -0.72819  -0.72560  -0.72294  -0.71461  -0.70559
 Alpha  occ. eigenvalues --   -0.70272  -0.69845  -0.68950  -0.68376  -0.68084
 Alpha  occ. eigenvalues --   -0.67054  -0.66998  -0.66640  -0.66116  -0.65788
 Alpha  occ. eigenvalues --   -0.65101  -0.64787  -0.63875  -0.63490  -0.63303
 Alpha  occ. eigenvalues --   -0.63059  -0.62517  -0.62086  -0.61925  -0.61852
 Alpha  occ. eigenvalues --   -0.61093  -0.60794  -0.60691  -0.60141  -0.59737
 Alpha  occ. eigenvalues --   -0.59518  -0.59134  -0.59073  -0.58431  -0.58261
 Alpha  occ. eigenvalues --   -0.57794  -0.57603  -0.56517  -0.56337  -0.56132
 Alpha  occ. eigenvalues --   -0.55547  -0.55438  -0.55255  -0.55011  -0.54948
 Alpha  occ. eigenvalues --   -0.54489  -0.54416  -0.53822  -0.53670  -0.52832
 Alpha  occ. eigenvalues --   -0.52381  -0.52233  -0.51744  -0.51654  -0.51341
 Alpha  occ. eigenvalues --   -0.51252  -0.51045  -0.50917  -0.50475  -0.50071
 Alpha  occ. eigenvalues --   -0.49729  -0.49603  -0.49342  -0.49219  -0.49175
 Alpha  occ. eigenvalues --   -0.49040  -0.48616  -0.48380  -0.48262  -0.48103
 Alpha  occ. eigenvalues --   -0.47793  -0.47352  -0.47312  -0.47202  -0.46394
 Alpha  occ. eigenvalues --   -0.46073  -0.46027  -0.45937  -0.45685  -0.45653
 Alpha  occ. eigenvalues --   -0.45386  -0.44991  -0.44616  -0.44012  -0.43725
 Alpha  occ. eigenvalues --   -0.43106  -0.42794  -0.42494  -0.42194  -0.42119
 Alpha  occ. eigenvalues --   -0.41637  -0.40475  -0.39081  -0.38810  -0.38297
 Alpha  occ. eigenvalues --   -0.37521  -0.37110  -0.35893  -0.34349  -0.34144
 Alpha  occ. eigenvalues --   -0.33440  -0.32479  -0.32227  -0.32172  -0.26528
 Alpha  occ. eigenvalues --   -0.21695
 Alpha virt. eigenvalues --   -0.08687  -0.01458  -0.00446   0.00310   0.01136
 Alpha virt. eigenvalues --    0.01652   0.03140   0.04050   0.04394   0.05131
 Alpha virt. eigenvalues --    0.05928   0.06614   0.06956   0.07547   0.08034

 Mulliken charges:
               1
     1  Mg   0.434245
     2  C   -0.039625
     3  C   -0.094338
     4  C   -0.078332
     5  C   -0.059906
     6  N   -0.296622
     7  C    0.109561
     8  C   -0.002383
     9  C    0.011592
    10  C    0.159187
    11  C   -0.051077
    12  C   -0.013673
    13  C    0.012339
    14  C    0.451361
    15  O   -0.528164
    16  O   -0.259768
    17  N   -0.309689
    18  C    0.126545
    19  C    0.007662
    20  C   -0.048454
    21  C    0.148750
    22  C   -0.039623
    23  C    0.327168
    24  O   -0.512747
    25  C   -0.032028
    26  N   -0.255035
    27  C    0.150180
    28  C    0.001536
    29  C   -0.001312
    30  C    0.118496
    31  C   -0.051765
    32  C   -0.032081
    33  C   -0.052887
    34  N   -0.323605
    35  C    0.066102
    36  C    0.030303
    37  C   -0.053081
    38  C    0.110692
    39  C   -0.043685
    40  C    0.337449
    41  O   -0.528858
    42  C    0.056586
    43  C    0.485939
    44  O   -0.523140
    45  O   -0.263724
    46  C    0.076576
    47  C    0.106899
    48  C   -0.093286
    49  C   -0.010433
    50  C   -0.044823
    51  C   -0.023586
    52  C   -0.026133
    53  C   -0.050324
    54  C   -0.003136
    55  C   -0.059393
    56  C   -0.020205
    57  C   -0.039460
    58  C   -0.053427
    59  C   -0.017124
    60  C   -0.064687
    61  C   -0.031506
    62  C   -0.039739
    63  C   -0.032238
    64  C   -0.013820
    65  C   -0.058501
    66  C   -0.060053
    67  H    0.023012
    68  H    0.036435
    69  H    0.020127
    70  H    0.044336
    71  H    0.028164
    72  H    0.023721
    73  H    0.025128
    74  H    0.020415
    75  H    0.027173
    76  H    0.029568
    77  H    0.029022
    78  H    0.050439
    79  H    0.028868
    80  H    0.028724
    81  H    0.021631
    82  H    0.035539
    83  H    0.050709
    84  H    0.036655
    85  H    0.039872
    86  H    0.039724
    87  H    0.034079
    88  H    0.019747
    89  H    0.020501
    90  H    0.012934
    91  H    0.010968
    92  H    0.022509
    93  H    0.018097
    94  H    0.027356
    95  H    0.029103
    96  H    0.023247
    97  H    0.035491
    98  H    0.047830
    99  H    0.038713
   100  H    0.055611
   101  H    0.031189
   102  H    0.052137
   103  H    0.056638
   104  H    0.022951
   105  H    0.020259
   106  H    0.027471
   107  H    0.028142
   108  H    0.015584
   109  H    0.030992
   110  H    0.035368
   111  H    0.023868
   112  H    0.021678
   113  H    0.002140
   114  H    0.022898
   115  H    0.012010
   116  H    0.008456
   117  H    0.027488
   118  H    0.008042
   119  H    0.021286
   120  H    0.012324
   121  H    0.023031
   122  H    0.030624
   123  H    0.014982
   124  H    0.027442
   125  H    0.010380
   126  H    0.018659
   127  H    0.019150
   128  H    0.030869
   129  H    0.024020
   130  H    0.006740
   131  H    0.027148
   132  H    0.022551
   133  H    0.012838
   134  H    0.023278
   135  H    0.011879
   136  H    0.014248
   137  H    0.016582
   138  H    0.026408
   139  H    0.020849
   140  H    0.010263
 Sum of Mulliken charges =  -0.00000

 Dipole moment (field-independent basis, Debye):
    X=             -7.8846    Y=              4.6505    Z=              3.5995  Tot=              9.8362
 N-N= 4.281790509993D+03 E-N= 0.000000000000D+00  KE=-9.237956676530D+03
 Leave Link  601 at Wed May  4 08:22:55 2022, MaxMem=  6710886400 cpu:               0.8 elap:               0.0
 (Enter /sw/apps/gaussian-16.0/g16/l9999.exe)
 1\1\GINC-BP1-COMPUTE102\SP\RZINDO CIS\STO-3G\C55H74Mg1N4O6\OF15641\04-
 May-2022\0\\#p ZINDO=(nstates=5)\\step_1501_chromophore_18 ZINDO\\0,1\
 Mg,0,34.49,49.41,25.474\C,0,34.658,47.638,28.58\C,0,33.172,52.078,27.1
 84\C,0,34.01,50.742,22.521\C,0,34.984,46.319,23.838\N,0,33.942,49.756,
 27.588\C,0,34.237,48.934,28.716\C,0,34.043,49.658,30.034\C,0,33.382,51
 .015,29.58\C,0,33.506,50.971,28.058\C,0,31.952,51.296,30.105\C,0,35.24
 2,49.793,31.026\C,0,35.053,49.426,32.537\C,0,33.555,49.586,33.117\O,0,

 Normal termination of Gaussian 16 at Wed May  4 08:22:55 2022.
