 Gaussian 16, Revision A.03,
 Gaussian 16:  ES64L-G16RevA.03 25-Dec-2016

 ------------------------------
 #p blyp/Def2SVP td=(nstates=5)
 ------------------------------

 ---------------------------------------------------
 step_1651_chromophore_20 TDDFT with blyp functional
 ---------------------------------------------------
 Symbolic Z-matrix:
 Charge =  0 Multiplicity = 1

                         Standard orientation:
 ---------------------------------------------------------------------
 Center     Atomic      Atomic             Coordinates (Angstroms)
 Number     Number       Type             X           Y           Z
 ---------------------------------------------------------------------
      1         12           0        4.253910    1.232997   -0.696955
      2          6           0        3.651977   -2.327561   -1.463291
      3          6           0        1.336312    1.888636   -2.479087
      4          6           0        4.278995    4.234297    0.637163
      5          6           0        6.636699    0.053490    1.745258
      6          7           0        2.567474   -0.136118   -1.635059
      7          6           0        2.593256   -1.482984   -2.000255
      8          6           0        1.489057   -1.819557   -3.086546
      9          6           0        1.112929   -0.359266   -3.547196
     10          6           0        1.698759    0.523897   -2.494210
     11          6           0        1.878525    0.028429   -4.826376
     12          6           0        0.430352   -2.738740   -2.446447
     13          6           0       -1.003300   -2.311548   -2.443024
     14          6           0       -2.044216   -3.477458   -2.362721
     15          8           0       -2.335629   -4.278597   -3.219497
     16          8           0       -2.709645   -3.498254   -1.089694
     17          7           0        3.047423    2.849736   -0.970818
     18          6           0        1.964238    2.973134   -1.740080
     19          6           0        1.436094    4.295687   -1.672176
     20          6           0        2.377728    5.061359   -1.016824
     21          6           0        3.294315    4.096468   -0.394863
     22          6           0        0.117071    4.682660   -2.304753
     23          6           0        2.362736    6.617648   -0.802315
     24          8           0        1.466473    7.355622   -1.285288
     25          6           0        3.370237    7.347111    0.116111
     26          7           0        5.401694    2.046609    0.959087
     27          6           0        5.233205    3.366868    1.225072
     28          6           0        6.012240    3.726732    2.438581
     29          6           0        6.798687    2.364537    2.816283
     30          6           0        6.241380    1.392891    1.798373
     31          6           0        6.913867    4.929960    2.262912
     32          6           0        6.467724    1.899227    4.276835
     33          6           0        7.510729    2.289612    5.315824
     34          7           0        5.199350   -0.650034   -0.090484
     35          6           0        6.096100   -0.979737    0.901986
     36          6           0        6.495270   -2.401342    0.857154
     37          6           0        5.554769   -2.962530   -0.103170
     38          6           0        4.766187   -1.890634   -0.620528
     39          6           0        7.500098   -3.089692    1.649010
     40          6           0        5.073540   -4.214975   -0.630507
     41          8           0        5.501325   -5.365156   -0.457636
     42          6           0        3.790075   -3.867289   -1.478170
     43          6           0        2.602765   -4.636234   -1.049425
     44          8           0        2.023860   -4.602953    0.056763
     45          8           0        2.088965   -5.233357   -2.177703
     46          6           0        0.980018   -6.116729   -1.891445
     47          6           0       -3.605403   -4.590761   -0.940810
     48          6           0       -4.356171   -4.583051    0.461033
     49          6           0       -4.725595   -5.637551    1.210325
     50          6           0       -4.370050   -7.109654    0.861809
     51          6           0       -5.459779   -5.374039    2.472500
     52          6           0       -6.664060   -4.403658    2.451821
     53          6           0       -6.582565   -3.535181    3.679352
     54          6           0       -5.712590   -2.319640    3.464688
     55          6           0       -5.087341   -2.005873    4.817141
     56          6           0       -6.586827   -1.169538    2.917481
     57          6           0       -5.875883   -0.288513    1.802428
     58          6           0       -6.956779    0.201754    0.825308
     59          6           0       -7.333239    1.755724    0.854752
     60          6           0       -7.785828    2.270150    2.223774
     61          6           0       -8.327361    2.002461   -0.262954
     62          6           0       -8.170819    3.451916   -0.862069
     63          6           0       -9.044007    4.623592   -0.219710
     64          6           0       -9.439158    5.689921   -1.238071
     65          6           0       -9.228576    7.179941   -0.746979
     66          6           0      -10.937152    5.347163   -1.635208
     67          1           0        0.559631    2.025517   -3.233844
     68          1           0        4.269666    5.182830    1.177786
     69          1           0        7.264072   -0.319439    2.557446
     70          1           0        2.103685   -2.422982   -3.755305
     71          1           0        0.070265   -0.039069   -3.551128
     72          1           0        2.649588   -0.650560   -5.192447
     73          1           0        2.378543    0.992685   -4.736565
     74          1           0        1.100548    0.225691   -5.563068
     75          1           0        0.655552   -2.862792   -1.386818
     76          1           0        0.332403   -3.720482   -2.908683
     77          1           0       -1.309741   -1.913084   -3.410199
     78          1           0       -1.266602   -1.728261   -1.561312
     79          1           0       -0.463113    3.820691   -2.632756
     80          1           0        0.257252    5.354288   -3.151116
     81          1           0       -0.490023    5.069667   -1.486463
     82          1           0        3.138200    7.239433    1.176175
     83          1           0        3.418455    8.420167   -0.067736
     84          1           0        4.326122    6.891111   -0.142132
     85          1           0        5.292377    3.982781    3.216041
     86          1           0        7.871465    2.423235    2.636319
     87          1           0        7.190652    5.090281    1.220743
     88          1           0        7.796278    4.894675    2.901457
     89          1           0        6.427347    5.853776    2.577210
     90          1           0        6.258256    0.835012    4.384201
     91          1           0        5.501513    2.331553    4.533702
     92          1           0        7.974330    1.405347    5.754387
     93          1           0        7.081357    2.794607    6.181774
     94          1           0        8.298186    2.912827    4.891303
     95          1           0        7.031111   -3.821742    2.307637
     96          1           0        8.026980   -2.338179    2.237361
     97          1           0        8.291016   -3.549111    1.055370
     98          1           0        4.205984   -4.110580   -2.455076
     99          1           0        0.858603   -6.326610   -0.828913
    100          1           0        1.228168   -7.062372   -2.373509
    101          1           0        0.054156   -5.655108   -2.236239
    102          1           0       -2.870458   -5.394511   -0.895256
    103          1           0       -4.300939   -4.706991   -1.772267
    104          1           0       -4.739288   -3.610385    0.770089
    105          1           0       -5.297460   -7.658886    0.698289
    106          1           0       -3.774075   -7.599210    1.632063
    107          1           0       -3.861960   -7.230844   -0.094408
    108          1           0       -4.681026   -4.892523    3.064017
    109          1           0       -5.707193   -6.323485    2.946513
    110          1           0       -7.556400   -5.020958    2.554464
    111          1           0       -6.819885   -3.814194    1.549256
    112          1           0       -6.175300   -4.149916    4.482372
    113          1           0       -7.568107   -3.278969    4.069172
    114          1           0       -4.923806   -2.534397    2.745184
    115          1           0       -5.295232   -0.944585    4.952992
    116          1           0       -4.002302   -2.102475    4.814478
    117          1           0       -5.541953   -2.585804    5.620481
    118          1           0       -6.904943   -0.417025    3.639108
    119          1           0       -7.444045   -1.671877    2.467759
    120          1           0       -5.042102   -0.817052    1.340147
    121          1           0       -5.472903    0.499830    2.437585
    122          1           0       -7.893087   -0.344658    0.933580
    123          1           0       -6.646747    0.001270   -0.200418
    124          1           0       -6.406868    2.260926    0.578844
    125          1           0       -8.789159    2.693767    2.247754
    126          1           0       -7.144798    3.106814    2.501503
    127          1           0       -7.833488    1.530817    3.023308
    128          1           0       -9.335463    1.789702    0.093214
    129          1           0       -8.115909    1.367599   -1.123300
    130          1           0       -8.337163    3.333544   -1.933644
    131          1           0       -7.182081    3.907680   -0.820925
    132          1           0       -8.401578    5.007760    0.572536
    133          1           0       -9.813893    4.093416    0.339867
    134          1           0       -8.803490    5.760435   -2.119346
    135          1           0       -9.983738    7.661264   -0.124848
    136          1           0       -9.053849    7.803717   -1.623003
    137          1           0       -8.224353    7.041458   -0.346447
    138          1           0      -11.661569    6.037056   -1.202159
    139          1           0      -11.280886    4.381780   -1.264455
    140          1           0      -10.951480    5.399157   -2.723501
 ---------------------------------------------------------------------

 SCF Done:  E(RB-LYP) =  -3007.34119501     A.U. after   21 cycles

 Excitation energies and oscillator strengths:

 Excited State   1:      Singlet-A      1.7541 eV  706.84 nm  f=0.2324  <S**2>=0.000
     243 -> 247        0.19754
     245 -> 247       -0.17268
     245 -> 248       -0.18955
     246 -> 247        0.63012
     246 <- 247       -0.13737
 This state for optimization and/or second-order correction.
 Total Energy, E(TD-HF/TD-DFT) =  -3007.27673427
 Copying the excited state density for this state as the 1-particle RhoCI density.

 Excited State   2:      Singlet-A      1.8024 eV  687.90 nm  f=0.0417  <S**2>=0.000
     243 -> 247       -0.19577
     244 -> 247        0.57174
     245 -> 247        0.28191
     246 -> 247        0.21145

 Excited State   3:      Singlet-A      1.8244 eV  679.60 nm  f=0.0471  <S**2>=0.000
     243 -> 247        0.40856
     244 -> 247        0.39915
     245 -> 247       -0.36520
     246 -> 247       -0.16309

 Excited State   4:      Singlet-A      1.9880 eV  623.68 nm  f=0.0455  <S**2>=0.000
     241 -> 247       -0.10153
     243 -> 247        0.49628
     245 -> 247        0.43066
     246 -> 248        0.20241

 Excited State   5:      Singlet-A      2.0514 eV  604.37 nm  f=0.0001  <S**2>=0.000
     242 -> 247        0.70680

 The electronic state is 1-A.
 Alpha  occ. eigenvalues --  -46.29208 -18.82613 -18.81178 -18.78020 -18.77161
 Alpha  occ. eigenvalues --  -18.75958 -18.75670 -14.03696 -14.03389 -14.01991
 Alpha  occ. eigenvalues --  -14.01448 -10.04470 -10.04389 -10.00895  -9.99586
 Alpha  occ. eigenvalues --   -9.97778  -9.97242  -9.97132  -9.96991  -9.96953
 Alpha  occ. eigenvalues --   -9.96604  -9.96595  -9.96185  -9.96070  -9.95653
 Alpha  occ. eigenvalues --   -9.95484  -9.95209  -9.94954  -9.94331  -9.94279
 Alpha  occ. eigenvalues --   -9.94181  -9.94126  -9.93956  -9.93679  -9.93588
 Alpha  occ. eigenvalues --   -9.93512  -9.93413  -9.93150  -9.93013  -9.92979
 Alpha  occ. eigenvalues --   -9.92893  -9.92648  -9.92604  -9.92505  -9.92492
 Alpha  occ. eigenvalues --   -9.92277  -9.92207  -9.92149  -9.92026  -9.91596
 Alpha  occ. eigenvalues --   -9.91589  -9.91471  -9.91242  -9.91142  -9.90966
 Alpha  occ. eigenvalues --   -9.90953  -9.90938  -9.90907  -9.90776  -9.90753
 Alpha  occ. eigenvalues --   -9.90703  -9.90700  -9.90673  -9.90530  -9.90308
 Alpha  occ. eigenvalues --   -9.90094  -2.93566  -1.73963  -1.73483  -1.73267
 Alpha  occ. eigenvalues --   -0.97987  -0.97545  -0.90452  -0.90374  -0.89943
 Alpha  occ. eigenvalues --   -0.89249  -0.87014  -0.86344  -0.85092  -0.84008
 Alpha  occ. eigenvalues --   -0.75007  -0.74065  -0.73381  -0.72362  -0.72337
 Alpha  occ. eigenvalues --   -0.72216  -0.71787  -0.71568  -0.70488  -0.70339
 Alpha  occ. eigenvalues --   -0.69989  -0.69533  -0.67851  -0.67716  -0.67355
 Alpha  occ. eigenvalues --   -0.66258  -0.65655  -0.65007  -0.64797  -0.63878
 Alpha  occ. eigenvalues --   -0.63567  -0.62382  -0.62270  -0.62025  -0.60531
 Alpha  occ. eigenvalues --   -0.60353  -0.60265  -0.60108  -0.59786  -0.58361
 Alpha  occ. eigenvalues --   -0.57998  -0.57538  -0.57115  -0.55628  -0.54688
 Alpha  occ. eigenvalues --   -0.54067  -0.53647  -0.52918  -0.52418  -0.52255
 Alpha  occ. eigenvalues --   -0.51503  -0.51229  -0.50455  -0.50295  -0.49421
 Alpha  occ. eigenvalues --   -0.49058  -0.48797  -0.48726  -0.48406  -0.46407
 Alpha  occ. eigenvalues --   -0.46108  -0.45686  -0.45472  -0.45185  -0.45069
 Alpha  occ. eigenvalues --   -0.44644  -0.44235  -0.43455  -0.42875  -0.42377
 Alpha  occ. eigenvalues --   -0.42232  -0.42048  -0.41609  -0.41317  -0.41097
 Alpha  occ. eigenvalues --   -0.40918  -0.40559  -0.40314  -0.40030  -0.39782
 Alpha  occ. eigenvalues --   -0.39653  -0.39607  -0.39434  -0.39212  -0.38924
 Alpha  occ. eigenvalues --   -0.38865  -0.38518  -0.38433  -0.38406  -0.38242
 Alpha  occ. eigenvalues --   -0.38189  -0.37922  -0.37839  -0.37611  -0.37499
 Alpha  occ. eigenvalues --   -0.37155  -0.36813  -0.36685  -0.36478  -0.36323
 Alpha  occ. eigenvalues --   -0.36110  -0.36028  -0.35971  -0.35927  -0.35747
 Alpha  occ. eigenvalues --   -0.35477  -0.35258  -0.35085  -0.34962  -0.34678
 Alpha  occ. eigenvalues --   -0.34545  -0.34383  -0.34092  -0.34035  -0.33926
 Alpha  occ. eigenvalues --   -0.33748  -0.33659  -0.33593  -0.33425  -0.33162
 Alpha  occ. eigenvalues --   -0.32874  -0.32713  -0.32619  -0.32472  -0.32250
 Alpha  occ. eigenvalues --   -0.32133  -0.31965  -0.31778  -0.31695  -0.31638
 Alpha  occ. eigenvalues --   -0.31417  -0.31340  -0.31303  -0.30938  -0.30711
 Alpha  occ. eigenvalues --   -0.30301  -0.30202  -0.30038  -0.29971  -0.29799
 Alpha  occ. eigenvalues --   -0.29710  -0.29633  -0.29439  -0.29263  -0.29123
 Alpha  occ. eigenvalues --   -0.28924  -0.28573  -0.27895  -0.27641  -0.27594
 Alpha  occ. eigenvalues --   -0.27191  -0.26995  -0.26898  -0.26810  -0.26488
 Alpha  occ. eigenvalues --   -0.26237  -0.26007  -0.25516  -0.25331  -0.25187
 Alpha  occ. eigenvalues --   -0.24937  -0.24619  -0.24338  -0.23901  -0.23593
 Alpha  occ. eigenvalues --   -0.22738  -0.22559  -0.22548  -0.22008  -0.21335
 Alpha  occ. eigenvalues --   -0.20060  -0.19567  -0.18852  -0.18597  -0.17378
 Alpha  occ. eigenvalues --   -0.16168
 Alpha virt. eigenvalues --   -0.12029  -0.07705  -0.06800  -0.04952  -0.04271
 Alpha virt. eigenvalues --   -0.04050  -0.03389  -0.01825  -0.01388  -0.00769
 Alpha virt. eigenvalues --    0.00873   0.01406   0.02295   0.03096   0.03185

 Mulliken charges:
               1
     1  Mg   0.699635
     2  C   -0.003088
     3  C   -0.058905
     4  C   -0.037095
     5  C   -0.057149
     6  N   -0.199077
     7  C   -0.143021
     8  C    0.100492
     9  C    0.024218
    10  C   -0.051371
    11  C    0.136240
    12  C    0.088304
    13  C    0.166773
    14  C    0.053451
    15  O   -0.183588
    16  O   -0.296546
    17  N   -0.296072
    18  C    0.159511
    19  C   -0.170369
    20  C    0.039852
    21  C    0.122910
    22  C    0.210991
    23  C   -0.056281
    24  O   -0.192766
    25  C    0.120313
    26  N   -0.213229
    27  C   -0.007306
    28  C    0.030631
    29  C    0.044395
    30  C    0.005372
    31  C    0.120952
    32  C    0.078020
    33  C    0.072921
    34  N   -0.260407
    35  C    0.080105
    36  C   -0.142917
    37  C    0.067096
    38  C    0.077555
    39  C    0.181577
    40  C   -0.076692
    41  O   -0.146526
    42  C    0.099933
    43  C    0.155943
    44  O   -0.199032
    45  O   -0.268931
    46  C    0.185479
    47  C    0.295371
    48  C   -0.121890
    49  C   -0.142815
    50  C    0.133460
    51  C    0.139215
    52  C    0.114452
    53  C    0.076425
    54  C   -0.078765
    55  C    0.142020
    56  C    0.045355
    57  C    0.092752
    58  C    0.084438
    59  C   -0.064153
    60  C    0.118958
    61  C    0.120976
    62  C    0.013067
    63  C    0.107945
    64  C   -0.068715
    65  C    0.084201
    66  C    0.097112
    67  H   -0.054944
    68  H   -0.076984
    69  H   -0.052105
    70  H   -0.025552
    71  H   -0.012003
    72  H    0.002159
    73  H   -0.008238
    74  H   -0.008681
    75  H    0.011204
    76  H   -0.004571
    77  H   -0.003759
    78  H   -0.005123
    79  H   -0.033015
    80  H    0.018490
    81  H    0.004583
    82  H    0.028431
    83  H   -0.004619
    84  H    0.001797
    85  H   -0.013175
    86  H   -0.017784
    87  H   -0.007236
    88  H   -0.010574
    89  H   -0.015594
    90  H   -0.016427
    91  H   -0.032907
    92  H   -0.011024
    93  H   -0.011984
    94  H   -0.008236
    95  H    0.023572
    96  H   -0.032475
    97  H    0.010353
    98  H   -0.003186
    99  H    0.024351
   100  H    0.017155
   101  H    0.024020
   102  H   -0.014040
   103  H    0.012089
   104  H   -0.024759
   105  H   -0.006269
   106  H    0.006481
   107  H   -0.022243
   108  H   -0.000277
   109  H   -0.037726
   110  H   -0.046202
   111  H   -0.022567
   112  H   -0.045193
   113  H   -0.043005
   114  H   -0.033222
   115  H   -0.037120
   116  H   -0.017714
   117  H   -0.013153
   118  H   -0.014720
   119  H   -0.026352
   120  H   -0.017857
   121  H   -0.033302
   122  H   -0.035372
   123  H   -0.041240
   124  H   -0.043495
   125  H   -0.026948
   126  H   -0.012381
   127  H   -0.022321
   128  H   -0.027727
   129  H   -0.042660
   130  H   -0.034509
   131  H   -0.030953
   132  H   -0.046499
   133  H   -0.032727
   134  H   -0.026749
   135  H    0.001038
   136  H   -0.025096
   137  H   -0.019476
   138  H   -0.017768
   139  H   -0.012660
   140  H   -0.012937
 Sum of Mulliken charges =  -0.00000

 Dipole moment (field-independent basis, Debye):
    X=              1.6732    Y=              2.1871    Z=              0.9295  Tot=              2.9064
 Quadrupole moment (field-independent basis, Debye-Ang):
   XX=           -380.8114   YY=           -441.4561   ZZ=           -391.5027
   XY=             38.4935   XZ=              4.5315   YZ=              7.4571

 Normal termination of Gaussian 16 at Wed May  4 11:42:49 2022.
