 Gaussian 16, Revision A.03,
 Gaussian 16:  ES64L-G16RevA.03 25-Dec-2016

 -----------------------------------
 #p cam-b3lyp/Def2SVP td=(nstates=5)
 -----------------------------------

 --------------------------------------------------------
 step_1651_chromophore_20 TDDFT with cam-b3lyp functional
 --------------------------------------------------------
 Symbolic Z-matrix:
 Charge =  0 Multiplicity = 1

                         Standard orientation:
 ---------------------------------------------------------------------
 Center     Atomic      Atomic             Coordinates (Angstroms)
 Number     Number       Type             X           Y           Z
 ---------------------------------------------------------------------
      1         12           0        4.253910    1.232997   -0.696955
      2          6           0        3.651977   -2.327561   -1.463291
      3          6           0        1.336312    1.888636   -2.479087
      4          6           0        4.278995    4.234297    0.637163
      5          6           0        6.636699    0.053490    1.745258
      6          7           0        2.567474   -0.136118   -1.635059
      7          6           0        2.593256   -1.482984   -2.000255
      8          6           0        1.489057   -1.819557   -3.086546
      9          6           0        1.112929   -0.359266   -3.547196
     10          6           0        1.698759    0.523897   -2.494210
     11          6           0        1.878525    0.028429   -4.826376
     12          6           0        0.430352   -2.738740   -2.446447
     13          6           0       -1.003300   -2.311548   -2.443024
     14          6           0       -2.044216   -3.477458   -2.362721
     15          8           0       -2.335629   -4.278597   -3.219497
     16          8           0       -2.709645   -3.498254   -1.089694
     17          7           0        3.047423    2.849736   -0.970818
     18          6           0        1.964238    2.973134   -1.740080
     19          6           0        1.436094    4.295687   -1.672176
     20          6           0        2.377728    5.061359   -1.016824
     21          6           0        3.294315    4.096468   -0.394863
     22          6           0        0.117071    4.682660   -2.304753
     23          6           0        2.362736    6.617648   -0.802315
     24          8           0        1.466473    7.355622   -1.285288
     25          6           0        3.370237    7.347111    0.116111
     26          7           0        5.401694    2.046609    0.959087
     27          6           0        5.233205    3.366868    1.225072
     28          6           0        6.012240    3.726732    2.438581
     29          6           0        6.798687    2.364537    2.816283
     30          6           0        6.241380    1.392891    1.798373
     31          6           0        6.913867    4.929960    2.262912
     32          6           0        6.467724    1.899227    4.276835
     33          6           0        7.510729    2.289612    5.315824
     34          7           0        5.199350   -0.650034   -0.090484
     35          6           0        6.096100   -0.979737    0.901986
     36          6           0        6.495270   -2.401342    0.857154
     37          6           0        5.554769   -2.962530   -0.103170
     38          6           0        4.766187   -1.890634   -0.620528
     39          6           0        7.500098   -3.089692    1.649010
     40          6           0        5.073540   -4.214975   -0.630507
     41          8           0        5.501325   -5.365156   -0.457636
     42          6           0        3.790075   -3.867289   -1.478170
     43          6           0        2.602765   -4.636234   -1.049425
     44          8           0        2.023860   -4.602953    0.056763
     45          8           0        2.088965   -5.233357   -2.177703
     46          6           0        0.980018   -6.116729   -1.891445
     47          6           0       -3.605403   -4.590761   -0.940810
     48          6           0       -4.356171   -4.583051    0.461033
     49          6           0       -4.725595   -5.637551    1.210325
     50          6           0       -4.370050   -7.109654    0.861809
     51          6           0       -5.459779   -5.374039    2.472500
     52          6           0       -6.664060   -4.403658    2.451821
     53          6           0       -6.582565   -3.535181    3.679352
     54          6           0       -5.712590   -2.319640    3.464688
     55          6           0       -5.087341   -2.005873    4.817141
     56          6           0       -6.586827   -1.169538    2.917481
     57          6           0       -5.875883   -0.288513    1.802428
     58          6           0       -6.956779    0.201754    0.825308
     59          6           0       -7.333239    1.755724    0.854752
     60          6           0       -7.785828    2.270150    2.223774
     61          6           0       -8.327361    2.002461   -0.262954
     62          6           0       -8.170819    3.451916   -0.862069
     63          6           0       -9.044007    4.623592   -0.219710
     64          6           0       -9.439158    5.689921   -1.238071
     65          6           0       -9.228576    7.179941   -0.746979
     66          6           0      -10.937152    5.347163   -1.635208
     67          1           0        0.559631    2.025517   -3.233844
     68          1           0        4.269666    5.182830    1.177786
     69          1           0        7.264072   -0.319439    2.557446
     70          1           0        2.103685   -2.422982   -3.755305
     71          1           0        0.070265   -0.039069   -3.551128
     72          1           0        2.649588   -0.650560   -5.192447
     73          1           0        2.378543    0.992685   -4.736565
     74          1           0        1.100548    0.225691   -5.563068
     75          1           0        0.655552   -2.862792   -1.386818
     76          1           0        0.332403   -3.720482   -2.908683
     77          1           0       -1.309741   -1.913084   -3.410199
     78          1           0       -1.266602   -1.728261   -1.561312
     79          1           0       -0.463113    3.820691   -2.632756
     80          1           0        0.257252    5.354288   -3.151116
     81          1           0       -0.490023    5.069667   -1.486463
     82          1           0        3.138200    7.239433    1.176175
     83          1           0        3.418455    8.420167   -0.067736
     84          1           0        4.326122    6.891111   -0.142132
     85          1           0        5.292377    3.982781    3.216041
     86          1           0        7.871465    2.423235    2.636319
     87          1           0        7.190652    5.090281    1.220743
     88          1           0        7.796278    4.894675    2.901457
     89          1           0        6.427347    5.853776    2.577210
     90          1           0        6.258256    0.835012    4.384201
     91          1           0        5.501513    2.331553    4.533702
     92          1           0        7.974330    1.405347    5.754387
     93          1           0        7.081357    2.794607    6.181774
     94          1           0        8.298186    2.912827    4.891303
     95          1           0        7.031111   -3.821742    2.307637
     96          1           0        8.026980   -2.338179    2.237361
     97          1           0        8.291016   -3.549111    1.055370
     98          1           0        4.205984   -4.110580   -2.455076
     99          1           0        0.858603   -6.326610   -0.828913
    100          1           0        1.228168   -7.062372   -2.373509
    101          1           0        0.054156   -5.655108   -2.236239
    102          1           0       -2.870458   -5.394511   -0.895256
    103          1           0       -4.300939   -4.706991   -1.772267
    104          1           0       -4.739288   -3.610385    0.770089
    105          1           0       -5.297460   -7.658886    0.698289
    106          1           0       -3.774075   -7.599210    1.632063
    107          1           0       -3.861960   -7.230844   -0.094408
    108          1           0       -4.681026   -4.892523    3.064017
    109          1           0       -5.707193   -6.323485    2.946513
    110          1           0       -7.556400   -5.020958    2.554464
    111          1           0       -6.819885   -3.814194    1.549256
    112          1           0       -6.175300   -4.149916    4.482372
    113          1           0       -7.568107   -3.278969    4.069172
    114          1           0       -4.923806   -2.534397    2.745184
    115          1           0       -5.295232   -0.944585    4.952992
    116          1           0       -4.002302   -2.102475    4.814478
    117          1           0       -5.541953   -2.585804    5.620481
    118          1           0       -6.904943   -0.417025    3.639108
    119          1           0       -7.444045   -1.671877    2.467759
    120          1           0       -5.042102   -0.817052    1.340147
    121          1           0       -5.472903    0.499830    2.437585
    122          1           0       -7.893087   -0.344658    0.933580
    123          1           0       -6.646747    0.001270   -0.200418
    124          1           0       -6.406868    2.260926    0.578844
    125          1           0       -8.789159    2.693767    2.247754
    126          1           0       -7.144798    3.106814    2.501503
    127          1           0       -7.833488    1.530817    3.023308
    128          1           0       -9.335463    1.789702    0.093214
    129          1           0       -8.115909    1.367599   -1.123300
    130          1           0       -8.337163    3.333544   -1.933644
    131          1           0       -7.182081    3.907680   -0.820925
    132          1           0       -8.401578    5.007760    0.572536
    133          1           0       -9.813893    4.093416    0.339867
    134          1           0       -8.803490    5.760435   -2.119346
    135          1           0       -9.983738    7.661264   -0.124848
    136          1           0       -9.053849    7.803717   -1.623003
    137          1           0       -8.224353    7.041458   -0.346447
    138          1           0      -11.661569    6.037056   -1.202159
    139          1           0      -11.280886    4.381780   -1.264455
    140          1           0      -10.951480    5.399157   -2.723501
 ---------------------------------------------------------------------

 SCF Done:  E(RCAM-B3LYP) =  -3007.12066284     A.U. after   19 cycles

 Excitation energies and oscillator strengths:

 Excited State   1:      Singlet-A      1.6480 eV  752.32 nm  f=0.3694  <S**2>=0.000
     245 -> 248       -0.18805
     246 -> 247        0.68324
     245 <- 248       -0.11016
 This state for optimization and/or second-order correction.
 Total Energy, E(TD-HF/TD-DFT) =  -3007.06009926
 Copying the excited state density for this state as the 1-particle RhoCI density.

 Excited State   2:      Singlet-A      2.1364 eV  580.34 nm  f=0.1075  <S**2>=0.000
     245 -> 247        0.64071
     246 -> 248        0.28346

 Excited State   3:      Singlet-A      3.1724 eV  390.82 nm  f=0.0023  <S**2>=0.000
     242 -> 247        0.10079
     244 -> 247        0.66027
     246 -> 248        0.16825

 Excited State   4:      Singlet-A      3.3699 eV  367.92 nm  f=0.3425  <S**2>=0.000
     240 -> 249       -0.11130
     241 -> 247        0.34919
     241 -> 251       -0.10564
     242 -> 247       -0.10391
     242 -> 249       -0.12663
     244 -> 247       -0.14522
     245 -> 247       -0.21179
     246 -> 248        0.48062

 Excited State   5:      Singlet-A      3.4225 eV  362.26 nm  f=0.0161  <S**2>=0.000
     239 -> 249        0.11395
     240 -> 247        0.26326
     240 -> 248        0.10938
     240 -> 251       -0.17001
     241 -> 249       -0.24728
     242 -> 247        0.47176
     242 -> 251       -0.13347

 The electronic state is 1-A.
 Alpha  occ. eigenvalues --  -46.90930 -19.25589 -19.23912 -19.21121 -19.20266
 Alpha  occ. eigenvalues --  -19.19339 -19.18790 -14.42591 -14.42300 -14.40624
 Alpha  occ. eigenvalues --  -14.39833 -10.40031 -10.39862 -10.36320 -10.34913
 Alpha  occ. eigenvalues --  -10.32412 -10.31827 -10.31580 -10.31180 -10.31178
 Alpha  occ. eigenvalues --  -10.30935 -10.30894 -10.30584 -10.30357 -10.30039
 Alpha  occ. eigenvalues --  -10.29619 -10.29567 -10.28973 -10.28749 -10.28490
 Alpha  occ. eigenvalues --  -10.28218 -10.28207 -10.28164 -10.28138 -10.28001
 Alpha  occ. eigenvalues --  -10.27973 -10.27593 -10.27250 -10.26892 -10.26717
 Alpha  occ. eigenvalues --  -10.26711 -10.26695 -10.26589 -10.26400 -10.26111
 Alpha  occ. eigenvalues --  -10.26089 -10.26043 -10.25795 -10.25644 -10.25629
 Alpha  occ. eigenvalues --  -10.25195 -10.25189 -10.25184 -10.24742 -10.24663
 Alpha  occ. eigenvalues --  -10.24625 -10.24594 -10.24561 -10.24440 -10.24408
 Alpha  occ. eigenvalues --  -10.24403 -10.24355 -10.24283 -10.24127 -10.23880
 Alpha  occ. eigenvalues --  -10.23612  -3.19175  -1.94052  -1.93644  -1.93462
 Alpha  occ. eigenvalues --   -1.16513  -1.16036  -1.08687  -1.08409  -1.08270
 Alpha  occ. eigenvalues --   -1.07206  -1.04848  -1.04055  -1.02754  -1.01405
 Alpha  occ. eigenvalues --   -0.92102  -0.90937  -0.90186  -0.89130  -0.89103
 Alpha  occ. eigenvalues --   -0.88851  -0.88422  -0.88235  -0.87258  -0.86906
 Alpha  occ. eigenvalues --   -0.86415  -0.86025  -0.84036  -0.83946  -0.83570
 Alpha  occ. eigenvalues --   -0.82299  -0.81669  -0.81125  -0.80683  -0.79634
 Alpha  occ. eigenvalues --   -0.79298  -0.78035  -0.77808  -0.77640  -0.75948
 Alpha  occ. eigenvalues --   -0.75680  -0.75586  -0.75480  -0.75135  -0.73533
 Alpha  occ. eigenvalues --   -0.73056  -0.72496  -0.72040  -0.70445  -0.69250
 Alpha  occ. eigenvalues --   -0.68710  -0.68209  -0.67506  -0.66823  -0.66364
 Alpha  occ. eigenvalues --   -0.65656  -0.65287  -0.64629  -0.64313  -0.63397
 Alpha  occ. eigenvalues --   -0.63022  -0.62696  -0.62515  -0.62131  -0.60099
 Alpha  occ. eigenvalues --   -0.59721  -0.59305  -0.58966  -0.58634  -0.58429
 Alpha  occ. eigenvalues --   -0.57947  -0.57555  -0.56759  -0.56052  -0.55599
 Alpha  occ. eigenvalues --   -0.55354  -0.55107  -0.54518  -0.54427  -0.54142
 Alpha  occ. eigenvalues --   -0.53661  -0.53279  -0.53049  -0.52680  -0.52569
 Alpha  occ. eigenvalues --   -0.52449  -0.52325  -0.52052  -0.51716  -0.51625
 Alpha  occ. eigenvalues --   -0.51400  -0.51124  -0.50919  -0.50842  -0.50743
 Alpha  occ. eigenvalues --   -0.50498  -0.50279  -0.50123  -0.49873  -0.49781
 Alpha  occ. eigenvalues --   -0.49337  -0.49246  -0.49186  -0.48877  -0.48763
 Alpha  occ. eigenvalues --   -0.48464  -0.48134  -0.48084  -0.47949  -0.47798
 Alpha  occ. eigenvalues --   -0.47582  -0.47417  -0.47264  -0.46841  -0.46642
 Alpha  occ. eigenvalues --   -0.46364  -0.46329  -0.46089  -0.45928  -0.45851
 Alpha  occ. eigenvalues --   -0.45674  -0.45396  -0.45305  -0.45060  -0.44977
 Alpha  occ. eigenvalues --   -0.44695  -0.44429  -0.44259  -0.44094  -0.43837
 Alpha  occ. eigenvalues --   -0.43715  -0.43636  -0.43428  -0.43160  -0.43089
 Alpha  occ. eigenvalues --   -0.42964  -0.42874  -0.42725  -0.42469  -0.42404
 Alpha  occ. eigenvalues --   -0.42065  -0.41758  -0.41325  -0.41243  -0.41101
 Alpha  occ. eigenvalues --   -0.40990  -0.40936  -0.40562  -0.40437  -0.40172
 Alpha  occ. eigenvalues --   -0.40133  -0.39667  -0.38988  -0.38590  -0.38526
 Alpha  occ. eigenvalues --   -0.38182  -0.38051  -0.37797  -0.37516  -0.37264
 Alpha  occ. eigenvalues --   -0.36894  -0.36736  -0.36682  -0.36533  -0.35965
 Alpha  occ. eigenvalues --   -0.35715  -0.35485  -0.35200  -0.34940  -0.34688
 Alpha  occ. eigenvalues --   -0.34437  -0.33149  -0.32798  -0.31731  -0.31165
 Alpha  occ. eigenvalues --   -0.30775  -0.30586  -0.29197  -0.29142  -0.24154
 Alpha  occ. eigenvalues --   -0.21449
 Alpha virt. eigenvalues --   -0.09261  -0.02573  -0.00375   0.00673   0.02045
 Alpha virt. eigenvalues --    0.03606   0.04503   0.05367   0.06109   0.06124
 Alpha virt. eigenvalues --    0.07815   0.08117   0.08690   0.09147   0.09381

 Mulliken charges:
               1
     1  Mg   0.826981
     2  C   -0.026598
     3  C   -0.073418
     4  C   -0.060990
     5  C   -0.060061
     6  N   -0.259862
     7  C   -0.097287
     8  C    0.056465
     9  C   -0.045850
    10  C   -0.027683
    11  C    0.077380
    12  C    0.027360
    13  C    0.099870
    14  C    0.136046
    15  O   -0.221971
    16  O   -0.361019
    17  N   -0.385827
    18  C    0.170803
    19  C   -0.177111
    20  C   -0.025592
    21  C    0.147169
    22  C    0.155247
    23  C    0.020008
    24  O   -0.229492
    25  C    0.042480
    26  N   -0.286764
    27  C    0.023861
    28  C   -0.032528
    29  C   -0.015005
    30  C    0.027416
    31  C    0.063304
    32  C    0.021572
    33  C    0.011919
    34  N   -0.342644
    35  C    0.085185
    36  C   -0.139180
    37  C   -0.011240
    38  C    0.111036
    39  C    0.128235
    40  C    0.027049
    41  O   -0.187186
    42  C    0.015006
    43  C    0.235787
    44  O   -0.236325
    45  O   -0.330852
    46  C    0.152138
    47  C    0.264914
    48  C   -0.137069
    49  C   -0.165398
    50  C    0.075334
    51  C    0.080125
    52  C    0.051940
    53  C    0.016605
    54  C   -0.135674
    55  C    0.083787
    56  C    0.001840
    57  C    0.038007
    58  C    0.032213
    59  C   -0.114729
    60  C    0.055722
    61  C    0.059747
    62  C   -0.032176
    63  C    0.050178
    64  C   -0.130397
    65  C    0.030649
    66  C    0.040428
    67  H   -0.021053
    68  H   -0.041155
    69  H   -0.019473
    70  H    0.012421
    71  H    0.022845
    72  H    0.028083
    73  H    0.018947
    74  H    0.016596
    75  H    0.043652
    76  H    0.027289
    77  H    0.027068
    78  H    0.030620
    79  H   -0.004657
    80  H    0.045721
    81  H    0.032323
    82  H    0.054404
    83  H    0.030803
    84  H    0.027148
    85  H    0.021282
    86  H    0.016555
    87  H    0.018277
    88  H    0.014318
    89  H    0.007909
    90  H    0.014000
    91  H   -0.003176
    92  H    0.012908
    93  H    0.012631
    94  H    0.012491
    95  H    0.049122
    96  H   -0.007860
    97  H    0.037219
    98  H    0.041604
    99  H    0.051540
   100  H    0.040519
   101  H    0.036578
   102  H    0.009833
   103  H    0.039403
   104  H    0.001699
   105  H    0.017997
   106  H    0.030057
   107  H    0.002909
   108  H    0.028043
   109  H   -0.005944
   110  H   -0.013253
   111  H    0.005479
   112  H   -0.013848
   113  H   -0.010995
   114  H   -0.003273
   115  H   -0.012865
   116  H    0.007879
   117  H    0.011192
   118  H    0.008975
   119  H   -0.000737
   120  H    0.009440
   121  H   -0.004983
   122  H   -0.007839
   123  H   -0.011124
   124  H   -0.010998
   125  H   -0.002592
   126  H    0.011523
   127  H    0.001287
   128  H   -0.000110
   129  H   -0.010664
   130  H   -0.006572
   131  H   -0.003849
   132  H   -0.017803
   133  H   -0.005913
   134  H    0.004427
   135  H    0.023276
   136  H   -0.000499
   137  H    0.003280
   138  H    0.005499
   139  H    0.010149
   140  H    0.010136
 Sum of Mulliken charges =  -0.00000

 Dipole moment (field-independent basis, Debye):
    X=              1.7300    Y=              2.8180    Z=              0.8369  Tot=              3.4109
 Quadrupole moment (field-independent basis, Debye-Ang):
   XX=           -380.5330   YY=           -437.9308   ZZ=           -390.2314
   XY=             41.5011   XZ=              5.2566   YZ=              7.9432

 Normal termination of Gaussian 16 at Wed May  4 10:43:22 2022.
