 Gaussian 16, Revision A.03,
 Gaussian 16:  ES64L-G16RevA.03 25-Dec-2016

 ---------------------------------
 #p PBE1PBE/Def2SVP td=(nstates=5)
 ---------------------------------

 ------------------------------------------------------
 step_1651_chromophore_20 TDDFT with PBE1PBE functional
 ------------------------------------------------------
 Symbolic Z-matrix:
 Charge =  0 Multiplicity = 1

                         Standard orientation:
 ---------------------------------------------------------------------
 Center     Atomic      Atomic             Coordinates (Angstroms)
 Number     Number       Type             X           Y           Z
 ---------------------------------------------------------------------
      1         12           0        4.253910    1.232997   -0.696955
      2          6           0        3.651977   -2.327561   -1.463291
      3          6           0        1.336312    1.888636   -2.479087
      4          6           0        4.278995    4.234297    0.637163
      5          6           0        6.636699    0.053490    1.745258
      6          7           0        2.567474   -0.136118   -1.635059
      7          6           0        2.593256   -1.482984   -2.000255
      8          6           0        1.489057   -1.819557   -3.086546
      9          6           0        1.112929   -0.359266   -3.547196
     10          6           0        1.698759    0.523897   -2.494210
     11          6           0        1.878525    0.028429   -4.826376
     12          6           0        0.430352   -2.738740   -2.446447
     13          6           0       -1.003300   -2.311548   -2.443024
     14          6           0       -2.044216   -3.477458   -2.362721
     15          8           0       -2.335629   -4.278597   -3.219497
     16          8           0       -2.709645   -3.498254   -1.089694
     17          7           0        3.047423    2.849736   -0.970818
     18          6           0        1.964238    2.973134   -1.740080
     19          6           0        1.436094    4.295687   -1.672176
     20          6           0        2.377728    5.061359   -1.016824
     21          6           0        3.294315    4.096468   -0.394863
     22          6           0        0.117071    4.682660   -2.304753
     23          6           0        2.362736    6.617648   -0.802315
     24          8           0        1.466473    7.355622   -1.285288
     25          6           0        3.370237    7.347111    0.116111
     26          7           0        5.401694    2.046609    0.959087
     27          6           0        5.233205    3.366868    1.225072
     28          6           0        6.012240    3.726732    2.438581
     29          6           0        6.798687    2.364537    2.816283
     30          6           0        6.241380    1.392891    1.798373
     31          6           0        6.913867    4.929960    2.262912
     32          6           0        6.467724    1.899227    4.276835
     33          6           0        7.510729    2.289612    5.315824
     34          7           0        5.199350   -0.650034   -0.090484
     35          6           0        6.096100   -0.979737    0.901986
     36          6           0        6.495270   -2.401342    0.857154
     37          6           0        5.554769   -2.962530   -0.103170
     38          6           0        4.766187   -1.890634   -0.620528
     39          6           0        7.500098   -3.089692    1.649010
     40          6           0        5.073540   -4.214975   -0.630507
     41          8           0        5.501325   -5.365156   -0.457636
     42          6           0        3.790075   -3.867289   -1.478170
     43          6           0        2.602765   -4.636234   -1.049425
     44          8           0        2.023860   -4.602953    0.056763
     45          8           0        2.088965   -5.233357   -2.177703
     46          6           0        0.980018   -6.116729   -1.891445
     47          6           0       -3.605403   -4.590761   -0.940810
     48          6           0       -4.356171   -4.583051    0.461033
     49          6           0       -4.725595   -5.637551    1.210325
     50          6           0       -4.370050   -7.109654    0.861809
     51          6           0       -5.459779   -5.374039    2.472500
     52          6           0       -6.664060   -4.403658    2.451821
     53          6           0       -6.582565   -3.535181    3.679352
     54          6           0       -5.712590   -2.319640    3.464688
     55          6           0       -5.087341   -2.005873    4.817141
     56          6           0       -6.586827   -1.169538    2.917481
     57          6           0       -5.875883   -0.288513    1.802428
     58          6           0       -6.956779    0.201754    0.825308
     59          6           0       -7.333239    1.755724    0.854752
     60          6           0       -7.785828    2.270150    2.223774
     61          6           0       -8.327361    2.002461   -0.262954
     62          6           0       -8.170819    3.451916   -0.862069
     63          6           0       -9.044007    4.623592   -0.219710
     64          6           0       -9.439158    5.689921   -1.238071
     65          6           0       -9.228576    7.179941   -0.746979
     66          6           0      -10.937152    5.347163   -1.635208
     67          1           0        0.559631    2.025517   -3.233844
     68          1           0        4.269666    5.182830    1.177786
     69          1           0        7.264072   -0.319439    2.557446
     70          1           0        2.103685   -2.422982   -3.755305
     71          1           0        0.070265   -0.039069   -3.551128
     72          1           0        2.649588   -0.650560   -5.192447
     73          1           0        2.378543    0.992685   -4.736565
     74          1           0        1.100548    0.225691   -5.563068
     75          1           0        0.655552   -2.862792   -1.386818
     76          1           0        0.332403   -3.720482   -2.908683
     77          1           0       -1.309741   -1.913084   -3.410199
     78          1           0       -1.266602   -1.728261   -1.561312
     79          1           0       -0.463113    3.820691   -2.632756
     80          1           0        0.257252    5.354288   -3.151116
     81          1           0       -0.490023    5.069667   -1.486463
     82          1           0        3.138200    7.239433    1.176175
     83          1           0        3.418455    8.420167   -0.067736
     84          1           0        4.326122    6.891111   -0.142132
     85          1           0        5.292377    3.982781    3.216041
     86          1           0        7.871465    2.423235    2.636319
     87          1           0        7.190652    5.090281    1.220743
     88          1           0        7.796278    4.894675    2.901457
     89          1           0        6.427347    5.853776    2.577210
     90          1           0        6.258256    0.835012    4.384201
     91          1           0        5.501513    2.331553    4.533702
     92          1           0        7.974330    1.405347    5.754387
     93          1           0        7.081357    2.794607    6.181774
     94          1           0        8.298186    2.912827    4.891303
     95          1           0        7.031111   -3.821742    2.307637
     96          1           0        8.026980   -2.338179    2.237361
     97          1           0        8.291016   -3.549111    1.055370
     98          1           0        4.205984   -4.110580   -2.455076
     99          1           0        0.858603   -6.326610   -0.828913
    100          1           0        1.228168   -7.062372   -2.373509
    101          1           0        0.054156   -5.655108   -2.236239
    102          1           0       -2.870458   -5.394511   -0.895256
    103          1           0       -4.300939   -4.706991   -1.772267
    104          1           0       -4.739288   -3.610385    0.770089
    105          1           0       -5.297460   -7.658886    0.698289
    106          1           0       -3.774075   -7.599210    1.632063
    107          1           0       -3.861960   -7.230844   -0.094408
    108          1           0       -4.681026   -4.892523    3.064017
    109          1           0       -5.707193   -6.323485    2.946513
    110          1           0       -7.556400   -5.020958    2.554464
    111          1           0       -6.819885   -3.814194    1.549256
    112          1           0       -6.175300   -4.149916    4.482372
    113          1           0       -7.568107   -3.278969    4.069172
    114          1           0       -4.923806   -2.534397    2.745184
    115          1           0       -5.295232   -0.944585    4.952992
    116          1           0       -4.002302   -2.102475    4.814478
    117          1           0       -5.541953   -2.585804    5.620481
    118          1           0       -6.904943   -0.417025    3.639108
    119          1           0       -7.444045   -1.671877    2.467759
    120          1           0       -5.042102   -0.817052    1.340147
    121          1           0       -5.472903    0.499830    2.437585
    122          1           0       -7.893087   -0.344658    0.933580
    123          1           0       -6.646747    0.001270   -0.200418
    124          1           0       -6.406868    2.260926    0.578844
    125          1           0       -8.789159    2.693767    2.247754
    126          1           0       -7.144798    3.106814    2.501503
    127          1           0       -7.833488    1.530817    3.023308
    128          1           0       -9.335463    1.789702    0.093214
    129          1           0       -8.115909    1.367599   -1.123300
    130          1           0       -8.337163    3.333544   -1.933644
    131          1           0       -7.182081    3.907680   -0.820925
    132          1           0       -8.401578    5.007760    0.572536
    133          1           0       -9.813893    4.093416    0.339867
    134          1           0       -8.803490    5.760435   -2.119346
    135          1           0       -9.983738    7.661264   -0.124848
    136          1           0       -9.053849    7.803717   -1.623003
    137          1           0       -8.224353    7.041458   -0.346447
    138          1           0      -11.661569    6.037056   -1.202159
    139          1           0      -11.280886    4.381780   -1.264455
    140          1           0      -10.951480    5.399157   -2.723501
 ---------------------------------------------------------------------

 SCF Done:  E(RPBE1PBE) =  -3005.31208651     A.U. after   16 cycles

 Excitation energies and oscillator strengths:

 Excited State   1:      Singlet-A      1.8117 eV  684.36 nm  f=0.3553  <S**2>=0.000
     245 -> 248       -0.18278
     246 -> 247        0.68999
     246 <- 247       -0.10854
 This state for optimization and/or second-order correction.
 Total Energy, E(TD-HF/TD-DFT) =  -3005.24550860
 Copying the excited state density for this state as the 1-particle RhoCI density.

 Excited State   2:      Singlet-A      2.1370 eV  580.18 nm  f=0.1039  <S**2>=0.000
     245 -> 247        0.65200
     246 -> 248        0.25236

 Excited State   3:      Singlet-A      2.8487 eV  435.23 nm  f=0.0021  <S**2>=0.000
     241 -> 247        0.21476
     242 -> 247        0.10340
     243 -> 247        0.64047
     246 -> 248        0.12790

 Excited State   4:      Singlet-A      2.9310 eV  423.00 nm  f=0.0069  <S**2>=0.000
     241 -> 247        0.61540
     241 -> 249       -0.14406
     242 -> 247        0.10095
     243 -> 247       -0.24947

 Excited State   5:      Singlet-A      2.9516 eV  420.05 nm  f=0.0005  <S**2>=0.000
     241 -> 247       -0.12280
     242 -> 247        0.64468
     242 -> 248        0.11559
     242 -> 249        0.15216

 The electronic state is 1-A.
 Alpha  occ. eigenvalues --  -46.94304 -19.26261 -19.24665 -19.21389 -19.20542
 Alpha  occ. eigenvalues --  -19.19492 -19.19118 -14.42122 -14.41770 -14.40180
 Alpha  occ. eigenvalues --  -14.39576 -10.37058 -10.36959 -10.33457 -10.32132
 Alpha  occ. eigenvalues --  -10.30254 -10.29417 -10.29205 -10.28852 -10.28683
 Alpha  occ. eigenvalues --  -10.28617 -10.28206 -10.28186 -10.28125 -10.27865
 Alpha  occ. eigenvalues --  -10.27479 -10.27452 -10.26773 -10.26539 -10.26149
 Alpha  occ. eigenvalues --  -10.26093 -10.25925 -10.25796 -10.25705 -10.25574
 Alpha  occ. eigenvalues --  -10.25495 -10.25278 -10.24911 -10.24509 -10.24352
 Alpha  occ. eigenvalues --  -10.24251 -10.24215 -10.23962 -10.23846 -10.23716
 Alpha  occ. eigenvalues --  -10.23574 -10.23498 -10.23458 -10.23187 -10.23062
 Alpha  occ. eigenvalues --  -10.22860 -10.22792 -10.22759 -10.22311 -10.22301
 Alpha  occ. eigenvalues --  -10.22226 -10.22181 -10.22110 -10.22017 -10.21963
 Alpha  occ. eigenvalues --  -10.21962 -10.21798 -10.21649 -10.21507 -10.21469
 Alpha  occ. eigenvalues --  -10.21008  -3.16137  -1.88951  -1.88523  -1.88345
 Alpha  occ. eigenvalues --   -1.11296  -1.10855  -1.03491  -1.03189  -1.03059
 Alpha  occ. eigenvalues --   -1.02025  -0.99420  -0.98648  -0.97323  -0.96133
 Alpha  occ. eigenvalues --   -0.86479  -0.85060  -0.84422  -0.83401  -0.83209
 Alpha  occ. eigenvalues --   -0.83120  -0.82714  -0.82386  -0.81511  -0.80995
 Alpha  occ. eigenvalues --   -0.80789  -0.80282  -0.78321  -0.78189  -0.77765
 Alpha  occ. eigenvalues --   -0.76568  -0.75820  -0.75302  -0.74973  -0.73887
 Alpha  occ. eigenvalues --   -0.73489  -0.72362  -0.72112  -0.71897  -0.70282
 Alpha  occ. eigenvalues --   -0.69955  -0.69822  -0.69561  -0.69203  -0.67731
 Alpha  occ. eigenvalues --   -0.67381  -0.66943  -0.66436  -0.64770  -0.63600
 Alpha  occ. eigenvalues --   -0.63105  -0.62532  -0.61920  -0.61044  -0.60758
 Alpha  occ. eigenvalues --   -0.60186  -0.59848  -0.58854  -0.58843  -0.57507
 Alpha  occ. eigenvalues --   -0.57175  -0.57097  -0.56868  -0.56661  -0.54601
 Alpha  occ. eigenvalues --   -0.54268  -0.53786  -0.53492  -0.53097  -0.52977
 Alpha  occ. eigenvalues --   -0.52384  -0.52201  -0.51319  -0.50570  -0.50057
 Alpha  occ. eigenvalues --   -0.49859  -0.49646  -0.49086  -0.48979  -0.48727
 Alpha  occ. eigenvalues --   -0.48105  -0.47817  -0.47601  -0.47212  -0.47096
 Alpha  occ. eigenvalues --   -0.47008  -0.46773  -0.46597  -0.46250  -0.46136
 Alpha  occ. eigenvalues --   -0.45998  -0.45701  -0.45461  -0.45394  -0.45248
 Alpha  occ. eigenvalues --   -0.45026  -0.44902  -0.44762  -0.44429  -0.44375
 Alpha  occ. eigenvalues --   -0.43890  -0.43841  -0.43788  -0.43512  -0.43365
 Alpha  occ. eigenvalues --   -0.43044  -0.42793  -0.42744  -0.42538  -0.42399
 Alpha  occ. eigenvalues --   -0.42199  -0.42138  -0.41919  -0.41575  -0.41360
 Alpha  occ. eigenvalues --   -0.41078  -0.40889  -0.40800  -0.40669  -0.40560
 Alpha  occ. eigenvalues --   -0.40350  -0.40167  -0.39971  -0.39798  -0.39669
 Alpha  occ. eigenvalues --   -0.39446  -0.39160  -0.39052  -0.38759  -0.38675
 Alpha  occ. eigenvalues --   -0.38448  -0.38363  -0.38271  -0.37934  -0.37804
 Alpha  occ. eigenvalues --   -0.37748  -0.37618  -0.37572  -0.37255  -0.37201
 Alpha  occ. eigenvalues --   -0.36808  -0.36505  -0.36223  -0.35988  -0.35965
 Alpha  occ. eigenvalues --   -0.35880  -0.35751  -0.35360  -0.35286  -0.35033
 Alpha  occ. eigenvalues --   -0.34924  -0.34456  -0.33941  -0.33516  -0.33358
 Alpha  occ. eigenvalues --   -0.33165  -0.32821  -0.32648  -0.32315  -0.32059
 Alpha  occ. eigenvalues --   -0.31923  -0.31761  -0.31559  -0.31506  -0.30837
 Alpha  occ. eigenvalues --   -0.30662  -0.30370  -0.30071  -0.29876  -0.29674
 Alpha  occ. eigenvalues --   -0.29421  -0.28747  -0.27813  -0.27201  -0.26493
 Alpha  occ. eigenvalues --   -0.25733  -0.25600  -0.24908  -0.24460  -0.21104
 Alpha  occ. eigenvalues --   -0.19106
 Alpha virt. eigenvalues --   -0.11684  -0.06057  -0.04579  -0.02468  -0.01985
 Alpha virt. eigenvalues --   -0.01065  -0.00187   0.00999   0.01662   0.02159
 Alpha virt. eigenvalues --    0.03957   0.04122   0.05063   0.05921   0.06168

 Mulliken charges:
               1
     1  Mg   0.963555
     2  C   -0.033037
     3  C   -0.058569
     4  C   -0.064653
     5  C   -0.049555
     6  N   -0.346639
     7  C   -0.028299
     8  C   -0.003854
     9  C   -0.139691
    10  C    0.004348
    11  C    0.028187
    12  C   -0.024431
    13  C    0.021660
    14  C    0.200782
    15  O   -0.253134
    16  O   -0.390770
    17  N   -0.503131
    18  C    0.199586
    19  C   -0.210254
    20  C   -0.067301
    21  C    0.170614
    22  C    0.096998
    23  C    0.072781
    24  O   -0.262280
    25  C   -0.034372
    26  N   -0.396307
    27  C    0.070871
    28  C   -0.115529
    29  C   -0.098209
    30  C    0.071760
    31  C    0.006598
    32  C   -0.034425
    33  C   -0.058501
    34  N   -0.452151
    35  C    0.106855
    36  C   -0.156257
    37  C   -0.059523
    38  C    0.152983
    39  C    0.073310
    40  C    0.122894
    41  O   -0.232756
    42  C   -0.090514
    43  C    0.310819
    44  O   -0.269903
    45  O   -0.359010
    46  C    0.094929
    47  C    0.224456
    48  C   -0.150183
    49  C   -0.205988
    50  C    0.012691
    51  C    0.014653
    52  C   -0.012367
    53  C   -0.048336
    54  C   -0.222688
    55  C    0.026706
    56  C   -0.050549
    57  C   -0.024211
    58  C   -0.024248
    59  C   -0.199554
    60  C   -0.002082
    61  C   -0.001875
    62  C   -0.086272
    63  C   -0.009921
    64  C   -0.219651
    65  C   -0.031225
    66  C   -0.017508
    67  H    0.008799
    68  H   -0.005033
    69  H    0.010842
    70  H    0.049681
    71  H    0.056134
    72  H    0.054405
    73  H    0.048290
    74  H    0.044648
    75  H    0.078125
    76  H    0.061550
    77  H    0.059447
    78  H    0.063120
    79  H    0.021807
    80  H    0.071910
    81  H    0.060056
    82  H    0.079350
    83  H    0.058308
    84  H    0.054264
    85  H    0.057503
    86  H    0.052380
    87  H    0.046256
    88  H    0.042484
    89  H    0.035235
    90  H    0.045628
    91  H    0.029758
    92  H    0.040570
    93  H    0.040481
    94  H    0.039596
    95  H    0.076204
    96  H    0.021151
    97  H    0.065024
    98  H    0.079994
    99  H    0.072507
   100  H    0.062995
   101  H    0.061787
   102  H    0.038876
   103  H    0.065834
   104  H    0.034928
   105  H    0.046625
   106  H    0.056962
   107  H    0.029367
   108  H    0.062852
   109  H    0.026245
   110  H    0.021902
   111  H    0.037059
   112  H    0.020458
   113  H    0.022373
   114  H    0.036031
   115  H    0.015968
   116  H    0.035639
   117  H    0.037662
   118  H    0.041142
   119  H    0.032322
   120  H    0.040702
   121  H    0.029196
   122  H    0.024678
   123  H    0.022377
   124  H    0.028022
   125  H    0.024896
   126  H    0.038120
   127  H    0.030683
   128  H    0.031624
   129  H    0.022225
   130  H    0.025512
   131  H    0.028325
   132  H    0.015363
   133  H    0.026083
   134  H    0.039979
   135  H    0.049269
   136  H    0.028147
   137  H    0.032197
   138  H    0.032512
   139  H    0.036864
   140  H    0.037402
 Sum of Mulliken charges =  -0.00000

 Dipole moment (field-independent basis, Debye):
    X=              1.8384    Y=              2.6318    Z=              0.9753  Tot=              3.3552
 Quadrupole moment (field-independent basis, Debye-Ang):
   XX=           -375.9375   YY=           -435.2937   ZZ=           -386.4197
   XY=             41.2422   XZ=              6.5301   YZ=              8.2432

 Normal termination of Gaussian 16 at Wed May  4 11:00:28 2022.
