 Gaussian 16, Revision A.03,
 Gaussian 16:  ES64L-G16RevA.03 25-Dec-2016

 --------------------------------
 #p wB97XD/Def2SVP td=(nstates=5)
 --------------------------------

 -----------------------------------------------------
 step_1651_chromophore_20 TDDFT with wB97XD functional
 -----------------------------------------------------
 Symbolic Z-matrix:
 Charge =  0 Multiplicity = 1

                         Standard orientation:
 ---------------------------------------------------------------------
 Center     Atomic      Atomic             Coordinates (Angstroms)
 Number     Number       Type             X           Y           Z
 ---------------------------------------------------------------------
      1         12           0        4.253910    1.232997   -0.696955
      2          6           0        3.651977   -2.327561   -1.463291
      3          6           0        1.336312    1.888636   -2.479087
      4          6           0        4.278995    4.234297    0.637163
      5          6           0        6.636699    0.053490    1.745258
      6          7           0        2.567474   -0.136118   -1.635059
      7          6           0        2.593256   -1.482984   -2.000255
      8          6           0        1.489057   -1.819557   -3.086546
      9          6           0        1.112929   -0.359266   -3.547196
     10          6           0        1.698759    0.523897   -2.494210
     11          6           0        1.878525    0.028429   -4.826376
     12          6           0        0.430352   -2.738740   -2.446447
     13          6           0       -1.003300   -2.311548   -2.443024
     14          6           0       -2.044216   -3.477458   -2.362721
     15          8           0       -2.335629   -4.278597   -3.219497
     16          8           0       -2.709645   -3.498254   -1.089694
     17          7           0        3.047423    2.849736   -0.970818
     18          6           0        1.964238    2.973134   -1.740080
     19          6           0        1.436094    4.295687   -1.672176
     20          6           0        2.377728    5.061359   -1.016824
     21          6           0        3.294315    4.096468   -0.394863
     22          6           0        0.117071    4.682660   -2.304753
     23          6           0        2.362736    6.617648   -0.802315
     24          8           0        1.466473    7.355622   -1.285288
     25          6           0        3.370237    7.347111    0.116111
     26          7           0        5.401694    2.046609    0.959087
     27          6           0        5.233205    3.366868    1.225072
     28          6           0        6.012240    3.726732    2.438581
     29          6           0        6.798687    2.364537    2.816283
     30          6           0        6.241380    1.392891    1.798373
     31          6           0        6.913867    4.929960    2.262912
     32          6           0        6.467724    1.899227    4.276835
     33          6           0        7.510729    2.289612    5.315824
     34          7           0        5.199350   -0.650034   -0.090484
     35          6           0        6.096100   -0.979737    0.901986
     36          6           0        6.495270   -2.401342    0.857154
     37          6           0        5.554769   -2.962530   -0.103170
     38          6           0        4.766187   -1.890634   -0.620528
     39          6           0        7.500098   -3.089692    1.649010
     40          6           0        5.073540   -4.214975   -0.630507
     41          8           0        5.501325   -5.365156   -0.457636
     42          6           0        3.790075   -3.867289   -1.478170
     43          6           0        2.602765   -4.636234   -1.049425
     44          8           0        2.023860   -4.602953    0.056763
     45          8           0        2.088965   -5.233357   -2.177703
     46          6           0        0.980018   -6.116729   -1.891445
     47          6           0       -3.605403   -4.590761   -0.940810
     48          6           0       -4.356171   -4.583051    0.461033
     49          6           0       -4.725595   -5.637551    1.210325
     50          6           0       -4.370050   -7.109654    0.861809
     51          6           0       -5.459779   -5.374039    2.472500
     52          6           0       -6.664060   -4.403658    2.451821
     53          6           0       -6.582565   -3.535181    3.679352
     54          6           0       -5.712590   -2.319640    3.464688
     55          6           0       -5.087341   -2.005873    4.817141
     56          6           0       -6.586827   -1.169538    2.917481
     57          6           0       -5.875883   -0.288513    1.802428
     58          6           0       -6.956779    0.201754    0.825308
     59          6           0       -7.333239    1.755724    0.854752
     60          6           0       -7.785828    2.270150    2.223774
     61          6           0       -8.327361    2.002461   -0.262954
     62          6           0       -8.170819    3.451916   -0.862069
     63          6           0       -9.044007    4.623592   -0.219710
     64          6           0       -9.439158    5.689921   -1.238071
     65          6           0       -9.228576    7.179941   -0.746979
     66          6           0      -10.937152    5.347163   -1.635208
     67          1           0        0.559631    2.025517   -3.233844
     68          1           0        4.269666    5.182830    1.177786
     69          1           0        7.264072   -0.319439    2.557446
     70          1           0        2.103685   -2.422982   -3.755305
     71          1           0        0.070265   -0.039069   -3.551128
     72          1           0        2.649588   -0.650560   -5.192447
     73          1           0        2.378543    0.992685   -4.736565
     74          1           0        1.100548    0.225691   -5.563068
     75          1           0        0.655552   -2.862792   -1.386818
     76          1           0        0.332403   -3.720482   -2.908683
     77          1           0       -1.309741   -1.913084   -3.410199
     78          1           0       -1.266602   -1.728261   -1.561312
     79          1           0       -0.463113    3.820691   -2.632756
     80          1           0        0.257252    5.354288   -3.151116
     81          1           0       -0.490023    5.069667   -1.486463
     82          1           0        3.138200    7.239433    1.176175
     83          1           0        3.418455    8.420167   -0.067736
     84          1           0        4.326122    6.891111   -0.142132
     85          1           0        5.292377    3.982781    3.216041
     86          1           0        7.871465    2.423235    2.636319
     87          1           0        7.190652    5.090281    1.220743
     88          1           0        7.796278    4.894675    2.901457
     89          1           0        6.427347    5.853776    2.577210
     90          1           0        6.258256    0.835012    4.384201
     91          1           0        5.501513    2.331553    4.533702
     92          1           0        7.974330    1.405347    5.754387
     93          1           0        7.081357    2.794607    6.181774
     94          1           0        8.298186    2.912827    4.891303
     95          1           0        7.031111   -3.821742    2.307637
     96          1           0        8.026980   -2.338179    2.237361
     97          1           0        8.291016   -3.549111    1.055370
     98          1           0        4.205984   -4.110580   -2.455076
     99          1           0        0.858603   -6.326610   -0.828913
    100          1           0        1.228168   -7.062372   -2.373509
    101          1           0        0.054156   -5.655108   -2.236239
    102          1           0       -2.870458   -5.394511   -0.895256
    103          1           0       -4.300939   -4.706991   -1.772267
    104          1           0       -4.739288   -3.610385    0.770089
    105          1           0       -5.297460   -7.658886    0.698289
    106          1           0       -3.774075   -7.599210    1.632063
    107          1           0       -3.861960   -7.230844   -0.094408
    108          1           0       -4.681026   -4.892523    3.064017
    109          1           0       -5.707193   -6.323485    2.946513
    110          1           0       -7.556400   -5.020958    2.554464
    111          1           0       -6.819885   -3.814194    1.549256
    112          1           0       -6.175300   -4.149916    4.482372
    113          1           0       -7.568107   -3.278969    4.069172
    114          1           0       -4.923806   -2.534397    2.745184
    115          1           0       -5.295232   -0.944585    4.952992
    116          1           0       -4.002302   -2.102475    4.814478
    117          1           0       -5.541953   -2.585804    5.620481
    118          1           0       -6.904943   -0.417025    3.639108
    119          1           0       -7.444045   -1.671877    2.467759
    120          1           0       -5.042102   -0.817052    1.340147
    121          1           0       -5.472903    0.499830    2.437585
    122          1           0       -7.893087   -0.344658    0.933580
    123          1           0       -6.646747    0.001270   -0.200418
    124          1           0       -6.406868    2.260926    0.578844
    125          1           0       -8.789159    2.693767    2.247754
    126          1           0       -7.144798    3.106814    2.501503
    127          1           0       -7.833488    1.530817    3.023308
    128          1           0       -9.335463    1.789702    0.093214
    129          1           0       -8.115909    1.367599   -1.123300
    130          1           0       -8.337163    3.333544   -1.933644
    131          1           0       -7.182081    3.907680   -0.820925
    132          1           0       -8.401578    5.007760    0.572536
    133          1           0       -9.813893    4.093416    0.339867
    134          1           0       -8.803490    5.760435   -2.119346
    135          1           0       -9.983738    7.661264   -0.124848
    136          1           0       -9.053849    7.803717   -1.623003
    137          1           0       -8.224353    7.041458   -0.346447
    138          1           0      -11.661569    6.037056   -1.202159
    139          1           0      -11.280886    4.381780   -1.264455
    140          1           0      -10.951480    5.399157   -2.723501
 ---------------------------------------------------------------------

 SCF Done:  E(RwB97XD) =  -3007.82222464     A.U. after   20 cycles

 Excitation energies and oscillator strengths:

 Excited State   1:      Singlet-A      1.5846 eV  782.45 nm  f=0.3679  <S**2>=0.000
     245 -> 248       -0.19466
     246 -> 247        0.68107
     245 <- 248       -0.12081
 This state for optimization and/or second-order correction.
 Total Energy, E(TD-HF/TD-DFT) =  -3007.76399294
 Copying the excited state density for this state as the 1-particle RhoCI density.

 Excited State   2:      Singlet-A      2.0793 eV  596.29 nm  f=0.1034  <S**2>=0.000
     245 -> 247        0.63839
     246 -> 248        0.28725

 Excited State   3:      Singlet-A      3.1972 eV  387.79 nm  f=0.0062  <S**2>=0.000
     242 -> 247        0.10081
     243 -> 247        0.64705
     246 -> 248        0.19610

 Excited State   4:      Singlet-A      3.3986 eV  364.81 nm  f=0.3044  <S**2>=0.000
     240 -> 249       -0.11048
     241 -> 247        0.37088
     241 -> 251       -0.11215
     242 -> 247       -0.13141
     242 -> 249       -0.18202
     243 -> 247       -0.14017
     245 -> 247       -0.19655
     246 -> 248        0.43863

 Excited State   5:      Singlet-A      3.4485 eV  359.53 nm  f=0.0847  <S**2>=0.000
     240 -> 247        0.17896
     240 -> 251       -0.12791
     241 -> 249       -0.28571
     242 -> 247        0.46022
     242 -> 248        0.10347
     242 -> 251       -0.15290
     243 -> 247       -0.13020
     245 -> 247       -0.10466
     246 -> 248        0.16920

 The electronic state is 1-A.
 Alpha  occ. eigenvalues --  -46.97249 -19.30808 -19.29176 -19.26054 -19.25223
 Alpha  occ. eigenvalues --  -19.24399 -19.23858 -14.47196 -14.46879 -14.45227
 Alpha  occ. eigenvalues --  -14.44445 -10.43882 -10.43711 -10.40352 -10.38934
 Alpha  occ. eigenvalues --  -10.36472 -10.35924 -10.35606 -10.35222 -10.35080
 Alpha  occ. eigenvalues --  -10.34879 -10.34684 -10.34635 -10.34367 -10.34078
 Alpha  occ. eigenvalues --  -10.33732 -10.33707 -10.33042 -10.32873 -10.32523
 Alpha  occ. eigenvalues --  -10.32339 -10.32287 -10.32271 -10.32169 -10.32064
 Alpha  occ. eigenvalues --  -10.31932 -10.31689 -10.31298 -10.30889 -10.30692
 Alpha  occ. eigenvalues --  -10.30612 -10.30607 -10.30521 -10.30266 -10.30032
 Alpha  occ. eigenvalues --  -10.30003 -10.29939 -10.29699 -10.29634 -10.29433
 Alpha  occ. eigenvalues --  -10.29161 -10.29153 -10.29124 -10.28671 -10.28588
 Alpha  occ. eigenvalues --  -10.28574 -10.28549 -10.28473 -10.28376 -10.28334
 Alpha  occ. eigenvalues --  -10.28310 -10.28223 -10.28106 -10.27934 -10.27808
 Alpha  occ. eigenvalues --  -10.27421  -3.22996  -1.96551  -1.96121  -1.95937
 Alpha  occ. eigenvalues --   -1.18680  -1.18202  -1.10921  -1.10652  -1.10501
 Alpha  occ. eigenvalues --   -1.09392  -1.06895  -1.06065  -1.04746  -1.03427
 Alpha  occ. eigenvalues --   -0.94069  -0.92710  -0.92052  -0.91045  -0.90884
 Alpha  occ. eigenvalues --   -0.90700  -0.90326  -0.90042  -0.89248  -0.88670
 Alpha  occ. eigenvalues --   -0.88346  -0.87950  -0.85919  -0.85844  -0.85427
 Alpha  occ. eigenvalues --   -0.84216  -0.83499  -0.83063  -0.82628  -0.81520
 Alpha  occ. eigenvalues --   -0.81142  -0.79997  -0.79723  -0.79561  -0.77894
 Alpha  occ. eigenvalues --   -0.77570  -0.77484  -0.77266  -0.76915  -0.75381
 Alpha  occ. eigenvalues --   -0.74977  -0.74476  -0.74006  -0.72386  -0.71151
 Alpha  occ. eigenvalues --   -0.70668  -0.70124  -0.69532  -0.68682  -0.68269
 Alpha  occ. eigenvalues --   -0.67647  -0.67302  -0.66480  -0.66325  -0.65195
 Alpha  occ. eigenvalues --   -0.64840  -0.64529  -0.64494  -0.64113  -0.62100
 Alpha  occ. eigenvalues --   -0.61707  -0.61264  -0.60924  -0.60559  -0.60401
 Alpha  occ. eigenvalues --   -0.59859  -0.59562  -0.58760  -0.57989  -0.57483
 Alpha  occ. eigenvalues --   -0.57287  -0.57042  -0.56452  -0.56356  -0.56092
 Alpha  occ. eigenvalues --   -0.55530  -0.55172  -0.54967  -0.54594  -0.54513
 Alpha  occ. eigenvalues --   -0.54357  -0.54258  -0.53963  -0.53637  -0.53507
 Alpha  occ. eigenvalues --   -0.53323  -0.53061  -0.52817  -0.52779  -0.52656
 Alpha  occ. eigenvalues --   -0.52380  -0.52208  -0.52030  -0.51762  -0.51693
 Alpha  occ. eigenvalues --   -0.51221  -0.51175  -0.51118  -0.50816  -0.50698
 Alpha  occ. eigenvalues --   -0.50348  -0.50032  -0.50005  -0.49821  -0.49693
 Alpha  occ. eigenvalues --   -0.49535  -0.49348  -0.49202  -0.48742  -0.48554
 Alpha  occ. eigenvalues --   -0.48302  -0.48166  -0.48007  -0.47870  -0.47771
 Alpha  occ. eigenvalues --   -0.47561  -0.47311  -0.47185  -0.46910  -0.46899
 Alpha  occ. eigenvalues --   -0.46617  -0.46327  -0.46206  -0.45962  -0.45770
 Alpha  occ. eigenvalues --   -0.45610  -0.45555  -0.45346  -0.45105  -0.44942
 Alpha  occ. eigenvalues --   -0.44846  -0.44734  -0.44680  -0.44404  -0.44344
 Alpha  occ. eigenvalues --   -0.43934  -0.43805  -0.43291  -0.43098  -0.43004
 Alpha  occ. eigenvalues --   -0.42890  -0.42813  -0.42401  -0.42361  -0.42041
 Alpha  occ. eigenvalues --   -0.42007  -0.41522  -0.40898  -0.40472  -0.40391
 Alpha  occ. eigenvalues --   -0.40103  -0.39882  -0.39661  -0.39351  -0.39096
 Alpha  occ. eigenvalues --   -0.39031  -0.38752  -0.38546  -0.38478  -0.37817
 Alpha  occ. eigenvalues --   -0.37694  -0.37320  -0.37044  -0.36879  -0.36646
 Alpha  occ. eigenvalues --   -0.36399  -0.35403  -0.34626  -0.33894  -0.33275
 Alpha  occ. eigenvalues --   -0.32779  -0.32677  -0.31318  -0.31228  -0.26061
 Alpha  occ. eigenvalues --   -0.23235
 Alpha virt. eigenvalues --   -0.07628  -0.00661   0.01702   0.03778   0.04221
 Alpha virt. eigenvalues --    0.05761   0.06707   0.07764   0.08352   0.08751
 Alpha virt. eigenvalues --    0.10482   0.10929   0.11616   0.12489   0.12900

 Mulliken charges:
               1
     1  Mg   0.957923
     2  C   -0.039375
     3  C   -0.082357
     4  C   -0.073885
     5  C   -0.066859
     6  N   -0.319857
     7  C   -0.055428
     8  C    0.013981
     9  C   -0.106657
    10  C   -0.000057
    11  C    0.033043
    12  C   -0.009014
    13  C    0.040650
    14  C    0.189562
    15  O   -0.250464
    16  O   -0.390692
    17  N   -0.472247
    18  C    0.190994
    19  C   -0.198377
    20  C   -0.063753
    21  C    0.167310
    22  C    0.108136
    23  C    0.065407
    24  O   -0.257125
    25  C   -0.018311
    26  N   -0.359588
    27  C    0.053837
    28  C   -0.087580
    29  C   -0.070125
    30  C    0.056140
    31  C    0.016055
    32  C   -0.021922
    33  C   -0.043017
    34  N   -0.422358
    35  C    0.100136
    36  C   -0.154233
    37  C   -0.054779
    38  C    0.140085
    39  C    0.085688
    40  C    0.103429
    41  O   -0.223579
    42  C   -0.052462
    43  C    0.291578
    44  O   -0.264323
    45  O   -0.358539
    46  C    0.114723
    47  C    0.242049
    48  C   -0.153486
    49  C   -0.194028
    50  C    0.026451
    51  C    0.034850
    52  C    0.001341
    53  C   -0.021767
    54  C   -0.192233
    55  C    0.037872
    56  C   -0.030008
    57  C   -0.009096
    58  C   -0.005205
    59  C   -0.170340
    60  C    0.006965
    61  C    0.015059
    62  C   -0.073008
    63  C    0.009809
    64  C   -0.193986
    65  C   -0.017283
    66  C   -0.006130
    67  H    0.002130
    68  H   -0.018435
    69  H    0.003893
    70  H    0.039653
    71  H    0.046041
    72  H    0.050470
    73  H    0.039980
    74  H    0.039852
    75  H    0.067944
    76  H    0.048436
    77  H    0.052378
    78  H    0.058350
    79  H    0.017288
    80  H    0.069406
    81  H    0.056102
    82  H    0.075994
    83  H    0.057534
    84  H    0.045864
    85  H    0.047051
    86  H    0.042421
    87  H    0.040069
    88  H    0.036801
    89  H    0.029373
    90  H    0.037825
    91  H    0.021313
    92  H    0.034905
    93  H    0.034988
    94  H    0.032195
    95  H    0.071850
    96  H    0.013930
    97  H    0.060520
    98  H    0.072852
    99  H    0.068354
   100  H    0.059822
   101  H    0.052549
   102  H    0.028756
   103  H    0.061277
   104  H    0.023385
   105  H    0.040604
   106  H    0.052269
   107  H    0.023883
   108  H    0.049980
   109  H    0.020557
   110  H    0.015343
   111  H    0.026772
   112  H    0.007929
   113  H    0.014371
   114  H    0.016978
   115  H    0.008593
   116  H    0.031229
   117  H    0.031747
   118  H    0.028308
   119  H    0.017261
   120  H    0.034354
   121  H    0.019120
   122  H    0.013536
   123  H    0.013807
   124  H    0.014901
   125  H    0.018123
   126  H    0.033337
   127  H    0.022748
   128  H    0.022858
   129  H    0.014154
   130  H    0.017120
   131  H    0.019032
   132  H    0.005255
   133  H    0.013835
   134  H    0.029946
   135  H    0.044695
   136  H    0.022293
   137  H    0.023631
   138  H    0.026684
   139  H    0.030056
   140  H    0.032036
 Sum of Mulliken charges =  -0.00000

 Dipole moment (field-independent basis, Debye):
    X=              1.7483    Y=              2.9252    Z=              0.8459  Tot=              3.5112
 Quadrupole moment (field-independent basis, Debye-Ang):
   XX=           -376.6199   YY=           -433.2939   ZZ=           -386.3955
   XY=             41.9525   XZ=              5.8367   YZ=              7.8816

 Normal termination of Gaussian 16 at Wed May  4 11:28:53 2022.
