 Gaussian 16, Revision A.03,
 Gaussian 16:  ES64L-G16RevA.03 25-Dec-2016

 --------------------
 #p ZINDO=(nstates=5)
 --------------------

 ------------------------------
 step_1651_chromophore_20 ZINDO
 ------------------------------
 Symbolic Z-matrix:
 Charge =  0 Multiplicity = 1

                         Standard orientation:
 ---------------------------------------------------------------------
 Center     Atomic      Atomic             Coordinates (Angstroms)
 Number     Number       Type             X           Y           Z
 ---------------------------------------------------------------------
      1         12           0        4.253910    1.232997   -0.696955
      2          6           0        3.651977   -2.327561   -1.463291
      3          6           0        1.336312    1.888636   -2.479087
      4          6           0        4.278995    4.234297    0.637163
      5          6           0        6.636699    0.053490    1.745258
      6          7           0        2.567474   -0.136118   -1.635059
      7          6           0        2.593256   -1.482984   -2.000255
      8          6           0        1.489057   -1.819557   -3.086546
      9          6           0        1.112929   -0.359266   -3.547196
     10          6           0        1.698759    0.523897   -2.494210
     11          6           0        1.878525    0.028429   -4.826376
     12          6           0        0.430352   -2.738740   -2.446447
     13          6           0       -1.003300   -2.311548   -2.443024
     14          6           0       -2.044216   -3.477458   -2.362721
     15          8           0       -2.335629   -4.278597   -3.219497
     16          8           0       -2.709645   -3.498254   -1.089694
     17          7           0        3.047423    2.849736   -0.970818
     18          6           0        1.964238    2.973134   -1.740080
     19          6           0        1.436094    4.295687   -1.672176
     20          6           0        2.377728    5.061359   -1.016824
     21          6           0        3.294315    4.096468   -0.394863
     22          6           0        0.117071    4.682660   -2.304753
     23          6           0        2.362736    6.617648   -0.802315
     24          8           0        1.466473    7.355622   -1.285288
     25          6           0        3.370237    7.347111    0.116111
     26          7           0        5.401694    2.046609    0.959087
     27          6           0        5.233205    3.366868    1.225072
     28          6           0        6.012240    3.726732    2.438581
     29          6           0        6.798687    2.364537    2.816283
     30          6           0        6.241380    1.392891    1.798373
     31          6           0        6.913867    4.929960    2.262912
     32          6           0        6.467724    1.899227    4.276835
     33          6           0        7.510729    2.289612    5.315824
     34          7           0        5.199350   -0.650034   -0.090484
     35          6           0        6.096100   -0.979737    0.901986
     36          6           0        6.495270   -2.401342    0.857154
     37          6           0        5.554769   -2.962530   -0.103170
     38          6           0        4.766187   -1.890634   -0.620528
     39          6           0        7.500098   -3.089692    1.649010
     40          6           0        5.073540   -4.214975   -0.630507
     41          8           0        5.501325   -5.365156   -0.457636
     42          6           0        3.790075   -3.867289   -1.478170
     43          6           0        2.602765   -4.636234   -1.049425
     44          8           0        2.023860   -4.602953    0.056763
     45          8           0        2.088965   -5.233357   -2.177703
     46          6           0        0.980018   -6.116729   -1.891445
     47          6           0       -3.605403   -4.590761   -0.940810
     48          6           0       -4.356171   -4.583051    0.461033
     49          6           0       -4.725595   -5.637551    1.210325
     50          6           0       -4.370050   -7.109654    0.861809
     51          6           0       -5.459779   -5.374039    2.472500
     52          6           0       -6.664060   -4.403658    2.451821
     53          6           0       -6.582565   -3.535181    3.679352
     54          6           0       -5.712590   -2.319640    3.464688
     55          6           0       -5.087341   -2.005873    4.817141
     56          6           0       -6.586827   -1.169538    2.917481
     57          6           0       -5.875883   -0.288513    1.802428
     58          6           0       -6.956779    0.201754    0.825308
     59          6           0       -7.333239    1.755724    0.854752
     60          6           0       -7.785828    2.270150    2.223774
     61          6           0       -8.327361    2.002461   -0.262954
     62          6           0       -8.170819    3.451916   -0.862069
     63          6           0       -9.044007    4.623592   -0.219710
     64          6           0       -9.439158    5.689921   -1.238071
     65          6           0       -9.228576    7.179941   -0.746979
     66          6           0      -10.937152    5.347163   -1.635208
     67          1           0        0.559631    2.025517   -3.233844
     68          1           0        4.269666    5.182830    1.177786
     69          1           0        7.264072   -0.319439    2.557446
     70          1           0        2.103685   -2.422982   -3.755305
     71          1           0        0.070265   -0.039069   -3.551128
     72          1           0        2.649588   -0.650560   -5.192447
     73          1           0        2.378543    0.992685   -4.736565
     74          1           0        1.100548    0.225691   -5.563068
     75          1           0        0.655552   -2.862792   -1.386818
     76          1           0        0.332403   -3.720482   -2.908683
     77          1           0       -1.309741   -1.913084   -3.410199
     78          1           0       -1.266602   -1.728261   -1.561312
     79          1           0       -0.463113    3.820691   -2.632756
     80          1           0        0.257252    5.354288   -3.151116
     81          1           0       -0.490023    5.069667   -1.486463
     82          1           0        3.138200    7.239433    1.176175
     83          1           0        3.418455    8.420167   -0.067736
     84          1           0        4.326122    6.891111   -0.142132
     85          1           0        5.292377    3.982781    3.216041
     86          1           0        7.871465    2.423235    2.636319
     87          1           0        7.190652    5.090281    1.220743
     88          1           0        7.796278    4.894675    2.901457
     89          1           0        6.427347    5.853776    2.577210
     90          1           0        6.258256    0.835012    4.384201
     91          1           0        5.501513    2.331553    4.533702
     92          1           0        7.974330    1.405347    5.754387
     93          1           0        7.081357    2.794607    6.181774
     94          1           0        8.298186    2.912827    4.891303
     95          1           0        7.031111   -3.821742    2.307637
     96          1           0        8.026980   -2.338179    2.237361
     97          1           0        8.291016   -3.549111    1.055370
     98          1           0        4.205984   -4.110580   -2.455076
     99          1           0        0.858603   -6.326610   -0.828913
    100          1           0        1.228168   -7.062372   -2.373509
    101          1           0        0.054156   -5.655108   -2.236239
    102          1           0       -2.870458   -5.394511   -0.895256
    103          1           0       -4.300939   -4.706991   -1.772267
    104          1           0       -4.739288   -3.610385    0.770089
    105          1           0       -5.297460   -7.658886    0.698289
    106          1           0       -3.774075   -7.599210    1.632063
    107          1           0       -3.861960   -7.230844   -0.094408
    108          1           0       -4.681026   -4.892523    3.064017
    109          1           0       -5.707193   -6.323485    2.946513
    110          1           0       -7.556400   -5.020958    2.554464
    111          1           0       -6.819885   -3.814194    1.549256
    112          1           0       -6.175300   -4.149916    4.482372
    113          1           0       -7.568107   -3.278969    4.069172
    114          1           0       -4.923806   -2.534397    2.745184
    115          1           0       -5.295232   -0.944585    4.952992
    116          1           0       -4.002302   -2.102475    4.814478
    117          1           0       -5.541953   -2.585804    5.620481
    118          1           0       -6.904943   -0.417025    3.639108
    119          1           0       -7.444045   -1.671877    2.467759
    120          1           0       -5.042102   -0.817052    1.340147
    121          1           0       -5.472903    0.499830    2.437585
    122          1           0       -7.893087   -0.344658    0.933580
    123          1           0       -6.646747    0.001270   -0.200418
    124          1           0       -6.406868    2.260926    0.578844
    125          1           0       -8.789159    2.693767    2.247754
    126          1           0       -7.144798    3.106814    2.501503
    127          1           0       -7.833488    1.530817    3.023308
    128          1           0       -9.335463    1.789702    0.093214
    129          1           0       -8.115909    1.367599   -1.123300
    130          1           0       -8.337163    3.333544   -1.933644
    131          1           0       -7.182081    3.907680   -0.820925
    132          1           0       -8.401578    5.007760    0.572536
    133          1           0       -9.813893    4.093416    0.339867
    134          1           0       -8.803490    5.760435   -2.119346
    135          1           0       -9.983738    7.661264   -0.124848
    136          1           0       -9.053849    7.803717   -1.623003
    137          1           0       -8.224353    7.041458   -0.346447
    138          1           0      -11.661569    6.037056   -1.202159
    139          1           0      -11.280886    4.381780   -1.264455
    140          1           0      -10.951480    5.399157   -2.723501
 ---------------------------------------------------------------------

 SCF Done:  E(RZINDO/S) =  -473.944593793     A.U. after   20 cycles

 Excitation energies and oscillator strengths:

 Excited State   1:      Singlet-A      1.2085 eV 1025.97 nm  f=0.5913  <S**2>=0.000
     175 ->178         0.19716
     176 ->177         0.65983
 This state for optimization and/or second-order correction.
 Total Energy, E(CIS/TDA) =  -473.900183592
 Copying the excited state density for this state as the 1-particle RhoCI density.

 Excited State   2:      Singlet-A      1.8409 eV  673.49 nm  f=0.0270  <S**2>=0.000
     175 ->177         0.53248
     176 ->178        -0.43809

 Excited State   3:      Singlet-A      2.8444 eV  435.89 nm  f=0.5445  <S**2>=0.000
     175 ->177        -0.29076
     176 ->178        -0.38447
     176 ->179         0.11996
     176 ->180         0.47046

 Excited State   4:      Singlet-A      2.9162 eV  425.16 nm  f=0.2550  <S**2>=0.000
     172 ->177         0.12762
     173 ->177         0.10120
     175 ->177         0.18695
     176 ->178         0.19836
     176 ->179         0.51524
     176 ->180         0.15863
     176 ->181        -0.11840
     176 ->182         0.11429

 Excited State   5:      Singlet-A      2.9350 eV  422.43 nm  f=0.0277  <S**2>=0.000
     168 ->177        -0.20940
     168 ->178        -0.18450
     168 ->179         0.34141
     168 ->181         0.31505
     168 ->185         0.18342
     176 ->180        -0.22804

 The electronic state is 1-A.
 Alpha  occ. eigenvalues --   -1.82827  -1.80171  -1.79213  -1.73072  -1.72520
 Alpha  occ. eigenvalues --   -1.70482  -1.67538  -1.61315  -1.57395  -1.56083
 Alpha  occ. eigenvalues --   -1.53840  -1.50721  -1.48123  -1.46739  -1.45966
 Alpha  occ. eigenvalues --   -1.43336  -1.43262  -1.40949  -1.39200  -1.38521
 Alpha  occ. eigenvalues --   -1.36641  -1.33894  -1.31951  -1.31249  -1.28348
 Alpha  occ. eigenvalues --   -1.26509  -1.24985  -1.22914  -1.19928  -1.17410
 Alpha  occ. eigenvalues --   -1.17018  -1.16116  -1.15650  -1.14963  -1.13997
 Alpha  occ. eigenvalues --   -1.13209  -1.10269  -1.08719  -1.05333  -1.03433
 Alpha  occ. eigenvalues --   -1.02086  -1.00796  -0.99349  -0.97617  -0.95712
 Alpha  occ. eigenvalues --   -0.95425  -0.94756  -0.93012  -0.92478  -0.92005
 Alpha  occ. eigenvalues --   -0.91442  -0.91069  -0.88497  -0.87687  -0.86982
 Alpha  occ. eigenvalues --   -0.85935  -0.83230  -0.82585  -0.81739  -0.80117
 Alpha  occ. eigenvalues --   -0.79775  -0.79041  -0.78661  -0.76788  -0.76661
 Alpha  occ. eigenvalues --   -0.76225  -0.75348  -0.74529  -0.74192  -0.73859
 Alpha  occ. eigenvalues --   -0.73309  -0.73171  -0.71411  -0.71284  -0.70586
 Alpha  occ. eigenvalues --   -0.70065  -0.69137  -0.68899  -0.68310  -0.67766
 Alpha  occ. eigenvalues --   -0.67344  -0.67097  -0.66723  -0.65947  -0.65808
 Alpha  occ. eigenvalues --   -0.65427  -0.64922  -0.64607  -0.64143  -0.63890
 Alpha  occ. eigenvalues --   -0.63682  -0.63170  -0.63003  -0.62514  -0.62184
 Alpha  occ. eigenvalues --   -0.61922  -0.61266  -0.60990  -0.60753  -0.60470
 Alpha  occ. eigenvalues --   -0.59811  -0.59098  -0.58862  -0.58766  -0.58191
 Alpha  occ. eigenvalues --   -0.58119  -0.57388  -0.56776  -0.56531  -0.56257
 Alpha  occ. eigenvalues --   -0.55833  -0.55380  -0.55198  -0.54917  -0.54698
 Alpha  occ. eigenvalues --   -0.54468  -0.53862  -0.53711  -0.53409  -0.53315
 Alpha  occ. eigenvalues --   -0.52663  -0.52350  -0.52013  -0.51629  -0.51479
 Alpha  occ. eigenvalues --   -0.51163  -0.51103  -0.50723  -0.50632  -0.50276
 Alpha  occ. eigenvalues --   -0.50185  -0.49981  -0.49710  -0.49554  -0.48927
 Alpha  occ. eigenvalues --   -0.48723  -0.48575  -0.48325  -0.47788  -0.47205
 Alpha  occ. eigenvalues --   -0.46764  -0.46656  -0.46308  -0.46058  -0.45982
 Alpha  occ. eigenvalues --   -0.45861  -0.45720  -0.45534  -0.45252  -0.45098
 Alpha  occ. eigenvalues --   -0.44904  -0.44786  -0.44592  -0.44310  -0.43942
 Alpha  occ. eigenvalues --   -0.43834  -0.43160  -0.43073  -0.42610  -0.42365
 Alpha  occ. eigenvalues --   -0.41844  -0.41134  -0.40512  -0.39036  -0.38829
 Alpha  occ. eigenvalues --   -0.38276  -0.37664  -0.36601  -0.34917  -0.34654
 Alpha  occ. eigenvalues --   -0.33985  -0.32444  -0.31694  -0.31613  -0.26759
 Alpha  occ. eigenvalues --   -0.21829
 Alpha virt. eigenvalues --   -0.08884  -0.02850  -0.00983   0.00341   0.01017
 Alpha virt. eigenvalues --    0.01465   0.02115   0.02534   0.03921   0.05552
 Alpha virt. eigenvalues --    0.05583   0.05920   0.06619   0.07292   0.07782

 Mulliken charges:
               1
     1  Mg   0.443000
     2  C   -0.058342
     3  C   -0.113743
     4  C   -0.089014
     5  C   -0.070032
     6  N   -0.312116
     7  C    0.110636
     8  C    0.012454
     9  C    0.014176
    10  C    0.155731
    11  C   -0.045216
    12  C   -0.021171
    13  C    0.009077
    14  C    0.449552
    15  O   -0.505130
    16  O   -0.284317
    17  N   -0.314287
    18  C    0.134062
    19  C    0.049147
    20  C   -0.031819
    21  C    0.117015
    22  C   -0.037459
    23  C    0.315856
    24  O   -0.520571
    25  C   -0.024942
    26  N   -0.267114
    27  C    0.142019
    28  C    0.010279
    29  C   -0.000610
    30  C    0.114215
    31  C   -0.048528
    32  C   -0.028360
    33  C   -0.057011
    34  N   -0.338247
    35  C    0.094845
    36  C    0.033532
    37  C   -0.061849
    38  C    0.101389
    39  C   -0.026387
    40  C    0.330161
    41  O   -0.536066
    42  C    0.059870
    43  C    0.498062
    44  O   -0.525258
    45  O   -0.269342
    46  C    0.069718
    47  C    0.099321
    48  C   -0.107346
    49  C    0.002148
    50  C   -0.045861
    51  C   -0.015440
    52  C   -0.028480
    53  C   -0.026219
    54  C   -0.009359
    55  C   -0.061493
    56  C   -0.043716
    57  C   -0.044458
    58  C   -0.038378
    59  C   -0.006020
    60  C   -0.054834
    61  C   -0.027356
    62  C   -0.052911
    63  C   -0.032899
    64  C   -0.010505
    65  C   -0.069689
    66  C   -0.062554
    67  H    0.030823
    68  H    0.019869
    69  H    0.027229
    70  H    0.039616
    71  H    0.045741
    72  H    0.032387
    73  H    0.023040
    74  H    0.016977
    75  H    0.040479
    76  H    0.041809
    77  H    0.042785
    78  H    0.042827
    79  H    0.017351
    80  H    0.046400
    81  H    0.038352
    82  H    0.045362
    83  H    0.040287
    84  H    0.027163
    85  H    0.035425
    86  H    0.039111
    87  H    0.022945
    88  H    0.019151
    89  H    0.012181
    90  H    0.025698
    91  H    0.016845
    92  H    0.017111
    93  H    0.017529
    94  H    0.019501
    95  H    0.044047
    96  H    0.013281
    97  H    0.038384
    98  H    0.053537
    99  H    0.051388
   100  H    0.035177
   101  H    0.044381
   102  H    0.038451
   103  H    0.057767
   104  H    0.029518
   105  H    0.023798
   106  H    0.031664
   107  H    0.021269
   108  H    0.029605
   109  H    0.020458
   110  H    0.004510
   111  H    0.030405
   112  H    0.007541
   113  H    0.011945
   114  H    0.028654
   115  H    0.011111
   116  H    0.018585
   117  H    0.025053
   118  H    0.027070
   119  H    0.016168
   120  H    0.027811
   121  H    0.018207
   122  H    0.019581
   123  H    0.009993
   124  H    0.017593
   125  H    0.014051
   126  H    0.016027
   127  H    0.022613
   128  H    0.025846
   129  H    0.014194
   130  H    0.010403
   131  H    0.018653
   132  H    0.008816
   133  H    0.023796
   134  H    0.029681
   135  H    0.034085
   136  H    0.011449
   137  H    0.019832
   138  H    0.018792
   139  H    0.021625
   140  H    0.017377
 Sum of Mulliken charges =  -0.00000

 Dipole moment (field-independent basis, Debye):
    X=              2.0179    Y=              5.1079    Z=              0.3295  Tot=              5.5019
 N-N= 4.478477160827D+03 E-N= 0.000000000000D+00  KE=-9.630895448347D+03
 Leave Link  601 at Wed May  4 11:42:56 2022, MaxMem=  6710886400 cpu:               0.8 elap:               0.0
 (Enter /sw/apps/gaussian-16.0/g16/l9999.exe)
 1\1\GINC-BP1-COMPUTE058\SP\RZINDO CIS\STO-3G\C55H74Mg1N4O6\OF15641\04-
 May-2022\0\\#p ZINDO=(nstates=5)\\step_1651_chromophore_20 ZINDO\\0,1\
 Mg,0,6.924,57.004,41.41\C,0,5.707,53.564,40.851\C,0,9.801,56.034,39.70
 7\C,0,7.672,60.191,41.142\C,0,3.515,57.808,42.285\N,0,7.533,55.064,40.
 2\C,0,7.017,53.768,40.247\C,0,8.065,52.698,39.728\C,0,9.377,53.572,39.
 758\C,0,8.884,54.976,39.891\C,0,10.169,53.331,41.057\C,0,7.548,52.102,
 38.404\C,0,8.402,52.191,37.179\C,0,8.132,51.091,36.099\O,0,8.407,49.91

 Normal termination of Gaussian 16 at Wed May  4 11:42:56 2022.
