 Gaussian 16, Revision A.03,
 Gaussian 16:  ES64L-G16RevA.03 25-Dec-2016

 ------------------------------
 #p blyp/Def2SVP td=(nstates=5)
 ------------------------------

 --------------------------------------------------
 step_801_chromophore_15 TDDFT with blyp functional
 --------------------------------------------------
 Symbolic Z-matrix:
 Charge =  0 Multiplicity = 1

                         Standard orientation:
 ---------------------------------------------------------------------
 Center     Atomic      Atomic             Coordinates (Angstroms)
 Number     Number       Type             X           Y           Z
 ---------------------------------------------------------------------
      1         12           0       -4.758174    0.881966    0.103036
      2          6           0       -4.052475   -2.404807    0.594077
      3          6           0       -1.364702    1.538565   -0.360093
      4          6           0       -5.341854    4.190024    0.163200
      5          6           0       -8.068655    0.299907    0.798454
      6          7           0       -2.920928   -0.286112    0.073567
      7          6           0       -2.923303   -1.683757    0.285850
      8          6           0       -1.511185   -2.261298   -0.204749
      9          6           0       -0.639126   -0.974129    0.045823
     10          6           0       -1.684625    0.195738   -0.054070
     11          6           0        0.128513   -0.974589    1.426042
     12          6           0       -1.596777   -2.766960   -1.645079
     13          6           0       -0.572010   -3.870214   -1.996008
     14          6           0        0.640862   -4.144137   -1.099406
     15          8           0        0.586302   -5.009003   -0.199081
     16          8           0        1.694259   -3.390574   -1.441900
     17          7           0       -3.533442    2.657325   -0.116359
     18          6           0       -2.180071    2.667312   -0.347277
     19          6           0       -1.796397    4.073502   -0.454758
     20          6           0       -2.951334    4.817192   -0.241067
     21          6           0       -3.966292    3.920517   -0.003622
     22          6           0       -0.385918    4.411268   -0.785467
     23          6           0       -3.117233    6.288701   -0.270657
     24          8           0       -4.079465    6.893469    0.162903
     25          6           0       -1.907478    7.061092   -0.614485
     26          7           0       -6.439394    2.089281    0.560348
     27          6           0       -6.447592    3.392209    0.403009
     28          6           0       -7.837143    4.022533    0.429228
     29          6           0       -8.706849    2.726706    0.408650
     30          6           0       -7.694607    1.587667    0.598785
     31          6           0       -8.043570    4.955369    1.597950
     32          6           0       -9.457072    2.375374   -0.841539
     33          6           0      -10.994223    2.081876   -0.745061
     34          7           0       -5.910443   -0.714149    0.677081
     35          6           0       -7.280175   -0.850021    0.906188
     36          6           0       -7.625449   -2.215935    1.009518
     37          6           0       -6.330127   -2.848513    1.034337
     38          6           0       -5.336393   -1.950727    0.762871
     39          6           0       -8.967979   -2.836702    1.050828
     40          6           0       -5.738734   -4.119775    1.107117
     41          8           0       -6.177979   -5.257779    1.315488
     42          6           0       -4.217141   -3.878791    1.005226
     43          6           0       -3.570021   -4.951281    0.165080
     44          8           0       -3.997917   -5.340950   -0.948460
     45          8           0       -2.576450   -5.508004    0.781377
     46          6           0       -1.860682   -6.543825    0.089639
     47          6           0        2.914821   -3.688778   -0.755797
     48          6           0        4.092809   -3.065038   -1.537158
     49          6           0        5.391047   -3.360722   -1.358627
     50          6           0        5.806053   -4.234642   -0.218663
     51          6           0        6.559507   -2.830442   -2.237125
     52          6           0        7.002997   -1.426636   -1.781091
     53          6           0        6.778003   -0.255404   -2.756455
     54          6           0        6.610193    1.140576   -2.074682
     55          6           0        5.245482    1.759744   -2.528284
     56          6           0        7.743803    2.119060   -2.497584
     57          6           0        8.609910    2.393576   -1.234627
     58          6           0       10.073486    2.028833   -1.506024
     59          6           0       10.927480    2.339843   -0.329146
     60          6           0       11.476893    3.753241   -0.464887
     61          6           0       11.950474    1.303294   -0.054483
     62          6           0       12.569538    1.527133    1.335091
     63          6           0       12.220258    0.375869    2.284699
     64          6           0       12.266790    0.661798    3.777053
     65          6           0       13.162266   -0.361184    4.535203
     66          6           0       10.878600    0.612584    4.464535
     67          1           0       -0.279867    1.623325   -0.453003
     68          1           0       -5.697329    5.220024    0.229196
     69          1           0       -9.144590    0.135157    0.881965
     70          1           0       -1.085712   -2.989491    0.485710
     71          1           0        0.057924   -0.884306   -0.787460
     72          1           0       -0.204304   -1.623415    2.234901
     73          1           0        0.080789    0.019017    1.872646
     74          1           0        1.196576   -1.076975    1.232752
     75          1           0       -1.463035   -1.925078   -2.323535
     76          1           0       -2.601113   -3.148307   -1.826208
     77          1           0       -0.146194   -3.486115   -2.922730
     78          1           0       -1.091273   -4.803179   -2.218502
     79          1           0       -0.249651    5.073668   -1.641257
     80          1           0        0.317423    3.578949   -0.803756
     81          1           0        0.151502    4.893266    0.030609
     82          1           0       -1.067479    6.760231    0.010288
     83          1           0       -2.151680    8.065673   -0.269969
     84          1           0       -1.633919    7.128926   -1.668133
     85          1           0       -7.994927    4.519305   -0.528106
     86          1           0       -9.449435    2.782704    1.205700
     87          1           0       -7.131135    4.956328    2.194740
     88          1           0       -8.821924    4.652151    2.298971
     89          1           0       -8.502967    5.886974    1.268421
     90          1           0       -9.120956    1.522235   -1.431305
     91          1           0       -9.388455    3.278076   -1.449194
     92          1           0      -11.373068    2.059188    0.276858
     93          1           0      -11.326457    1.127472   -1.153710
     94          1           0      -11.473434    2.912368   -1.261885
     95          1           0       -9.803014   -2.259911    0.652100
     96          1           0       -9.229045   -3.076542    2.081072
     97          1           0       -8.770365   -3.737624    0.469007
     98          1           0       -3.823014   -3.909648    2.021369
     99          1           0       -2.361921   -7.453536   -0.242310
    100          1           0       -1.029615   -6.863295    0.718143
    101          1           0       -1.475331   -6.156946   -0.854165
    102          1           0        2.993858   -4.773608   -0.690847
    103          1           0        2.899010   -3.263637    0.247485
    104          1           0        3.781011   -2.481264   -2.402452
    105          1           0        6.838256   -4.132378    0.117275
    106          1           0        5.810925   -5.293167   -0.478368
    107          1           0        5.083562   -4.295217    0.595585
    108          1           0        6.277676   -2.690799   -3.281293
    109          1           0        7.418832   -3.489047   -2.106898
    110          1           0        8.082903   -1.482431   -1.637979
    111          1           0        6.623934   -1.186664   -0.788143
    112          1           0        5.867208   -0.477771   -3.312909
    113          1           0        7.536889   -0.370610   -3.531039
    114          1           0        6.527468    0.936653   -1.007605
    115          1           0        5.534875    1.949216   -3.562353
    116          1           0        4.976693    2.708459   -2.062377
    117          1           0        4.437464    1.031506   -2.455731
    118          1           0        7.331598    3.048814   -2.890092
    119          1           0        8.265778    1.614779   -3.311448
    120          1           0        8.269276    1.895451   -0.325878
    121          1           0        8.570621    3.478627   -1.135184
    122          1           0       10.298378    2.749114   -2.293519
    123          1           0       10.150658    1.039003   -1.956031
    124          1           0       10.329829    2.420291    0.578788
    125          1           0       12.563329    3.799273   -0.543422
    126          1           0       11.331284    4.385244    0.410807
    127          1           0       11.068047    4.271834   -1.332820
    128          1           0       12.743779    1.413979   -0.793928
    129          1           0       11.678879    0.262276   -0.227247
    130          1           0       12.567901    2.498635    1.829502
    131          1           0       13.623550    1.427107    1.075424
    132          1           0       12.895923   -0.418355    1.966606
    133          1           0       11.195619    0.109454    2.025132
    134          1           0       12.537858    1.693714    3.998054
    135          1           0       14.090394   -0.691955    4.070606
    136          1           0       12.615037   -1.214726    4.935274
    137          1           0       13.540151    0.172332    5.406421
    138          1           0       10.569196    1.654228    4.544528
    139          1           0       10.930260    0.128396    5.439628
    140          1           0       10.071068    0.130527    3.912844
 ---------------------------------------------------------------------

 SCF Done:  E(RB-LYP) =  -3007.34445045     A.U. after   21 cycles

 Excitation energies and oscillator strengths:

 Excited State   1:      Singlet-A      1.5939 eV  777.85 nm  f=0.0039  <S**2>=0.000
     244 -> 247        0.55458
     245 -> 247       -0.43469
 This state for optimization and/or second-order correction.
 Total Energy, E(TD-HF/TD-DFT) =  -3007.28587470
 Copying the excited state density for this state as the 1-particle RhoCI density.

 Excited State   2:      Singlet-A      1.8731 eV  661.92 nm  f=0.2561  <S**2>=0.000
     243 -> 247        0.18834
     244 -> 247        0.10084
     245 -> 248        0.16077
     246 -> 247        0.65067
     246 <- 247       -0.13383

 Excited State   3:      Singlet-A      1.9732 eV  628.36 nm  f=0.0828  <S**2>=0.000
     243 -> 247        0.54148
     244 -> 247        0.22561
     245 -> 247        0.29021
     246 -> 247       -0.21573
     246 -> 248       -0.11159

 Excited State   4:      Singlet-A      2.0009 eV  619.63 nm  f=0.0582  <S**2>=0.000
     242 -> 247       -0.19611
     243 -> 247        0.41087
     244 -> 247       -0.31754
     245 -> 247       -0.39383
     246 -> 248        0.15170

 Excited State   5:      Singlet-A      2.2500 eV  551.05 nm  f=0.0246  <S**2>=0.000
     241 -> 247       -0.27733
     242 -> 247        0.59411
     244 -> 247       -0.11948
     245 -> 247       -0.17649
     246 -> 248        0.11109

 The electronic state is 1-A.
 Alpha  occ. eigenvalues --  -46.26722 -18.84420 -18.82547 -18.77488 -18.75667
 Alpha  occ. eigenvalues --  -18.74657 -18.74077 -14.03421 -14.02540 -14.00579
 Alpha  occ. eigenvalues --  -13.99849 -10.05234 -10.02753  -9.99391  -9.99127
 Alpha  occ. eigenvalues --   -9.97720  -9.96759  -9.96639  -9.96002  -9.95622
 Alpha  occ. eigenvalues --   -9.95611  -9.95599  -9.94906  -9.94636  -9.94473
 Alpha  occ. eigenvalues --   -9.94095  -9.94043  -9.93848  -9.93526  -9.93423
 Alpha  occ. eigenvalues --   -9.93337  -9.93328  -9.93292  -9.93190  -9.93184
 Alpha  occ. eigenvalues --   -9.93070  -9.93037  -9.92962  -9.92872  -9.92795
 Alpha  occ. eigenvalues --   -9.92730  -9.92436  -9.92418  -9.92280  -9.92184
 Alpha  occ. eigenvalues --   -9.92128  -9.92028  -9.91946  -9.91872  -9.91842
 Alpha  occ. eigenvalues --   -9.91725  -9.91645  -9.91386  -9.91348  -9.91343
 Alpha  occ. eigenvalues --   -9.91263  -9.91238  -9.91091  -9.90888  -9.90877
 Alpha  occ. eigenvalues --   -9.90845  -9.90806  -9.90793  -9.90760  -9.90546
 Alpha  occ. eigenvalues --   -9.90069  -2.91354  -1.71788  -1.71228  -1.71064
 Alpha  occ. eigenvalues --   -1.00400  -0.99548  -0.92197  -0.90442  -0.89323
 Alpha  occ. eigenvalues --   -0.87417  -0.87153  -0.86471  -0.85638  -0.84784
 Alpha  occ. eigenvalues --   -0.75925  -0.74517  -0.74082  -0.72895  -0.72829
 Alpha  occ. eigenvalues --   -0.72452  -0.72125  -0.71605  -0.71174  -0.70949
 Alpha  occ. eigenvalues --   -0.69910  -0.69574  -0.68603  -0.67806  -0.67692
 Alpha  occ. eigenvalues --   -0.67032  -0.66324  -0.65838  -0.65651  -0.64949
 Alpha  occ. eigenvalues --   -0.64670  -0.63476  -0.62434  -0.61978  -0.60917
 Alpha  occ. eigenvalues --   -0.60439  -0.60300  -0.60006  -0.59934  -0.59308
 Alpha  occ. eigenvalues --   -0.59198  -0.58179  -0.56830  -0.55886  -0.54621
 Alpha  occ. eigenvalues --   -0.54262  -0.53921  -0.52953  -0.52597  -0.51768
 Alpha  occ. eigenvalues --   -0.51579  -0.51310  -0.51050  -0.50745  -0.50564
 Alpha  occ. eigenvalues --   -0.50440  -0.49766  -0.49423  -0.48954  -0.47712
 Alpha  occ. eigenvalues --   -0.47127  -0.46256  -0.46170  -0.45362  -0.44650
 Alpha  occ. eigenvalues --   -0.44180  -0.43719  -0.43432  -0.43100  -0.42742
 Alpha  occ. eigenvalues --   -0.42511  -0.42225  -0.42128  -0.41981  -0.41365
 Alpha  occ. eigenvalues --   -0.41310  -0.41171  -0.40937  -0.40403  -0.40339
 Alpha  occ. eigenvalues --   -0.40129  -0.40010  -0.39866  -0.39812  -0.39618
 Alpha  occ. eigenvalues --   -0.39335  -0.39182  -0.39073  -0.38671  -0.38297
 Alpha  occ. eigenvalues --   -0.38115  -0.38027  -0.37841  -0.37622  -0.37453
 Alpha  occ. eigenvalues --   -0.37264  -0.36940  -0.36780  -0.36687  -0.36443
 Alpha  occ. eigenvalues --   -0.36237  -0.36113  -0.35896  -0.35691  -0.35281
 Alpha  occ. eigenvalues --   -0.35127  -0.34986  -0.34836  -0.34721  -0.34532
 Alpha  occ. eigenvalues --   -0.34387  -0.34307  -0.34223  -0.34082  -0.33858
 Alpha  occ. eigenvalues --   -0.33713  -0.33549  -0.33465  -0.33435  -0.33154
 Alpha  occ. eigenvalues --   -0.33006  -0.32736  -0.32643  -0.32556  -0.32322
 Alpha  occ. eigenvalues --   -0.32014  -0.31871  -0.31707  -0.31420  -0.31350
 Alpha  occ. eigenvalues --   -0.31078  -0.30955  -0.30775  -0.30644  -0.30589
 Alpha  occ. eigenvalues --   -0.30507  -0.30420  -0.30178  -0.29804  -0.29750
 Alpha  occ. eigenvalues --   -0.29540  -0.29411  -0.29217  -0.29151  -0.29019
 Alpha  occ. eigenvalues --   -0.28837  -0.28632  -0.28398  -0.27988  -0.27837
 Alpha  occ. eigenvalues --   -0.27737  -0.27657  -0.27428  -0.27103  -0.26829
 Alpha  occ. eigenvalues --   -0.26773  -0.26606  -0.26357  -0.25788  -0.25259
 Alpha  occ. eigenvalues --   -0.25251  -0.24705  -0.24302  -0.23897  -0.23066
 Alpha  occ. eigenvalues --   -0.22979  -0.22420  -0.21997  -0.21054  -0.20746
 Alpha  occ. eigenvalues --   -0.20057  -0.19429  -0.18858  -0.17605  -0.17106
 Alpha  occ. eigenvalues --   -0.16225
 Alpha virt. eigenvalues --   -0.11690  -0.06445  -0.05939  -0.04195  -0.04035
 Alpha virt. eigenvalues --   -0.02442  -0.02278  -0.01780  -0.01043   0.00827
 Alpha virt. eigenvalues --    0.01265   0.01929   0.02007   0.02538   0.02738

 Mulliken charges:
               1
     1  Mg   0.675685
     2  C    0.073162
     3  C   -0.065868
     4  C   -0.024310
     5  C   -0.097403
     6  N   -0.225840
     7  C   -0.119596
     8  C   -0.022768
     9  C   -0.013581
    10  C   -0.006063
    11  C    0.128405
    12  C    0.155430
    13  C    0.140930
    14  C    0.083509
    15  O   -0.226567
    16  O   -0.228820
    17  N   -0.240296
    18  C    0.153254
    19  C   -0.108285
    20  C    0.094109
    21  C    0.092711
    22  C    0.166755
    23  C   -0.101688
    24  O   -0.148785
    25  C    0.128838
    26  N   -0.176166
    27  C   -0.069568
    28  C    0.035135
    29  C    0.039332
    30  C    0.043837
    31  C    0.159516
    32  C    0.078352
    33  C    0.042004
    34  N   -0.313498
    35  C    0.135976
    36  C   -0.154628
    37  C    0.105249
    38  C    0.084558
    39  C    0.175473
    40  C   -0.076842
    41  O   -0.154353
    42  C    0.067036
    43  C    0.080118
    44  O   -0.235354
    45  O   -0.187243
    46  C    0.265103
    47  C    0.285574
    48  C   -0.130505
    49  C   -0.118838
    50  C    0.140662
    51  C    0.176994
    52  C    0.038140
    53  C    0.092682
    54  C   -0.075707
    55  C    0.075838
    56  C    0.145450
    57  C    0.045201
    58  C    0.105062
    59  C   -0.029454
    60  C    0.109418
    61  C    0.118420
    62  C    0.056045
    63  C    0.128225
    64  C   -0.064124
    65  C    0.086714
    66  C    0.083569
    67  H   -0.068283
    68  H   -0.050554
    69  H   -0.074000
    70  H   -0.013243
    71  H   -0.034258
    72  H    0.009719
    73  H   -0.023137
    74  H   -0.008603
    75  H   -0.027450
    76  H    0.008638
    77  H   -0.025616
    78  H    0.018116
    79  H    0.007996
    80  H   -0.029037
    81  H   -0.012430
    82  H    0.000321
    83  H   -0.022063
    84  H    0.013439
    85  H   -0.023899
    86  H   -0.036736
    87  H    0.010164
    88  H   -0.027883
    89  H   -0.004750
    90  H   -0.000966
    91  H   -0.033093
    92  H   -0.015658
    93  H   -0.004540
    94  H   -0.005978
    95  H   -0.013570
    96  H    0.009221
    97  H    0.023804
    98  H    0.004893
    99  H    0.000591
   100  H    0.010485
   101  H   -0.025694
   102  H    0.009124
   103  H    0.015143
   104  H   -0.031555
   105  H   -0.010585
   106  H   -0.009961
   107  H   -0.011558
   108  H   -0.022934
   109  H   -0.035978
   110  H   -0.036260
   111  H   -0.026151
   112  H   -0.047542
   113  H   -0.031357
   114  H   -0.027167
   115  H   -0.013281
   116  H   -0.011864
   117  H   -0.011648
   118  H   -0.036758
   119  H   -0.032083
   120  H   -0.017747
   121  H   -0.038245
   122  H   -0.044294
   123  H   -0.036258
   124  H   -0.042710
   125  H   -0.029824
   126  H   -0.024807
   127  H   -0.018997
   128  H   -0.054704
   129  H   -0.041750
   130  H   -0.034316
   131  H   -0.049562
   132  H   -0.028929
   133  H   -0.035367
   134  H   -0.030739
   135  H   -0.019429
   136  H   -0.007777
   137  H   -0.028249
   138  H   -0.021918
   139  H   -0.015061
   140  H   -0.019170
 Sum of Mulliken charges =  -0.00000

 Dipole moment (field-independent basis, Debye):
    X=              5.7922    Y=              3.8958    Z=             -1.8243  Tot=              7.2149
 Quadrupole moment (field-independent basis, Debye-Ang):
   XX=           -375.0959   YY=           -448.7738   ZZ=           -403.8633
   XY=            -35.3118   XZ=              2.1241   YZ=              0.2776

 Normal termination of Gaussian 16 at Sat Apr 30 15:51:18 2022.
