 Gaussian 16, Revision A.03,
 Gaussian 16:  ES64L-G16RevA.03 25-Dec-2016

 -----------------------------------
 #p cam-b3lyp/Def2SVP td=(nstates=5)
 -----------------------------------

 -------------------------------------------------------
 step_801_chromophore_15 TDDFT with cam-b3lyp functional
 -------------------------------------------------------
 Symbolic Z-matrix:
 Charge =  0 Multiplicity = 1

                         Standard orientation:
 ---------------------------------------------------------------------
 Center     Atomic      Atomic             Coordinates (Angstroms)
 Number     Number       Type             X           Y           Z
 ---------------------------------------------------------------------
      1         12           0       -4.758174    0.881966    0.103036
      2          6           0       -4.052475   -2.404807    0.594077
      3          6           0       -1.364702    1.538565   -0.360093
      4          6           0       -5.341854    4.190024    0.163200
      5          6           0       -8.068655    0.299907    0.798454
      6          7           0       -2.920928   -0.286112    0.073567
      7          6           0       -2.923303   -1.683757    0.285850
      8          6           0       -1.511185   -2.261298   -0.204749
      9          6           0       -0.639126   -0.974129    0.045823
     10          6           0       -1.684625    0.195738   -0.054070
     11          6           0        0.128513   -0.974589    1.426042
     12          6           0       -1.596777   -2.766960   -1.645079
     13          6           0       -0.572010   -3.870214   -1.996008
     14          6           0        0.640862   -4.144137   -1.099406
     15          8           0        0.586302   -5.009003   -0.199081
     16          8           0        1.694259   -3.390574   -1.441900
     17          7           0       -3.533442    2.657325   -0.116359
     18          6           0       -2.180071    2.667312   -0.347277
     19          6           0       -1.796397    4.073502   -0.454758
     20          6           0       -2.951334    4.817192   -0.241067
     21          6           0       -3.966292    3.920517   -0.003622
     22          6           0       -0.385918    4.411268   -0.785467
     23          6           0       -3.117233    6.288701   -0.270657
     24          8           0       -4.079465    6.893469    0.162903
     25          6           0       -1.907478    7.061092   -0.614485
     26          7           0       -6.439394    2.089281    0.560348
     27          6           0       -6.447592    3.392209    0.403009
     28          6           0       -7.837143    4.022533    0.429228
     29          6           0       -8.706849    2.726706    0.408650
     30          6           0       -7.694607    1.587667    0.598785
     31          6           0       -8.043570    4.955369    1.597950
     32          6           0       -9.457072    2.375374   -0.841539
     33          6           0      -10.994223    2.081876   -0.745061
     34          7           0       -5.910443   -0.714149    0.677081
     35          6           0       -7.280175   -0.850021    0.906188
     36          6           0       -7.625449   -2.215935    1.009518
     37          6           0       -6.330127   -2.848513    1.034337
     38          6           0       -5.336393   -1.950727    0.762871
     39          6           0       -8.967979   -2.836702    1.050828
     40          6           0       -5.738734   -4.119775    1.107117
     41          8           0       -6.177979   -5.257779    1.315488
     42          6           0       -4.217141   -3.878791    1.005226
     43          6           0       -3.570021   -4.951281    0.165080
     44          8           0       -3.997917   -5.340950   -0.948460
     45          8           0       -2.576450   -5.508004    0.781377
     46          6           0       -1.860682   -6.543825    0.089639
     47          6           0        2.914821   -3.688778   -0.755797
     48          6           0        4.092809   -3.065038   -1.537158
     49          6           0        5.391047   -3.360722   -1.358627
     50          6           0        5.806053   -4.234642   -0.218663
     51          6           0        6.559507   -2.830442   -2.237125
     52          6           0        7.002997   -1.426636   -1.781091
     53          6           0        6.778003   -0.255404   -2.756455
     54          6           0        6.610193    1.140576   -2.074682
     55          6           0        5.245482    1.759744   -2.528284
     56          6           0        7.743803    2.119060   -2.497584
     57          6           0        8.609910    2.393576   -1.234627
     58          6           0       10.073486    2.028833   -1.506024
     59          6           0       10.927480    2.339843   -0.329146
     60          6           0       11.476893    3.753241   -0.464887
     61          6           0       11.950474    1.303294   -0.054483
     62          6           0       12.569538    1.527133    1.335091
     63          6           0       12.220258    0.375869    2.284699
     64          6           0       12.266790    0.661798    3.777053
     65          6           0       13.162266   -0.361184    4.535203
     66          6           0       10.878600    0.612584    4.464535
     67          1           0       -0.279867    1.623325   -0.453003
     68          1           0       -5.697329    5.220024    0.229196
     69          1           0       -9.144590    0.135157    0.881965
     70          1           0       -1.085712   -2.989491    0.485710
     71          1           0        0.057924   -0.884306   -0.787460
     72          1           0       -0.204304   -1.623415    2.234901
     73          1           0        0.080789    0.019017    1.872646
     74          1           0        1.196576   -1.076975    1.232752
     75          1           0       -1.463035   -1.925078   -2.323535
     76          1           0       -2.601113   -3.148307   -1.826208
     77          1           0       -0.146194   -3.486115   -2.922730
     78          1           0       -1.091273   -4.803179   -2.218502
     79          1           0       -0.249651    5.073668   -1.641257
     80          1           0        0.317423    3.578949   -0.803756
     81          1           0        0.151502    4.893266    0.030609
     82          1           0       -1.067479    6.760231    0.010288
     83          1           0       -2.151680    8.065673   -0.269969
     84          1           0       -1.633919    7.128926   -1.668133
     85          1           0       -7.994927    4.519305   -0.528106
     86          1           0       -9.449435    2.782704    1.205700
     87          1           0       -7.131135    4.956328    2.194740
     88          1           0       -8.821924    4.652151    2.298971
     89          1           0       -8.502967    5.886974    1.268421
     90          1           0       -9.120956    1.522235   -1.431305
     91          1           0       -9.388455    3.278076   -1.449194
     92          1           0      -11.373068    2.059188    0.276858
     93          1           0      -11.326457    1.127472   -1.153710
     94          1           0      -11.473434    2.912368   -1.261885
     95          1           0       -9.803014   -2.259911    0.652100
     96          1           0       -9.229045   -3.076542    2.081072
     97          1           0       -8.770365   -3.737624    0.469007
     98          1           0       -3.823014   -3.909648    2.021369
     99          1           0       -2.361921   -7.453536   -0.242310
    100          1           0       -1.029615   -6.863295    0.718143
    101          1           0       -1.475331   -6.156946   -0.854165
    102          1           0        2.993858   -4.773608   -0.690847
    103          1           0        2.899010   -3.263637    0.247485
    104          1           0        3.781011   -2.481264   -2.402452
    105          1           0        6.838256   -4.132378    0.117275
    106          1           0        5.810925   -5.293167   -0.478368
    107          1           0        5.083562   -4.295217    0.595585
    108          1           0        6.277676   -2.690799   -3.281293
    109          1           0        7.418832   -3.489047   -2.106898
    110          1           0        8.082903   -1.482431   -1.637979
    111          1           0        6.623934   -1.186664   -0.788143
    112          1           0        5.867208   -0.477771   -3.312909
    113          1           0        7.536889   -0.370610   -3.531039
    114          1           0        6.527468    0.936653   -1.007605
    115          1           0        5.534875    1.949216   -3.562353
    116          1           0        4.976693    2.708459   -2.062377
    117          1           0        4.437464    1.031506   -2.455731
    118          1           0        7.331598    3.048814   -2.890092
    119          1           0        8.265778    1.614779   -3.311448
    120          1           0        8.269276    1.895451   -0.325878
    121          1           0        8.570621    3.478627   -1.135184
    122          1           0       10.298378    2.749114   -2.293519
    123          1           0       10.150658    1.039003   -1.956031
    124          1           0       10.329829    2.420291    0.578788
    125          1           0       12.563329    3.799273   -0.543422
    126          1           0       11.331284    4.385244    0.410807
    127          1           0       11.068047    4.271834   -1.332820
    128          1           0       12.743779    1.413979   -0.793928
    129          1           0       11.678879    0.262276   -0.227247
    130          1           0       12.567901    2.498635    1.829502
    131          1           0       13.623550    1.427107    1.075424
    132          1           0       12.895923   -0.418355    1.966606
    133          1           0       11.195619    0.109454    2.025132
    134          1           0       12.537858    1.693714    3.998054
    135          1           0       14.090394   -0.691955    4.070606
    136          1           0       12.615037   -1.214726    4.935274
    137          1           0       13.540151    0.172332    5.406421
    138          1           0       10.569196    1.654228    4.544528
    139          1           0       10.930260    0.128396    5.439628
    140          1           0       10.071068    0.130527    3.912844
 ---------------------------------------------------------------------

 SCF Done:  E(RCAM-B3LYP) =  -3007.16267223     A.U. after   17 cycles

 Excitation energies and oscillator strengths:

 Excited State   1:      Singlet-A      1.8426 eV  672.88 nm  f=0.3946  <S**2>=0.000
     245 -> 248        0.17264
     246 -> 247        0.68637
 This state for optimization and/or second-order correction.
 Total Energy, E(TD-HF/TD-DFT) =  -3007.09495823
 Copying the excited state density for this state as the 1-particle RhoCI density.

 Excited State   2:      Singlet-A      2.2245 eV  557.35 nm  f=0.1581  <S**2>=0.000
     245 -> 247        0.65738
     246 -> 248       -0.23909

 Excited State   3:      Singlet-A      3.1870 eV  389.04 nm  f=0.0079  <S**2>=0.000
     241 -> 247       -0.16959
     244 -> 247        0.67152

 Excited State   4:      Singlet-A      3.3957 eV  365.12 nm  f=0.0025  <S**2>=0.000
     243 -> 247        0.58663
     243 -> 248        0.13117
     243 -> 249        0.22123
     243 -> 250        0.11476
     243 -> 251       -0.20192

 Excited State   5:      Singlet-A      3.4918 eV  355.08 nm  f=0.0045  <S**2>=0.000
     240 -> 247        0.24883
     241 -> 247        0.56665
     244 -> 247        0.13163
     246 -> 248        0.25392

 The electronic state is 1-A.
 Alpha  occ. eigenvalues --  -46.88251 -19.27359 -19.25326 -19.20458 -19.19369
 Alpha  occ. eigenvalues --  -19.17415 -19.16709 -14.42400 -14.41319 -14.39212
 Alpha  occ. eigenvalues --  -14.37936 -10.40559 -10.37906 -10.34974 -10.33204
 Alpha  occ. eigenvalues --  -10.32555 -10.31717 -10.30943 -10.30601 -10.30313
 Alpha  occ. eigenvalues --  -10.29826 -10.29755 -10.29538 -10.29387 -10.28703
 Alpha  occ. eigenvalues --  -10.28195 -10.28148 -10.28071 -10.27527 -10.27512
 Alpha  occ. eigenvalues --  -10.27377 -10.27359 -10.27301 -10.27245 -10.27168
 Alpha  occ. eigenvalues --  -10.26965 -10.26917 -10.26880 -10.26686 -10.26609
 Alpha  occ. eigenvalues --  -10.26590 -10.26485 -10.26474 -10.26263 -10.25899
 Alpha  occ. eigenvalues --  -10.25794 -10.25776 -10.25646 -10.25639 -10.25597
 Alpha  occ. eigenvalues --  -10.25530 -10.25410 -10.25357 -10.25350 -10.25110
 Alpha  occ. eigenvalues --  -10.25108 -10.24984 -10.24724 -10.24538 -10.24503
 Alpha  occ. eigenvalues --  -10.24467 -10.24443 -10.24428 -10.24425 -10.24197
 Alpha  occ. eigenvalues --  -10.23553  -3.16786  -1.91697  -1.91237  -1.91082
 Alpha  occ. eigenvalues --   -1.18860  -1.17907  -1.11092  -1.08345  -1.07221
 Alpha  occ. eigenvalues --   -1.05267  -1.04843  -1.04449  -1.03236  -1.02116
 Alpha  occ. eigenvalues --   -0.92802  -0.91459  -0.90992  -0.89684  -0.89513
 Alpha  occ. eigenvalues --   -0.89229  -0.88973  -0.88308  -0.88248  -0.87651
 Alpha  occ. eigenvalues --   -0.86129  -0.85836  -0.84959  -0.83993  -0.83736
 Alpha  occ. eigenvalues --   -0.83198  -0.82453  -0.81928  -0.81525  -0.80958
 Alpha  occ. eigenvalues --   -0.80541  -0.79537  -0.78029  -0.77411  -0.76316
 Alpha  occ. eigenvalues --   -0.75783  -0.75604  -0.75346  -0.75274  -0.74596
 Alpha  occ. eigenvalues --   -0.74350  -0.73090  -0.71793  -0.70729  -0.69224
 Alpha  occ. eigenvalues --   -0.68927  -0.68513  -0.67621  -0.66991  -0.65937
 Alpha  occ. eigenvalues --   -0.65604  -0.65475  -0.65285  -0.64869  -0.64728
 Alpha  occ. eigenvalues --   -0.64328  -0.63763  -0.63406  -0.62623  -0.61755
 Alpha  occ. eigenvalues --   -0.60624  -0.59890  -0.59624  -0.58792  -0.57927
 Alpha  occ. eigenvalues --   -0.57501  -0.57045  -0.56938  -0.56344  -0.56019
 Alpha  occ. eigenvalues --   -0.55488  -0.55430  -0.55268  -0.55037  -0.54204
 Alpha  occ. eigenvalues --   -0.54128  -0.54035  -0.53630  -0.53582  -0.53332
 Alpha  occ. eigenvalues --   -0.52928  -0.52751  -0.52545  -0.52291  -0.52169
 Alpha  occ. eigenvalues --   -0.52059  -0.51706  -0.51520  -0.51037  -0.50858
 Alpha  occ. eigenvalues --   -0.50658  -0.50389  -0.50369  -0.50043  -0.49824
 Alpha  occ. eigenvalues --   -0.49738  -0.49438  -0.49039  -0.48912  -0.48693
 Alpha  occ. eigenvalues --   -0.48462  -0.48304  -0.48115  -0.47933  -0.47626
 Alpha  occ. eigenvalues --   -0.47522  -0.47156  -0.46993  -0.46692  -0.46433
 Alpha  occ. eigenvalues --   -0.46156  -0.46106  -0.45975  -0.45867  -0.45836
 Alpha  occ. eigenvalues --   -0.45546  -0.45375  -0.45189  -0.45075  -0.44854
 Alpha  occ. eigenvalues --   -0.44628  -0.44613  -0.44332  -0.44102  -0.43966
 Alpha  occ. eigenvalues --   -0.43754  -0.43559  -0.43224  -0.43064  -0.42827
 Alpha  occ. eigenvalues --   -0.42761  -0.42602  -0.42351  -0.42225  -0.42061
 Alpha  occ. eigenvalues --   -0.41903  -0.41792  -0.41552  -0.41081  -0.40916
 Alpha  occ. eigenvalues --   -0.40895  -0.40708  -0.40524  -0.40375  -0.40210
 Alpha  occ. eigenvalues --   -0.40056  -0.39732  -0.39384  -0.39183  -0.38667
 Alpha  occ. eigenvalues --   -0.38646  -0.38557  -0.38381  -0.38102  -0.37891
 Alpha  occ. eigenvalues --   -0.37515  -0.37476  -0.37153  -0.37102  -0.36157
 Alpha  occ. eigenvalues --   -0.35846  -0.35326  -0.35160  -0.34134  -0.33902
 Alpha  occ. eigenvalues --   -0.33738  -0.33484  -0.32510  -0.31667  -0.31522
 Alpha  occ. eigenvalues --   -0.30629  -0.30453  -0.29267  -0.28270  -0.24063
 Alpha  occ. eigenvalues --   -0.21757
 Alpha virt. eigenvalues --   -0.08854  -0.01191   0.00555   0.02430   0.03101
 Alpha virt. eigenvalues --    0.03708   0.05215   0.05857   0.06402   0.06613
 Alpha virt. eigenvalues --    0.07936   0.08360   0.08455   0.08870   0.09050

 Mulliken charges:
               1
     1  Mg   0.808776
     2  C    0.037779
     3  C   -0.085801
     4  C   -0.044430
     5  C   -0.097076
     6  N   -0.295292
     7  C   -0.070735
     8  C   -0.075439
     9  C   -0.066202
    10  C    0.019049
    11  C    0.071529
    12  C    0.103498
    13  C    0.071843
    14  C    0.157806
    15  O   -0.267692
    16  O   -0.292271
    17  N   -0.330550
    18  C    0.168006
    19  C   -0.110021
    20  C    0.018952
    21  C    0.125069
    22  C    0.103021
    23  C   -0.012265
    24  O   -0.185781
    25  C    0.038552
    26  N   -0.251177
    27  C   -0.042837
    28  C   -0.022318
    29  C   -0.010957
    30  C    0.051746
    31  C    0.093216
    32  C    0.019093
    33  C   -0.016482
    34  N   -0.401920
    35  C    0.134906
    36  C   -0.152093
    37  C    0.020834
    38  C    0.115846
    39  C    0.125565
    40  C    0.023980
    41  O   -0.197315
    42  C   -0.007431
    43  C    0.162824
    44  O   -0.275027
    45  O   -0.248301
    46  C    0.225052
    47  C    0.253190
    48  C   -0.143653
    49  C   -0.145791
    50  C    0.068435
    51  C    0.116839
    52  C   -0.008253
    53  C    0.041307
    54  C   -0.135843
    55  C    0.023955
    56  C    0.089232
    57  C   -0.005047
    58  C    0.050977
    59  C   -0.088956
    60  C    0.048798
    61  C    0.063632
    62  C   -0.004283
    63  C    0.076318
    64  C   -0.127321
    65  C    0.025972
    66  C    0.026850
    67  H   -0.033019
    68  H   -0.010428
    69  H   -0.038998
    70  H    0.021721
    71  H    0.002552
    72  H    0.036205
    73  H    0.003770
    74  H    0.014922
    75  H    0.002928
    76  H    0.041878
    77  H    0.010407
    78  H    0.049995
    79  H    0.036743
    80  H    0.003778
    81  H    0.018776
    82  H    0.029162
    83  H    0.016957
    84  H    0.044050
    85  H    0.012603
    86  H   -0.001324
    87  H    0.036090
    88  H    0.000706
    89  H    0.021118
    90  H    0.029394
    91  H   -0.005501
    92  H    0.006197
    93  H    0.018987
    94  H    0.016878
    95  H    0.009045
    96  H    0.033296
    97  H    0.046823
    98  H    0.048616
    99  H    0.026501
   100  H    0.036089
   101  H   -0.008609
   102  H    0.038630
   103  H    0.038693
   104  H    0.001527
   105  H    0.015796
   106  H    0.017394
   107  H    0.013711
   108  H    0.007770
   109  H   -0.002843
   110  H   -0.009032
   111  H    0.001247
   112  H   -0.019699
   113  H   -0.002979
   114  H    0.003111
   115  H    0.008118
   116  H    0.011800
   117  H    0.010982
   118  H   -0.005997
   119  H   -0.003551
   120  H    0.008170
   121  H   -0.009830
   122  H   -0.015033
   123  H   -0.009199
   124  H   -0.011218
   125  H   -0.003877
   126  H    0.000265
   127  H    0.005609
   128  H   -0.023322
   129  H   -0.010525
   130  H   -0.005616
   131  H   -0.018388
   132  H   -0.000228
   133  H   -0.008519
   134  H    0.000903
   135  H    0.005424
   136  H    0.015476
   137  H   -0.002890
   138  H    0.001660
   139  H    0.009577
   140  H    0.004691
 Sum of Mulliken charges =  -0.00000

 Dipole moment (field-independent basis, Debye):
    X=              6.9294    Y=              5.3459    Z=             -2.1446  Tot=              9.0108
 Quadrupole moment (field-independent basis, Debye-Ang):
   XX=           -380.7164   YY=           -444.4258   ZZ=           -403.7895
   XY=            -40.9065   XZ=              3.1613   YZ=              0.0698

 Normal termination of Gaussian 16 at Sat Apr 30 14:54:54 2022.
