 Gaussian 16, Revision A.03,
 Gaussian 16:  ES64L-G16RevA.03 25-Dec-2016

 ---------------------------------
 #p PBE1PBE/Def2SVP td=(nstates=5)
 ---------------------------------

 -----------------------------------------------------
 step_801_chromophore_15 TDDFT with PBE1PBE functional
 -----------------------------------------------------
 Symbolic Z-matrix:
 Charge =  0 Multiplicity = 1

                         Standard orientation:
 ---------------------------------------------------------------------
 Center     Atomic      Atomic             Coordinates (Angstroms)
 Number     Number       Type             X           Y           Z
 ---------------------------------------------------------------------
      1         12           0       -4.758174    0.881966    0.103036
      2          6           0       -4.052475   -2.404807    0.594077
      3          6           0       -1.364702    1.538565   -0.360093
      4          6           0       -5.341854    4.190024    0.163200
      5          6           0       -8.068655    0.299907    0.798454
      6          7           0       -2.920928   -0.286112    0.073567
      7          6           0       -2.923303   -1.683757    0.285850
      8          6           0       -1.511185   -2.261298   -0.204749
      9          6           0       -0.639126   -0.974129    0.045823
     10          6           0       -1.684625    0.195738   -0.054070
     11          6           0        0.128513   -0.974589    1.426042
     12          6           0       -1.596777   -2.766960   -1.645079
     13          6           0       -0.572010   -3.870214   -1.996008
     14          6           0        0.640862   -4.144137   -1.099406
     15          8           0        0.586302   -5.009003   -0.199081
     16          8           0        1.694259   -3.390574   -1.441900
     17          7           0       -3.533442    2.657325   -0.116359
     18          6           0       -2.180071    2.667312   -0.347277
     19          6           0       -1.796397    4.073502   -0.454758
     20          6           0       -2.951334    4.817192   -0.241067
     21          6           0       -3.966292    3.920517   -0.003622
     22          6           0       -0.385918    4.411268   -0.785467
     23          6           0       -3.117233    6.288701   -0.270657
     24          8           0       -4.079465    6.893469    0.162903
     25          6           0       -1.907478    7.061092   -0.614485
     26          7           0       -6.439394    2.089281    0.560348
     27          6           0       -6.447592    3.392209    0.403009
     28          6           0       -7.837143    4.022533    0.429228
     29          6           0       -8.706849    2.726706    0.408650
     30          6           0       -7.694607    1.587667    0.598785
     31          6           0       -8.043570    4.955369    1.597950
     32          6           0       -9.457072    2.375374   -0.841539
     33          6           0      -10.994223    2.081876   -0.745061
     34          7           0       -5.910443   -0.714149    0.677081
     35          6           0       -7.280175   -0.850021    0.906188
     36          6           0       -7.625449   -2.215935    1.009518
     37          6           0       -6.330127   -2.848513    1.034337
     38          6           0       -5.336393   -1.950727    0.762871
     39          6           0       -8.967979   -2.836702    1.050828
     40          6           0       -5.738734   -4.119775    1.107117
     41          8           0       -6.177979   -5.257779    1.315488
     42          6           0       -4.217141   -3.878791    1.005226
     43          6           0       -3.570021   -4.951281    0.165080
     44          8           0       -3.997917   -5.340950   -0.948460
     45          8           0       -2.576450   -5.508004    0.781377
     46          6           0       -1.860682   -6.543825    0.089639
     47          6           0        2.914821   -3.688778   -0.755797
     48          6           0        4.092809   -3.065038   -1.537158
     49          6           0        5.391047   -3.360722   -1.358627
     50          6           0        5.806053   -4.234642   -0.218663
     51          6           0        6.559507   -2.830442   -2.237125
     52          6           0        7.002997   -1.426636   -1.781091
     53          6           0        6.778003   -0.255404   -2.756455
     54          6           0        6.610193    1.140576   -2.074682
     55          6           0        5.245482    1.759744   -2.528284
     56          6           0        7.743803    2.119060   -2.497584
     57          6           0        8.609910    2.393576   -1.234627
     58          6           0       10.073486    2.028833   -1.506024
     59          6           0       10.927480    2.339843   -0.329146
     60          6           0       11.476893    3.753241   -0.464887
     61          6           0       11.950474    1.303294   -0.054483
     62          6           0       12.569538    1.527133    1.335091
     63          6           0       12.220258    0.375869    2.284699
     64          6           0       12.266790    0.661798    3.777053
     65          6           0       13.162266   -0.361184    4.535203
     66          6           0       10.878600    0.612584    4.464535
     67          1           0       -0.279867    1.623325   -0.453003
     68          1           0       -5.697329    5.220024    0.229196
     69          1           0       -9.144590    0.135157    0.881965
     70          1           0       -1.085712   -2.989491    0.485710
     71          1           0        0.057924   -0.884306   -0.787460
     72          1           0       -0.204304   -1.623415    2.234901
     73          1           0        0.080789    0.019017    1.872646
     74          1           0        1.196576   -1.076975    1.232752
     75          1           0       -1.463035   -1.925078   -2.323535
     76          1           0       -2.601113   -3.148307   -1.826208
     77          1           0       -0.146194   -3.486115   -2.922730
     78          1           0       -1.091273   -4.803179   -2.218502
     79          1           0       -0.249651    5.073668   -1.641257
     80          1           0        0.317423    3.578949   -0.803756
     81          1           0        0.151502    4.893266    0.030609
     82          1           0       -1.067479    6.760231    0.010288
     83          1           0       -2.151680    8.065673   -0.269969
     84          1           0       -1.633919    7.128926   -1.668133
     85          1           0       -7.994927    4.519305   -0.528106
     86          1           0       -9.449435    2.782704    1.205700
     87          1           0       -7.131135    4.956328    2.194740
     88          1           0       -8.821924    4.652151    2.298971
     89          1           0       -8.502967    5.886974    1.268421
     90          1           0       -9.120956    1.522235   -1.431305
     91          1           0       -9.388455    3.278076   -1.449194
     92          1           0      -11.373068    2.059188    0.276858
     93          1           0      -11.326457    1.127472   -1.153710
     94          1           0      -11.473434    2.912368   -1.261885
     95          1           0       -9.803014   -2.259911    0.652100
     96          1           0       -9.229045   -3.076542    2.081072
     97          1           0       -8.770365   -3.737624    0.469007
     98          1           0       -3.823014   -3.909648    2.021369
     99          1           0       -2.361921   -7.453536   -0.242310
    100          1           0       -1.029615   -6.863295    0.718143
    101          1           0       -1.475331   -6.156946   -0.854165
    102          1           0        2.993858   -4.773608   -0.690847
    103          1           0        2.899010   -3.263637    0.247485
    104          1           0        3.781011   -2.481264   -2.402452
    105          1           0        6.838256   -4.132378    0.117275
    106          1           0        5.810925   -5.293167   -0.478368
    107          1           0        5.083562   -4.295217    0.595585
    108          1           0        6.277676   -2.690799   -3.281293
    109          1           0        7.418832   -3.489047   -2.106898
    110          1           0        8.082903   -1.482431   -1.637979
    111          1           0        6.623934   -1.186664   -0.788143
    112          1           0        5.867208   -0.477771   -3.312909
    113          1           0        7.536889   -0.370610   -3.531039
    114          1           0        6.527468    0.936653   -1.007605
    115          1           0        5.534875    1.949216   -3.562353
    116          1           0        4.976693    2.708459   -2.062377
    117          1           0        4.437464    1.031506   -2.455731
    118          1           0        7.331598    3.048814   -2.890092
    119          1           0        8.265778    1.614779   -3.311448
    120          1           0        8.269276    1.895451   -0.325878
    121          1           0        8.570621    3.478627   -1.135184
    122          1           0       10.298378    2.749114   -2.293519
    123          1           0       10.150658    1.039003   -1.956031
    124          1           0       10.329829    2.420291    0.578788
    125          1           0       12.563329    3.799273   -0.543422
    126          1           0       11.331284    4.385244    0.410807
    127          1           0       11.068047    4.271834   -1.332820
    128          1           0       12.743779    1.413979   -0.793928
    129          1           0       11.678879    0.262276   -0.227247
    130          1           0       12.567901    2.498635    1.829502
    131          1           0       13.623550    1.427107    1.075424
    132          1           0       12.895923   -0.418355    1.966606
    133          1           0       11.195619    0.109454    2.025132
    134          1           0       12.537858    1.693714    3.998054
    135          1           0       14.090394   -0.691955    4.070606
    136          1           0       12.615037   -1.214726    4.935274
    137          1           0       13.540151    0.172332    5.406421
    138          1           0       10.569196    1.654228    4.544528
    139          1           0       10.930260    0.128396    5.439628
    140          1           0       10.071068    0.130527    3.912844
 ---------------------------------------------------------------------

 SCF Done:  E(RPBE1PBE) =  -3005.34984376     A.U. after   16 cycles

 Excitation energies and oscillator strengths:

 Excited State   1:      Singlet-A      1.9479 eV  636.50 nm  f=0.3783  <S**2>=0.000
     245 -> 248        0.17272
     246 -> 247        0.69168
     246 <- 247       -0.10176
 This state for optimization and/or second-order correction.
 Total Energy, E(TD-HF/TD-DFT) =  -3005.27825924
 Copying the excited state density for this state as the 1-particle RhoCI density.

 Excited State   2:      Singlet-A      2.2145 eV  559.88 nm  f=0.1441  <S**2>=0.000
     245 -> 247        0.66520
     246 -> 248       -0.21485

 Excited State   3:      Singlet-A      2.7341 eV  453.48 nm  f=0.0020  <S**2>=0.000
     243 -> 247        0.64198
     243 -> 249        0.11391
     244 -> 247       -0.23171

 Excited State   4:      Singlet-A      2.7959 eV  443.45 nm  f=0.0107  <S**2>=0.000
     243 -> 247        0.23374
     244 -> 247        0.65423

 Excited State   5:      Singlet-A      3.0869 eV  401.65 nm  f=0.0011  <S**2>=0.000
     240 -> 247        0.36218
     240 -> 249       -0.11970
     241 -> 247        0.57389
     241 -> 249       -0.11892

 The electronic state is 1-A.
 Alpha  occ. eigenvalues --  -46.91629 -19.28006 -19.26020 -19.20775 -19.19274
 Alpha  occ. eigenvalues --  -19.17826 -19.17281 -14.41868 -14.40806 -14.38717
 Alpha  occ. eigenvalues --  -14.37818 -10.37622 -10.35033 -10.31775 -10.30591
 Alpha  occ. eigenvalues --  -10.29944 -10.29123 -10.28917 -10.27836 -10.27752
 Alpha  occ. eigenvalues --  -10.27518 -10.27157 -10.26995 -10.26581 -10.26400
 Alpha  occ. eigenvalues --  -10.26311 -10.25981 -10.25707 -10.25344 -10.25252
 Alpha  occ. eigenvalues --  -10.25063 -10.24998 -10.24906 -10.24863 -10.24805
 Alpha  occ. eigenvalues --  -10.24730 -10.24683 -10.24593 -10.24413 -10.24017
 Alpha  occ. eigenvalues --  -10.23969 -10.23956 -10.23853 -10.23823 -10.23555
 Alpha  occ. eigenvalues --  -10.23542 -10.23542 -10.23123 -10.23102 -10.23070
 Alpha  occ. eigenvalues --  -10.23067 -10.22969 -10.22892 -10.22681 -10.22668
 Alpha  occ. eigenvalues --  -10.22498 -10.22483 -10.22345 -10.22057 -10.21955
 Alpha  occ. eigenvalues --  -10.21948 -10.21886 -10.21847 -10.21799 -10.21709
 Alpha  occ. eigenvalues --  -10.21628  -3.13745  -1.86598  -1.86115  -1.85965
 Alpha  occ. eigenvalues --   -1.13692  -1.12830  -1.05524  -1.03184  -1.02217
 Alpha  occ. eigenvalues --   -0.99818  -0.99773  -0.98914  -0.97895  -0.96937
 Alpha  occ. eigenvalues --   -0.87380  -0.85539  -0.85105  -0.83854  -0.83816
 Alpha  occ. eigenvalues --   -0.83346  -0.83179  -0.82366  -0.82328  -0.81921
 Alpha  occ. eigenvalues --   -0.80639  -0.80104  -0.79116  -0.78247  -0.78083
 Alpha  occ. eigenvalues --   -0.77407  -0.76605  -0.76075  -0.75842  -0.75246
 Alpha  occ. eigenvalues --   -0.74677  -0.73686  -0.72289  -0.71779  -0.70487
 Alpha  occ. eigenvalues --   -0.70161  -0.69970  -0.69456  -0.69343  -0.68747
 Alpha  occ. eigenvalues --   -0.68620  -0.67640  -0.66175  -0.65053  -0.63590
 Alpha  occ. eigenvalues --   -0.63142  -0.62962  -0.62003  -0.61242  -0.60387
 Alpha  occ. eigenvalues --   -0.60062  -0.59902  -0.59456  -0.59238  -0.58909
 Alpha  occ. eigenvalues --   -0.58857  -0.57883  -0.57572  -0.57249  -0.56078
 Alpha  occ. eigenvalues --   -0.55049  -0.54351  -0.54248  -0.53361  -0.52577
 Alpha  occ. eigenvalues --   -0.52002  -0.51609  -0.51391  -0.50919  -0.50522
 Alpha  occ. eigenvalues --   -0.50065  -0.49815  -0.49710  -0.49595  -0.48796
 Alpha  occ. eigenvalues --   -0.48571  -0.48508  -0.48014  -0.47780  -0.47698
 Alpha  occ. eigenvalues --   -0.47551  -0.47260  -0.47120  -0.46888  -0.46680
 Alpha  occ. eigenvalues --   -0.46597  -0.46350  -0.46017  -0.45548  -0.45380
 Alpha  occ. eigenvalues --   -0.45200  -0.45037  -0.44857  -0.44703  -0.44389
 Alpha  occ. eigenvalues --   -0.44212  -0.43950  -0.43612  -0.43507  -0.43266
 Alpha  occ. eigenvalues --   -0.43070  -0.42927  -0.42780  -0.42594  -0.42389
 Alpha  occ. eigenvalues --   -0.41990  -0.41846  -0.41616  -0.41339  -0.41188
 Alpha  occ. eigenvalues --   -0.40951  -0.40748  -0.40690  -0.40574  -0.40501
 Alpha  occ. eigenvalues --   -0.40176  -0.40053  -0.39979  -0.39698  -0.39586
 Alpha  occ. eigenvalues --   -0.39402  -0.39319  -0.39068  -0.38869  -0.38705
 Alpha  occ. eigenvalues --   -0.38561  -0.38453  -0.37931  -0.37896  -0.37471
 Alpha  occ. eigenvalues --   -0.37391  -0.37298  -0.37096  -0.36983  -0.36836
 Alpha  occ. eigenvalues --   -0.36722  -0.36476  -0.36375  -0.35944  -0.35701
 Alpha  occ. eigenvalues --   -0.35624  -0.35565  -0.35348  -0.35267  -0.35125
 Alpha  occ. eigenvalues --   -0.34817  -0.34703  -0.34099  -0.34038  -0.33660
 Alpha  occ. eigenvalues --   -0.33458  -0.33346  -0.33317  -0.33011  -0.32681
 Alpha  occ. eigenvalues --   -0.32577  -0.32301  -0.32146  -0.31919  -0.31229
 Alpha  occ. eigenvalues --   -0.30671  -0.30219  -0.30128  -0.29391  -0.29094
 Alpha  occ. eigenvalues --   -0.28880  -0.28386  -0.27663  -0.26841  -0.26197
 Alpha  occ. eigenvalues --   -0.25960  -0.25693  -0.24348  -0.24237  -0.20935
 Alpha  occ. eigenvalues --   -0.19273
 Alpha virt. eigenvalues --   -0.11325  -0.04772  -0.03613  -0.01476  -0.00980
 Alpha virt. eigenvalues --   -0.00146   0.00725   0.01310   0.01847   0.03592
 Alpha virt. eigenvalues --    0.04199   0.04709   0.04857   0.05448   0.05697

 Mulliken charges:
               1
     1  Mg   0.955125
     2  C    0.009355
     3  C   -0.082477
     4  C   -0.028454
     5  C   -0.085794
     6  N   -0.396004
     7  C    0.012951
     8  C   -0.147245
     9  C   -0.144698
    10  C    0.062486
    11  C    0.016745
    12  C    0.056379
    13  C   -0.001969
    14  C    0.219076
    15  O   -0.298590
    16  O   -0.326134
    17  N   -0.445001
    18  C    0.191487
    19  C   -0.143116
    20  C   -0.042479
    21  C    0.161227
    22  C    0.049096
    23  C    0.046492
    24  O   -0.226902
    25  C   -0.034921
    26  N   -0.361932
    27  C   -0.011242
    28  C   -0.100841
    29  C   -0.081995
    30  C    0.075977
    31  C    0.037627
    32  C   -0.039905
    33  C   -0.084867
    34  N   -0.527713
    35  C    0.166724
    36  C   -0.167141
    37  C   -0.037558
    38  C    0.174414
    39  C    0.073055
    40  C    0.122059
    41  O   -0.241265
    42  C   -0.115205
    43  C    0.256035
    44  O   -0.310137
    45  O   -0.285019
    46  C    0.164637
    47  C    0.214390
    48  C   -0.145219
    49  C   -0.202023
    50  C    0.007469
    51  C    0.051384
    52  C   -0.066220
    53  C   -0.006829
    54  C   -0.224280
    55  C   -0.040840
    56  C    0.038896
    57  C   -0.068204
    58  C   -0.008580
    59  C   -0.179406
    60  C   -0.004108
    61  C    0.009231
    62  C   -0.067738
    63  C    0.024197
    64  C   -0.221375
    65  C   -0.037835
    66  C   -0.029765
    67  H   -0.000488
    68  H    0.021730
    69  H   -0.003799
    70  H    0.060935
    71  H    0.038450
    72  H    0.060500
    73  H    0.032490
    74  H    0.043205
    75  H    0.035815
    76  H    0.074494
    77  H    0.044874
    78  H    0.079998
    79  H    0.062710
    80  H    0.028862
    81  H    0.044462
    82  H    0.055936
    83  H    0.044134
    84  H    0.069326
    85  H    0.048867
    86  H    0.035642
    87  H    0.063638
    88  H    0.027349
    89  H    0.048048
    90  H    0.061713
    91  H    0.029980
    92  H    0.032666
    93  H    0.045627
    94  H    0.045037
    95  H    0.036941
    96  H    0.063120
    97  H    0.075219
    98  H    0.086950
    99  H    0.049862
   100  H    0.058791
   101  H    0.018200
   102  H    0.063982
   103  H    0.064973
   104  H    0.031571
   105  H    0.042622
   106  H    0.045753
   107  H    0.040523
   108  H    0.039980
   109  H    0.029798
   110  H    0.025205
   111  H    0.033336
   112  H    0.013189
   113  H    0.027935
   114  H    0.040055
   115  H    0.037129
   116  H    0.040926
   117  H    0.039238
   118  H    0.025906
   119  H    0.027621
   120  H    0.039246
   121  H    0.024764
   122  H    0.020382
   123  H    0.023046
   124  H    0.028529
   125  H    0.023525
   126  H    0.027171
   127  H    0.032048
   128  H    0.010452
   129  H    0.019961
   130  H    0.024564
   131  H    0.016500
   132  H    0.031605
   133  H    0.025097
   134  H    0.037443
   135  H    0.033230
   136  H    0.042702
   137  H    0.026212
   138  H    0.029424
   139  H    0.036423
   140  H    0.031160
 Sum of Mulliken charges =  -0.00000

 Dipole moment (field-independent basis, Debye):
    X=              6.3909    Y=              4.6971    Z=             -2.0605  Tot=              8.1947
 Quadrupole moment (field-independent basis, Debye-Ang):
   XX=           -369.9884   YY=           -442.6534   ZZ=           -401.2202
   XY=            -38.7752   XZ=              2.5213   YZ=             -0.1227

 Normal termination of Gaussian 16 at Sat Apr 30 15:11:40 2022.
