 Gaussian 16, Revision A.03,
 Gaussian 16:  ES64L-G16RevA.03 25-Dec-2016

 --------------------------------
 #p wB97XD/Def2SVP td=(nstates=5)
 --------------------------------

 ----------------------------------------------------
 step_801_chromophore_15 TDDFT with wB97XD functional
 ----------------------------------------------------
 Symbolic Z-matrix:
 Charge =  0 Multiplicity = 1

                         Standard orientation:
 ---------------------------------------------------------------------
 Center     Atomic      Atomic             Coordinates (Angstroms)
 Number     Number       Type             X           Y           Z
 ---------------------------------------------------------------------
      1         12           0       -4.758174    0.881966    0.103036
      2          6           0       -4.052475   -2.404807    0.594077
      3          6           0       -1.364702    1.538565   -0.360093
      4          6           0       -5.341854    4.190024    0.163200
      5          6           0       -8.068655    0.299907    0.798454
      6          7           0       -2.920928   -0.286112    0.073567
      7          6           0       -2.923303   -1.683757    0.285850
      8          6           0       -1.511185   -2.261298   -0.204749
      9          6           0       -0.639126   -0.974129    0.045823
     10          6           0       -1.684625    0.195738   -0.054070
     11          6           0        0.128513   -0.974589    1.426042
     12          6           0       -1.596777   -2.766960   -1.645079
     13          6           0       -0.572010   -3.870214   -1.996008
     14          6           0        0.640862   -4.144137   -1.099406
     15          8           0        0.586302   -5.009003   -0.199081
     16          8           0        1.694259   -3.390574   -1.441900
     17          7           0       -3.533442    2.657325   -0.116359
     18          6           0       -2.180071    2.667312   -0.347277
     19          6           0       -1.796397    4.073502   -0.454758
     20          6           0       -2.951334    4.817192   -0.241067
     21          6           0       -3.966292    3.920517   -0.003622
     22          6           0       -0.385918    4.411268   -0.785467
     23          6           0       -3.117233    6.288701   -0.270657
     24          8           0       -4.079465    6.893469    0.162903
     25          6           0       -1.907478    7.061092   -0.614485
     26          7           0       -6.439394    2.089281    0.560348
     27          6           0       -6.447592    3.392209    0.403009
     28          6           0       -7.837143    4.022533    0.429228
     29          6           0       -8.706849    2.726706    0.408650
     30          6           0       -7.694607    1.587667    0.598785
     31          6           0       -8.043570    4.955369    1.597950
     32          6           0       -9.457072    2.375374   -0.841539
     33          6           0      -10.994223    2.081876   -0.745061
     34          7           0       -5.910443   -0.714149    0.677081
     35          6           0       -7.280175   -0.850021    0.906188
     36          6           0       -7.625449   -2.215935    1.009518
     37          6           0       -6.330127   -2.848513    1.034337
     38          6           0       -5.336393   -1.950727    0.762871
     39          6           0       -8.967979   -2.836702    1.050828
     40          6           0       -5.738734   -4.119775    1.107117
     41          8           0       -6.177979   -5.257779    1.315488
     42          6           0       -4.217141   -3.878791    1.005226
     43          6           0       -3.570021   -4.951281    0.165080
     44          8           0       -3.997917   -5.340950   -0.948460
     45          8           0       -2.576450   -5.508004    0.781377
     46          6           0       -1.860682   -6.543825    0.089639
     47          6           0        2.914821   -3.688778   -0.755797
     48          6           0        4.092809   -3.065038   -1.537158
     49          6           0        5.391047   -3.360722   -1.358627
     50          6           0        5.806053   -4.234642   -0.218663
     51          6           0        6.559507   -2.830442   -2.237125
     52          6           0        7.002997   -1.426636   -1.781091
     53          6           0        6.778003   -0.255404   -2.756455
     54          6           0        6.610193    1.140576   -2.074682
     55          6           0        5.245482    1.759744   -2.528284
     56          6           0        7.743803    2.119060   -2.497584
     57          6           0        8.609910    2.393576   -1.234627
     58          6           0       10.073486    2.028833   -1.506024
     59          6           0       10.927480    2.339843   -0.329146
     60          6           0       11.476893    3.753241   -0.464887
     61          6           0       11.950474    1.303294   -0.054483
     62          6           0       12.569538    1.527133    1.335091
     63          6           0       12.220258    0.375869    2.284699
     64          6           0       12.266790    0.661798    3.777053
     65          6           0       13.162266   -0.361184    4.535203
     66          6           0       10.878600    0.612584    4.464535
     67          1           0       -0.279867    1.623325   -0.453003
     68          1           0       -5.697329    5.220024    0.229196
     69          1           0       -9.144590    0.135157    0.881965
     70          1           0       -1.085712   -2.989491    0.485710
     71          1           0        0.057924   -0.884306   -0.787460
     72          1           0       -0.204304   -1.623415    2.234901
     73          1           0        0.080789    0.019017    1.872646
     74          1           0        1.196576   -1.076975    1.232752
     75          1           0       -1.463035   -1.925078   -2.323535
     76          1           0       -2.601113   -3.148307   -1.826208
     77          1           0       -0.146194   -3.486115   -2.922730
     78          1           0       -1.091273   -4.803179   -2.218502
     79          1           0       -0.249651    5.073668   -1.641257
     80          1           0        0.317423    3.578949   -0.803756
     81          1           0        0.151502    4.893266    0.030609
     82          1           0       -1.067479    6.760231    0.010288
     83          1           0       -2.151680    8.065673   -0.269969
     84          1           0       -1.633919    7.128926   -1.668133
     85          1           0       -7.994927    4.519305   -0.528106
     86          1           0       -9.449435    2.782704    1.205700
     87          1           0       -7.131135    4.956328    2.194740
     88          1           0       -8.821924    4.652151    2.298971
     89          1           0       -8.502967    5.886974    1.268421
     90          1           0       -9.120956    1.522235   -1.431305
     91          1           0       -9.388455    3.278076   -1.449194
     92          1           0      -11.373068    2.059188    0.276858
     93          1           0      -11.326457    1.127472   -1.153710
     94          1           0      -11.473434    2.912368   -1.261885
     95          1           0       -9.803014   -2.259911    0.652100
     96          1           0       -9.229045   -3.076542    2.081072
     97          1           0       -8.770365   -3.737624    0.469007
     98          1           0       -3.823014   -3.909648    2.021369
     99          1           0       -2.361921   -7.453536   -0.242310
    100          1           0       -1.029615   -6.863295    0.718143
    101          1           0       -1.475331   -6.156946   -0.854165
    102          1           0        2.993858   -4.773608   -0.690847
    103          1           0        2.899010   -3.263637    0.247485
    104          1           0        3.781011   -2.481264   -2.402452
    105          1           0        6.838256   -4.132378    0.117275
    106          1           0        5.810925   -5.293167   -0.478368
    107          1           0        5.083562   -4.295217    0.595585
    108          1           0        6.277676   -2.690799   -3.281293
    109          1           0        7.418832   -3.489047   -2.106898
    110          1           0        8.082903   -1.482431   -1.637979
    111          1           0        6.623934   -1.186664   -0.788143
    112          1           0        5.867208   -0.477771   -3.312909
    113          1           0        7.536889   -0.370610   -3.531039
    114          1           0        6.527468    0.936653   -1.007605
    115          1           0        5.534875    1.949216   -3.562353
    116          1           0        4.976693    2.708459   -2.062377
    117          1           0        4.437464    1.031506   -2.455731
    118          1           0        7.331598    3.048814   -2.890092
    119          1           0        8.265778    1.614779   -3.311448
    120          1           0        8.269276    1.895451   -0.325878
    121          1           0        8.570621    3.478627   -1.135184
    122          1           0       10.298378    2.749114   -2.293519
    123          1           0       10.150658    1.039003   -1.956031
    124          1           0       10.329829    2.420291    0.578788
    125          1           0       12.563329    3.799273   -0.543422
    126          1           0       11.331284    4.385244    0.410807
    127          1           0       11.068047    4.271834   -1.332820
    128          1           0       12.743779    1.413979   -0.793928
    129          1           0       11.678879    0.262276   -0.227247
    130          1           0       12.567901    2.498635    1.829502
    131          1           0       13.623550    1.427107    1.075424
    132          1           0       12.895923   -0.418355    1.966606
    133          1           0       11.195619    0.109454    2.025132
    134          1           0       12.537858    1.693714    3.998054
    135          1           0       14.090394   -0.691955    4.070606
    136          1           0       12.615037   -1.214726    4.935274
    137          1           0       13.540151    0.172332    5.406421
    138          1           0       10.569196    1.654228    4.544528
    139          1           0       10.930260    0.128396    5.439628
    140          1           0       10.071068    0.130527    3.912844
 ---------------------------------------------------------------------

 SCF Done:  E(RwB97XD) =  -3007.85963185     A.U. after   19 cycles

 Excitation energies and oscillator strengths:

 Excited State   1:      Singlet-A      1.8127 eV  683.97 nm  f=0.3946  <S**2>=0.000
     245 -> 248        0.17535
     246 -> 247        0.68463
     245 <- 248        0.10642
 This state for optimization and/or second-order correction.
 Total Energy, E(TD-HF/TD-DFT) =  -3007.79301604
 Copying the excited state density for this state as the 1-particle RhoCI density.

 Excited State   2:      Singlet-A      2.1742 eV  570.26 nm  f=0.1539  <S**2>=0.000
     245 -> 247        0.65458
     246 -> 248       -0.24186

 Excited State   3:      Singlet-A      3.2422 eV  382.41 nm  f=0.0075  <S**2>=0.000
     241 -> 247       -0.22813
     244 -> 247        0.64706

 Excited State   4:      Singlet-A      3.4627 eV  358.06 nm  f=0.0014  <S**2>=0.000
     241 -> 247        0.19378
     243 -> 247        0.52130
     243 -> 248        0.13080
     243 -> 249        0.22415
     243 -> 250        0.22755
     244 -> 247        0.12552

 Excited State   5:      Singlet-A      3.5013 eV  354.11 nm  f=0.0091  <S**2>=0.000
     239 -> 247        0.16970
     240 -> 247        0.17730
     241 -> 247        0.48584
     243 -> 247       -0.20389
     243 -> 249       -0.11607
     243 -> 250       -0.11876
     244 -> 247        0.15438
     246 -> 248        0.26871

 The electronic state is 1-A.
 Alpha  occ. eigenvalues --  -46.94599 -19.32564 -19.30486 -19.25404 -19.24441
 Alpha  occ. eigenvalues --  -19.22376 -19.21696 -14.47007 -14.45889 -14.43859
 Alpha  occ. eigenvalues --  -14.42510 -10.44379 -10.41729 -10.38968 -10.37090
 Alpha  occ. eigenvalues --  -10.36489 -10.35806 -10.34967 -10.34750 -10.34374
 Alpha  occ. eigenvalues --  -10.33856 -10.33635 -10.33601 -10.33474 -10.32770
 Alpha  occ. eigenvalues --  -10.32223 -10.32105 -10.32081 -10.31585 -10.31543
 Alpha  occ. eigenvalues --  -10.31460 -10.31296 -10.31283 -10.31202 -10.31134
 Alpha  occ. eigenvalues --  -10.30963 -10.30921 -10.30820 -10.30743 -10.30711
 Alpha  occ. eigenvalues --  -10.30450 -10.30429 -10.30315 -10.30274 -10.29845
 Alpha  occ. eigenvalues --  -10.29728 -10.29715 -10.29612 -10.29550 -10.29521
 Alpha  occ. eigenvalues --  -10.29520 -10.29363 -10.29172 -10.29143 -10.29062
 Alpha  occ. eigenvalues --  -10.28970 -10.28911 -10.28676 -10.28458 -10.28353
 Alpha  occ. eigenvalues --  -10.28341 -10.28328 -10.28280 -10.28264 -10.28110
 Alpha  occ. eigenvalues --  -10.27496  -3.20566  -1.94168  -1.93687  -1.93534
 Alpha  occ. eigenvalues --   -1.21052  -1.20083  -1.13351  -1.10510  -1.09366
 Alpha  occ. eigenvalues --   -1.07312  -1.07011  -1.06533  -1.05236  -1.04113
 Alpha  occ. eigenvalues --   -0.94751  -0.93226  -0.92799  -0.91517  -0.91413
 Alpha  occ. eigenvalues --   -0.91035  -0.90905  -0.90313  -0.90032  -0.89600
 Alpha  occ. eigenvalues --   -0.88012  -0.87704  -0.86799  -0.85877  -0.85610
 Alpha  occ. eigenvalues --   -0.85085  -0.84398  -0.83830  -0.83438  -0.82918
 Alpha  occ. eigenvalues --   -0.82369  -0.81531  -0.79905  -0.79311  -0.78169
 Alpha  occ. eigenvalues --   -0.77735  -0.77524  -0.77158  -0.77058  -0.76446
 Alpha  occ. eigenvalues --   -0.76259  -0.75045  -0.73759  -0.72668  -0.71168
 Alpha  occ. eigenvalues --   -0.70793  -0.70490  -0.69637  -0.68880  -0.67877
 Alpha  occ. eigenvalues --   -0.67512  -0.67447  -0.67147  -0.66790  -0.66563
 Alpha  occ. eigenvalues --   -0.66307  -0.65572  -0.65235  -0.64570  -0.63801
 Alpha  occ. eigenvalues --   -0.62553  -0.61823  -0.61588  -0.60766  -0.59869
 Alpha  occ. eigenvalues --   -0.59416  -0.58972  -0.58940  -0.58294  -0.57937
 Alpha  occ. eigenvalues --   -0.57443  -0.57272  -0.57156  -0.56961  -0.56136
 Alpha  occ. eigenvalues --   -0.56013  -0.55927  -0.55609  -0.55460  -0.55303
 Alpha  occ. eigenvalues --   -0.54875  -0.54661  -0.54446  -0.54180  -0.54054
 Alpha  occ. eigenvalues --   -0.53967  -0.53607  -0.53399  -0.52920  -0.52836
 Alpha  occ. eigenvalues --   -0.52607  -0.52348  -0.52273  -0.51948  -0.51763
 Alpha  occ. eigenvalues --   -0.51664  -0.51305  -0.50931  -0.50860  -0.50625
 Alpha  occ. eigenvalues --   -0.50391  -0.50227  -0.50019  -0.49862  -0.49560
 Alpha  occ. eigenvalues --   -0.49510  -0.49078  -0.48888  -0.48593  -0.48340
 Alpha  occ. eigenvalues --   -0.48053  -0.47979  -0.47879  -0.47756  -0.47728
 Alpha  occ. eigenvalues --   -0.47489  -0.47228  -0.47126  -0.46937  -0.46747
 Alpha  occ. eigenvalues --   -0.46539  -0.46503  -0.46221  -0.46006  -0.45872
 Alpha  occ. eigenvalues --   -0.45691  -0.45409  -0.45104  -0.45027  -0.44779
 Alpha  occ. eigenvalues --   -0.44623  -0.44541  -0.44315  -0.44116  -0.43953
 Alpha  occ. eigenvalues --   -0.43833  -0.43638  -0.43449  -0.42983  -0.42775
 Alpha  occ. eigenvalues --   -0.42764  -0.42607  -0.42385  -0.42330  -0.42114
 Alpha  occ. eigenvalues --   -0.41904  -0.41643  -0.41225  -0.41073  -0.40551
 Alpha  occ. eigenvalues --   -0.40520  -0.40401  -0.40294  -0.40056  -0.39761
 Alpha  occ. eigenvalues --   -0.39643  -0.39339  -0.39068  -0.38949  -0.38093
 Alpha  occ. eigenvalues --   -0.37676  -0.37173  -0.37162  -0.36124  -0.36007
 Alpha  occ. eigenvalues --   -0.35746  -0.35315  -0.34525  -0.33733  -0.33583
 Alpha  occ. eigenvalues --   -0.32847  -0.32482  -0.31173  -0.30370  -0.26010
 Alpha  occ. eigenvalues --   -0.23593
 Alpha virt. eigenvalues --   -0.07185   0.00735   0.02591   0.05025   0.05634
 Alpha virt. eigenvalues --    0.06020   0.07434   0.08125   0.08650   0.09664
 Alpha virt. eigenvalues --    0.10888   0.11363   0.11594   0.12227   0.12403

 Mulliken charges:
               1
     1  Mg   0.945504
     2  C    0.014632
     3  C   -0.100866
     4  C   -0.052884
     5  C   -0.103579
     6  N   -0.365038
     7  C   -0.026082
     8  C   -0.113315
     9  C   -0.119369
    10  C    0.048636
    11  C    0.024681
    12  C    0.063382
    13  C    0.013650
    14  C    0.205400
    15  O   -0.294187
    16  O   -0.323289
    17  N   -0.413137
    18  C    0.189071
    19  C   -0.130187
    20  C   -0.030384
    21  C    0.154820
    22  C    0.057309
    23  C    0.040473
    24  O   -0.217996
    25  C   -0.023850
    26  N   -0.326099
    27  C   -0.015555
    28  C   -0.075507
    29  C   -0.056765
    30  C    0.070487
    31  C    0.043817
    32  C   -0.025578
    33  C   -0.069706
    34  N   -0.489990
    35  C    0.150064
    36  C   -0.166079
    37  C   -0.028872
    38  C    0.152182
    39  C    0.083457
    40  C    0.101149
    41  O   -0.234232
    42  C   -0.075201
    43  C    0.226976
    44  O   -0.302783
    45  O   -0.280171
    46  C    0.182649
    47  C    0.227368
    48  C   -0.159410
    49  C   -0.180302
    50  C    0.016824
    51  C    0.068271
    52  C   -0.049496
    53  C    0.005358
    54  C   -0.192814
    55  C   -0.022601
    56  C    0.049604
    57  C   -0.049856
    58  C    0.013573
    59  C   -0.145123
    60  C    0.001330
    61  C    0.023570
    62  C   -0.052920
    63  C    0.040288
    64  C   -0.193456
    65  C   -0.023958
    66  C   -0.018819
    67  H   -0.007616
    68  H    0.015298
    69  H   -0.012049
    70  H    0.044104
    71  H    0.029740
    72  H    0.057768
    73  H    0.025347
    74  H    0.038131
    75  H    0.028076
    76  H    0.066061
    77  H    0.039000
    78  H    0.076315
    79  H    0.059608
    80  H    0.027157
    81  H    0.041547
    82  H    0.049086
    83  H    0.043555
    84  H    0.067144
    85  H    0.038968
    86  H    0.022547
    87  H    0.057474
    88  H    0.023126
    89  H    0.043900
    90  H    0.052810
    91  H    0.018854
    92  H    0.025785
    93  H    0.040616
    94  H    0.038916
    95  H    0.030429
    96  H    0.056427
    97  H    0.068864
    98  H    0.079649
    99  H    0.047012
   100  H    0.057057
   101  H    0.004737
   102  H    0.058693
   103  H    0.059355
   104  H    0.028772
   105  H    0.038324
   106  H    0.040189
   107  H    0.034960
   108  H    0.032568
   109  H    0.024078
   110  H    0.016525
   111  H    0.022074
   112  H    0.000185
   113  H    0.020490
   114  H    0.025902
   115  H    0.027327
   116  H    0.035070
   117  H    0.032727
   118  H    0.018794
   119  H    0.017241
   120  H    0.029188
   121  H    0.015422
   122  H    0.007210
   123  H    0.013556
   124  H    0.012135
   125  H    0.017586
   126  H    0.022386
   127  H    0.026002
   128  H    0.001263
   129  H    0.012537
   130  H    0.016093
   131  H    0.007974
   132  H    0.023709
   133  H    0.011577
   134  H    0.027100
   135  H    0.027728
   136  H    0.036169
   137  H    0.019413
   138  H    0.023598
   139  H    0.030384
   140  H    0.025183
 Sum of Mulliken charges =  -0.00000

 Dipole moment (field-independent basis, Debye):
    X=              7.0959    Y=              5.5849    Z=             -2.2181  Tot=              9.2986
 Quadrupole moment (field-independent basis, Debye-Ang):
   XX=           -376.4073   YY=           -440.0232   ZZ=           -401.0176
   XY=            -41.7861   XZ=              3.5151   YZ=             -0.1679

 Normal termination of Gaussian 16 at Sat Apr 30 15:37:25 2022.
