 Gaussian 16, Revision A.03,
 Gaussian 16:  ES64L-G16RevA.03 25-Dec-2016

 --------------------
 #p ZINDO=(nstates=5)
 --------------------

 -----------------------------
 step_801_chromophore_15 ZINDO
 -----------------------------
 Symbolic Z-matrix:
 Charge =  0 Multiplicity = 1

                         Standard orientation:
 ---------------------------------------------------------------------
 Center     Atomic      Atomic             Coordinates (Angstroms)
 Number     Number       Type             X           Y           Z
 ---------------------------------------------------------------------
      1         12           0       -4.758174    0.881966    0.103036
      2          6           0       -4.052475   -2.404807    0.594077
      3          6           0       -1.364702    1.538565   -0.360093
      4          6           0       -5.341854    4.190024    0.163200
      5          6           0       -8.068655    0.299907    0.798454
      6          7           0       -2.920928   -0.286112    0.073567
      7          6           0       -2.923303   -1.683757    0.285850
      8          6           0       -1.511185   -2.261298   -0.204749
      9          6           0       -0.639126   -0.974129    0.045823
     10          6           0       -1.684625    0.195738   -0.054070
     11          6           0        0.128513   -0.974589    1.426042
     12          6           0       -1.596777   -2.766960   -1.645079
     13          6           0       -0.572010   -3.870214   -1.996008
     14          6           0        0.640862   -4.144137   -1.099406
     15          8           0        0.586302   -5.009003   -0.199081
     16          8           0        1.694259   -3.390574   -1.441900
     17          7           0       -3.533442    2.657325   -0.116359
     18          6           0       -2.180071    2.667312   -0.347277
     19          6           0       -1.796397    4.073502   -0.454758
     20          6           0       -2.951334    4.817192   -0.241067
     21          6           0       -3.966292    3.920517   -0.003622
     22          6           0       -0.385918    4.411268   -0.785467
     23          6           0       -3.117233    6.288701   -0.270657
     24          8           0       -4.079465    6.893469    0.162903
     25          6           0       -1.907478    7.061092   -0.614485
     26          7           0       -6.439394    2.089281    0.560348
     27          6           0       -6.447592    3.392209    0.403009
     28          6           0       -7.837143    4.022533    0.429228
     29          6           0       -8.706849    2.726706    0.408650
     30          6           0       -7.694607    1.587667    0.598785
     31          6           0       -8.043570    4.955369    1.597950
     32          6           0       -9.457072    2.375374   -0.841539
     33          6           0      -10.994223    2.081876   -0.745061
     34          7           0       -5.910443   -0.714149    0.677081
     35          6           0       -7.280175   -0.850021    0.906188
     36          6           0       -7.625449   -2.215935    1.009518
     37          6           0       -6.330127   -2.848513    1.034337
     38          6           0       -5.336393   -1.950727    0.762871
     39          6           0       -8.967979   -2.836702    1.050828
     40          6           0       -5.738734   -4.119775    1.107117
     41          8           0       -6.177979   -5.257779    1.315488
     42          6           0       -4.217141   -3.878791    1.005226
     43          6           0       -3.570021   -4.951281    0.165080
     44          8           0       -3.997917   -5.340950   -0.948460
     45          8           0       -2.576450   -5.508004    0.781377
     46          6           0       -1.860682   -6.543825    0.089639
     47          6           0        2.914821   -3.688778   -0.755797
     48          6           0        4.092809   -3.065038   -1.537158
     49          6           0        5.391047   -3.360722   -1.358627
     50          6           0        5.806053   -4.234642   -0.218663
     51          6           0        6.559507   -2.830442   -2.237125
     52          6           0        7.002997   -1.426636   -1.781091
     53          6           0        6.778003   -0.255404   -2.756455
     54          6           0        6.610193    1.140576   -2.074682
     55          6           0        5.245482    1.759744   -2.528284
     56          6           0        7.743803    2.119060   -2.497584
     57          6           0        8.609910    2.393576   -1.234627
     58          6           0       10.073486    2.028833   -1.506024
     59          6           0       10.927480    2.339843   -0.329146
     60          6           0       11.476893    3.753241   -0.464887
     61          6           0       11.950474    1.303294   -0.054483
     62          6           0       12.569538    1.527133    1.335091
     63          6           0       12.220258    0.375869    2.284699
     64          6           0       12.266790    0.661798    3.777053
     65          6           0       13.162266   -0.361184    4.535203
     66          6           0       10.878600    0.612584    4.464535
     67          1           0       -0.279867    1.623325   -0.453003
     68          1           0       -5.697329    5.220024    0.229196
     69          1           0       -9.144590    0.135157    0.881965
     70          1           0       -1.085712   -2.989491    0.485710
     71          1           0        0.057924   -0.884306   -0.787460
     72          1           0       -0.204304   -1.623415    2.234901
     73          1           0        0.080789    0.019017    1.872646
     74          1           0        1.196576   -1.076975    1.232752
     75          1           0       -1.463035   -1.925078   -2.323535
     76          1           0       -2.601113   -3.148307   -1.826208
     77          1           0       -0.146194   -3.486115   -2.922730
     78          1           0       -1.091273   -4.803179   -2.218502
     79          1           0       -0.249651    5.073668   -1.641257
     80          1           0        0.317423    3.578949   -0.803756
     81          1           0        0.151502    4.893266    0.030609
     82          1           0       -1.067479    6.760231    0.010288
     83          1           0       -2.151680    8.065673   -0.269969
     84          1           0       -1.633919    7.128926   -1.668133
     85          1           0       -7.994927    4.519305   -0.528106
     86          1           0       -9.449435    2.782704    1.205700
     87          1           0       -7.131135    4.956328    2.194740
     88          1           0       -8.821924    4.652151    2.298971
     89          1           0       -8.502967    5.886974    1.268421
     90          1           0       -9.120956    1.522235   -1.431305
     91          1           0       -9.388455    3.278076   -1.449194
     92          1           0      -11.373068    2.059188    0.276858
     93          1           0      -11.326457    1.127472   -1.153710
     94          1           0      -11.473434    2.912368   -1.261885
     95          1           0       -9.803014   -2.259911    0.652100
     96          1           0       -9.229045   -3.076542    2.081072
     97          1           0       -8.770365   -3.737624    0.469007
     98          1           0       -3.823014   -3.909648    2.021369
     99          1           0       -2.361921   -7.453536   -0.242310
    100          1           0       -1.029615   -6.863295    0.718143
    101          1           0       -1.475331   -6.156946   -0.854165
    102          1           0        2.993858   -4.773608   -0.690847
    103          1           0        2.899010   -3.263637    0.247485
    104          1           0        3.781011   -2.481264   -2.402452
    105          1           0        6.838256   -4.132378    0.117275
    106          1           0        5.810925   -5.293167   -0.478368
    107          1           0        5.083562   -4.295217    0.595585
    108          1           0        6.277676   -2.690799   -3.281293
    109          1           0        7.418832   -3.489047   -2.106898
    110          1           0        8.082903   -1.482431   -1.637979
    111          1           0        6.623934   -1.186664   -0.788143
    112          1           0        5.867208   -0.477771   -3.312909
    113          1           0        7.536889   -0.370610   -3.531039
    114          1           0        6.527468    0.936653   -1.007605
    115          1           0        5.534875    1.949216   -3.562353
    116          1           0        4.976693    2.708459   -2.062377
    117          1           0        4.437464    1.031506   -2.455731
    118          1           0        7.331598    3.048814   -2.890092
    119          1           0        8.265778    1.614779   -3.311448
    120          1           0        8.269276    1.895451   -0.325878
    121          1           0        8.570621    3.478627   -1.135184
    122          1           0       10.298378    2.749114   -2.293519
    123          1           0       10.150658    1.039003   -1.956031
    124          1           0       10.329829    2.420291    0.578788
    125          1           0       12.563329    3.799273   -0.543422
    126          1           0       11.331284    4.385244    0.410807
    127          1           0       11.068047    4.271834   -1.332820
    128          1           0       12.743779    1.413979   -0.793928
    129          1           0       11.678879    0.262276   -0.227247
    130          1           0       12.567901    2.498635    1.829502
    131          1           0       13.623550    1.427107    1.075424
    132          1           0       12.895923   -0.418355    1.966606
    133          1           0       11.195619    0.109454    2.025132
    134          1           0       12.537858    1.693714    3.998054
    135          1           0       14.090394   -0.691955    4.070606
    136          1           0       12.615037   -1.214726    4.935274
    137          1           0       13.540151    0.172332    5.406421
    138          1           0       10.569196    1.654228    4.544528
    139          1           0       10.930260    0.128396    5.439628
    140          1           0       10.071068    0.130527    3.912844
 ---------------------------------------------------------------------

 SCF Done:  E(RZINDO/S) =  -474.992250234     A.U. after   18 cycles

 Excitation energies and oscillator strengths:

 Excited State   1:      Singlet-A      1.3779 eV  899.84 nm  f=0.5673  <S**2>=0.000
     175 ->178         0.16273
     176 ->177         0.67195
 This state for optimization and/or second-order correction.
 Total Energy, E(CIS/TDA) =  -474.941615054
 Copying the excited state density for this state as the 1-particle RhoCI density.

 Excited State   2:      Singlet-A      1.9889 eV  623.39 nm  f=0.0904  <S**2>=0.000
     175 ->177         0.57285
     176 ->178        -0.37525

 Excited State   3:      Singlet-A      2.8710 eV  431.85 nm  f=0.0037  <S**2>=0.000
     166 ->177         0.10083
     166 ->179        -0.16711
     167 ->177         0.21821
     167 ->179        -0.34811
     167 ->181         0.11867
     167 ->186         0.12352
     168 ->177         0.19723
     168 ->179        -0.27485
     169 ->177         0.13818
     169 ->179        -0.17704

 Excited State   4:      Singlet-A      2.9801 eV  416.03 nm  f=0.0164  <S**2>=0.000
     171 ->177         0.26846
     171 ->178        -0.21606
     171 ->179         0.18505
     171 ->181         0.35990
     171 ->186        -0.19367
     171 ->188         0.18997
     173 ->177         0.11997
     173 ->181         0.14162

 Excited State   5:      Singlet-A      3.0691 eV  403.98 nm  f=0.8880  <S**2>=0.000
     170 ->177        -0.15512
     175 ->177         0.32155
     176 ->178         0.53425
     176 ->181        -0.16681

 The electronic state is 1-A.
 Alpha  occ. eigenvalues --   -1.85919  -1.84731  -1.82109  -1.75992  -1.74463
 Alpha  occ. eigenvalues --   -1.72225  -1.68669  -1.62380  -1.62306  -1.59422
 Alpha  occ. eigenvalues --   -1.56556  -1.52633  -1.49322  -1.48151  -1.46388
 Alpha  occ. eigenvalues --   -1.43843  -1.42404  -1.41828  -1.41221  -1.40665
 Alpha  occ. eigenvalues --   -1.35807  -1.35723  -1.33983  -1.32447  -1.29505
 Alpha  occ. eigenvalues --   -1.28514  -1.26327  -1.23154  -1.20799  -1.19279
 Alpha  occ. eigenvalues --   -1.17628  -1.15682  -1.14603  -1.14084  -1.13539
 Alpha  occ. eigenvalues --   -1.13402  -1.12615  -1.11519  -1.06347  -1.04126
 Alpha  occ. eigenvalues --   -1.03553  -1.01707  -0.99097  -0.97999  -0.97222
 Alpha  occ. eigenvalues --   -0.96759  -0.95487  -0.95196  -0.94141  -0.92444
 Alpha  occ. eigenvalues --   -0.91661  -0.91074  -0.89988  -0.88252  -0.87472
 Alpha  occ. eigenvalues --   -0.86680  -0.85567  -0.83614  -0.82912  -0.81331
 Alpha  occ. eigenvalues --   -0.81023  -0.79646  -0.78909  -0.77685  -0.76472
 Alpha  occ. eigenvalues --   -0.76047  -0.75126  -0.74968  -0.74076  -0.73350
 Alpha  occ. eigenvalues --   -0.73116  -0.72464  -0.71729  -0.71648  -0.71068
 Alpha  occ. eigenvalues --   -0.70326  -0.69931  -0.69340  -0.69195  -0.68399
 Alpha  occ. eigenvalues --   -0.68104  -0.67700  -0.67353  -0.66597  -0.66329
 Alpha  occ. eigenvalues --   -0.65704  -0.65132  -0.64579  -0.64041  -0.63940
 Alpha  occ. eigenvalues --   -0.63471  -0.62985  -0.62364  -0.62007  -0.61839
 Alpha  occ. eigenvalues --   -0.61541  -0.61069  -0.60697  -0.60585  -0.59859
 Alpha  occ. eigenvalues --   -0.59267  -0.58643  -0.58409  -0.58206  -0.57868
 Alpha  occ. eigenvalues --   -0.57622  -0.57469  -0.57070  -0.56538  -0.56512
 Alpha  occ. eigenvalues --   -0.55897  -0.55202  -0.55153  -0.54499  -0.54205
 Alpha  occ. eigenvalues --   -0.53838  -0.53437  -0.53308  -0.53007  -0.52723
 Alpha  occ. eigenvalues --   -0.52425  -0.52063  -0.51695  -0.51654  -0.51302
 Alpha  occ. eigenvalues --   -0.50951  -0.50943  -0.50399  -0.50172  -0.49843
 Alpha  occ. eigenvalues --   -0.49721  -0.49575  -0.49245  -0.48775  -0.48575
 Alpha  occ. eigenvalues --   -0.48489  -0.48304  -0.48114  -0.47835  -0.47697
 Alpha  occ. eigenvalues --   -0.47548  -0.47146  -0.47003  -0.46954  -0.46508
 Alpha  occ. eigenvalues --   -0.46341  -0.46001  -0.45964  -0.45843  -0.45302
 Alpha  occ. eigenvalues --   -0.45085  -0.44926  -0.44684  -0.44043  -0.43799
 Alpha  occ. eigenvalues --   -0.43363  -0.43336  -0.42337  -0.42253  -0.41750
 Alpha  occ. eigenvalues --   -0.41509  -0.40345  -0.39688  -0.39314  -0.38312
 Alpha  occ. eigenvalues --   -0.36975  -0.36623  -0.35973  -0.35248  -0.34539
 Alpha  occ. eigenvalues --   -0.33117  -0.32777  -0.32575  -0.30853  -0.26899
 Alpha  occ. eigenvalues --   -0.22364
 Alpha virt. eigenvalues --   -0.08603  -0.01796  -0.00568   0.01260   0.01600
 Alpha virt. eigenvalues --    0.02299   0.03117   0.03635   0.04154   0.05103
 Alpha virt. eigenvalues --    0.06605   0.06931   0.07429   0.07925   0.08457

 Mulliken charges:
               1
     1  Mg   0.423258
     2  C   -0.008703
     3  C   -0.088309
     4  C   -0.084713
     5  C   -0.050731
     6  N   -0.278038
     7  C    0.066410
     8  C   -0.001423
     9  C    0.003960
    10  C    0.174238
    11  C   -0.050532
    12  C   -0.007983
    13  C   -0.001527
    14  C    0.473582
    15  O   -0.540078
    16  O   -0.251548
    17  N   -0.347796
    18  C    0.136838
    19  C    0.034476
    20  C   -0.016768
    21  C    0.168108
    22  C   -0.047366
    23  C    0.334489
    24  O   -0.508885
    25  C   -0.038272
    26  N   -0.259712
    27  C    0.179728
    28  C    0.006517
    29  C    0.002469
    30  C    0.099696
    31  C   -0.049260
    32  C   -0.028151
    33  C   -0.064762
    34  N   -0.348723
    35  C    0.066065
    36  C    0.012137
    37  C   -0.056436
    38  C    0.107841
    39  C   -0.036503
    40  C    0.326972
    41  O   -0.544248
    42  C    0.051112
    43  C    0.491759
    44  O   -0.556074
    45  O   -0.230313
    46  C    0.075499
    47  C    0.106511
    48  C   -0.100220
    49  C    0.004366
    50  C   -0.048441
    51  C   -0.019417
    52  C   -0.033885
    53  C   -0.036817
    54  C   -0.015436
    55  C   -0.066567
    56  C   -0.037450
    57  C   -0.039845
    58  C   -0.035081
    59  C    0.007245
    60  C   -0.056404
    61  C   -0.023460
    62  C   -0.046265
    63  C   -0.029638
    64  C   -0.007088
    65  C   -0.059238
    66  C   -0.060964
    67  H    0.021822
    68  H    0.035279
    69  H    0.017051
    70  H    0.039508
    71  H    0.026631
    72  H    0.038586
    73  H    0.011558
    74  H    0.020240
    75  H    0.022382
    76  H    0.040273
    77  H    0.020901
    78  H    0.054788
    79  H    0.034808
    80  H    0.026464
    81  H    0.026994
    82  H    0.037081
    83  H    0.028169
    84  H    0.043116
    85  H    0.034015
    86  H    0.028120
    87  H    0.035495
    88  H    0.013677
    89  H    0.028612
    90  H    0.030543
    91  H    0.008747
    92  H    0.015992
    93  H    0.023320
    94  H    0.016869
    95  H    0.024318
    96  H    0.033324
    97  H    0.039879
    98  H    0.052300
    99  H    0.046149
   100  H    0.033370
   101  H    0.040308
   102  H    0.055642
   103  H    0.047370
   104  H    0.030019
   105  H    0.025030
   106  H    0.024171
   107  H    0.025818
   108  H    0.029285
   109  H    0.025974
   110  H    0.006763
   111  H    0.020117
   112  H    0.010401
   113  H    0.021933
   114  H    0.025253
   115  H    0.018150
   116  H    0.018824
   117  H    0.018110
   118  H    0.020839
   119  H    0.025108
   120  H    0.027408
   121  H    0.015785
   122  H    0.012833
   123  H    0.021512
   124  H    0.014064
   125  H    0.013350
   126  H    0.012620
   127  H    0.019345
   128  H    0.005915
   129  H    0.022062
   130  H    0.033106
   131  H    0.000749
   132  H    0.021854
   133  H    0.015467
   134  H    0.026684
   135  H    0.017655
   136  H    0.024671
   137  H    0.005588
   138  H    0.010729
   139  H    0.021424
   140  H    0.017476
 Sum of Mulliken charges =  -0.00000

 Dipole moment (field-independent basis, Debye):
    X=             10.1173    Y=              9.2177    Z=             -3.3435  Tot=             14.0892
 N-N= 4.408679782516D+03 E-N= 0.000000000000D+00  KE=-9.492007701714D+03
 Leave Link  601 at Sat Apr 30 15:51:25 2022, MaxMem=  6710886400 cpu:               0.8 elap:               0.1
 (Enter /sw/apps/gaussian-16.0/g16/l9999.exe)
 1\1\GINC-BP1-COMPUTE103\SP\RZINDO CIS\STO-3G\C55H74Mg1N4O6\OF15641\30-
 Apr-2022\0\\#p ZINDO=(nstates=5)\\step_801_chromophore_15 ZINDO\\0,1\M
 g,0,47.103,34.57,27.743\C,0,45.37,32.919,30.154\C,0,47.598,37.24,29.93
 1\C,0,48.328,36.452,25.244\C,0,46.417,32.064,25.5\N,0,46.591,35.024,29
 .81\C,0,45.867,34.115,30.615\C,0,46.027,34.571,32.143\C,0,46.235,36.11
 3,31.9\C,0,46.825,36.173,30.444\C,0,44.918,36.972,32.048\C,0,47.172,33
 .819,32.822\C,0,47.025,33.682,34.355\C,0,46.028,34.543,35.139\O,0,44.8

 Normal termination of Gaussian 16 at Sat Apr 30 15:51:25 2022.
