 Gaussian 16, Revision A.03,
 Gaussian 16:  ES64L-G16RevA.03 25-Dec-2016

 ------------------------------
 #p blyp/Def2SVP td=(nstates=5)
 ------------------------------

 --------------------------------------------------
 step_1501_chromophore_9 TDDFT with blyp functional
 --------------------------------------------------
 Symbolic Z-matrix:
 Charge =  0 Multiplicity = 1

                         Standard orientation:
 ---------------------------------------------------------------------
 Center     Atomic      Atomic             Coordinates (Angstroms)
 Number     Number       Type             X           Y           Z
 ---------------------------------------------------------------------
      1         12           0       -5.041482    0.719957   -0.295029
      2          6           0       -3.678326   -2.621431   -0.069815
      3          6           0       -1.834024    1.917031   -0.509002
      4          6           0       -6.215123    3.849176    0.021013
      5          6           0       -8.116819   -0.630844    0.731405
      6          7           0       -3.032489   -0.284857   -0.217671
      7          6           0       -2.708714   -1.633293   -0.365447
      8          6           0       -1.227860   -1.797286   -0.529781
      9          6           0       -0.630238   -0.320618   -0.511789
     10          6           0       -1.873539    0.490100   -0.396227
     11          6           0        0.446525   -0.001561    0.518485
     12          6           0       -0.740567   -2.778023   -1.691012
     13          6           0        0.333814   -3.728562   -1.332154
     14          6           0        1.412472   -3.118906   -0.476321
     15          8           0        1.430837   -3.260702    0.718761
     16          8           0        2.338608   -2.417243   -1.252268
     17          7           0       -4.164307    2.569819   -0.134640
     18          6           0       -2.826943    2.908330   -0.395051
     19          6           0       -2.635196    4.345978   -0.561460
     20          6           0       -3.906818    4.952021   -0.418189
     21          6           0       -4.855164    3.810214   -0.190265
     22          6           0       -1.221056    4.916484   -0.825988
     23          6           0       -4.314712    6.497068   -0.369723
     24          8           0       -5.490191    6.807870   -0.113712
     25          6           0       -3.189224    7.488782   -0.444015
     26          7           0       -6.879373    1.485140    0.319567
     27          6           0       -7.119702    2.850792    0.384443
     28          6           0       -8.553976    3.117584    0.951249
     29          6           0       -9.108186    1.640054    1.066090
     30          6           0       -7.985995    0.757165    0.621036
     31          6           0       -8.656956    4.056969    2.194504
     32          6           0      -10.529718    1.300454    0.569724
     33          6           0      -10.623913    0.921086   -0.921209
     34          7           0       -5.796084   -1.124496    0.146439
     35          6           0       -7.123797   -1.565445    0.516113
     36          6           0       -7.191243   -2.995871    0.579972
     37          6           0       -5.876805   -3.445761    0.357752
     38          6           0       -5.077013   -2.338690    0.157014
     39          6           0       -8.427707   -3.767005    1.024436
     40          6           0       -5.011089   -4.587832    0.262690
     41          8           0       -5.246337   -5.787684    0.347792
     42          6           0       -3.532843   -4.189574   -0.114698
     43          6           0       -2.524789   -4.710032    0.828597
     44          8           0       -2.108703   -4.054970    1.738115
     45          8           0       -1.937654   -5.936401    0.423787
     46          6           0       -0.919566   -6.341470    1.502184
     47          6           0        3.553788   -2.200334   -0.453361
     48          6           0        4.653926   -1.720969   -1.366959
     49          6           0        5.600481   -2.593103   -1.962232
     50          6           0        5.572789   -4.124452   -1.872993
     51          6           0        6.547185   -1.978839   -2.969645
     52          6           0        7.425925   -0.862629   -2.303870
     53          6           0        8.385364   -0.251974   -3.361699
     54          6           0        7.823552    1.149841   -3.630772
     55          6           0        7.446980    1.478640   -5.134850
     56          6           0        8.790226    2.288033   -3.134476
     57          6           0        9.024337    2.457888   -1.634441
     58          6           0       10.419823    1.900454   -1.004353
     59          6           0       10.393112    1.990240    0.542643
     60          6           0       11.493671    2.934711    1.015356
     61          6           0       10.603351    0.531924    1.028287
     62          6           0       10.009761    0.310142    2.454558
     63          6           0       11.072758    0.075053    3.537585
     64          6           0       11.134812    1.115288    4.631595
     65          6           0       12.522936    1.200914    5.293268
     66          6           0        9.953829    0.941163    5.550268
     67          1           0       -0.828389    2.141572   -0.870037
     68          1           0       -6.583572    4.876840    0.034165
     69          1           0       -9.023550   -1.172037    1.009954
     70          1           0       -0.885861   -2.252686    0.399378
     71          1           0       -0.226347   -0.198601   -1.517951
     72          1           0        1.087944   -0.781318    0.930383
     73          1           0        0.204150    0.750602    1.269489
     74          1           0        1.125133    0.420441   -0.222986
     75          1           0       -0.323097   -2.181275   -2.501273
     76          1           0       -1.626417   -3.310410   -2.038211
     77          1           0        0.821691   -4.156231   -2.207854
     78          1           0       -0.111601   -4.530903   -0.743623
     79          1           0       -0.630926    5.226184    0.036239
     80          1           0       -1.291460    5.786193   -1.479772
     81          1           0       -0.608633    4.176806   -1.341982
     82          1           0       -2.835529    7.439540   -1.474002
     83          1           0       -2.410915    7.320486    0.300284
     84          1           0       -3.607973    8.478479   -0.259897
     85          1           0       -9.055668    3.700310    0.178862
     86          1           0       -9.233731    1.545696    2.144209
     87          1           0       -7.629751    4.383679    2.357802
     88          1           0       -9.130610    3.599113    3.062965
     89          1           0       -9.246675    4.947301    1.975585
     90          1           0      -11.188640    2.157042    0.712742
     91          1           0      -10.912008    0.492409    1.194026
     92          1           0      -11.335086    1.669362   -1.269906
     93          1           0      -10.950766   -0.106871   -1.080292
     94          1           0       -9.635554    1.058314   -1.359915
     95          1           0       -9.090018   -3.172628    1.654780
     96          1           0       -7.994617   -4.674119    1.446047
     97          1           0       -9.080972   -3.982577    0.179412
     98          1           0       -3.458744   -4.560558   -1.136341
     99          1           0       -1.359088   -6.472227    2.491026
    100          1           0       -0.211862   -5.513262    1.469779
    101          1           0       -0.430667   -7.238374    1.121095
    102          1           0        3.964790   -3.066447    0.066209
    103          1           0        3.369334   -1.405515    0.268737
    104          1           0        4.741341   -0.634990   -1.335445
    105          1           0        5.648351   -4.434256   -2.915585
    106          1           0        4.661068   -4.531297   -1.436152
    107          1           0        6.349595   -4.504229   -1.209301
    108          1           0        5.993736   -1.592801   -3.826196
    109          1           0        7.301918   -2.715531   -3.244061
    110          1           0        8.124953   -1.388686   -1.653696
    111          1           0        6.743996   -0.142853   -1.850659
    112          1           0        8.396230   -0.907186   -4.232289
    113          1           0        9.401937   -0.350469   -2.978706
    114          1           0        6.949303    1.439094   -3.046994
    115          1           0        8.178827    2.075358   -5.678461
    116          1           0        6.515651    2.035275   -5.233925
    117          1           0        7.355101    0.524049   -5.652696
    118          1           0        8.225098    3.177640   -3.410603
    119          1           0        9.707161    2.239204   -3.723234
    120          1           0        8.222725    1.813857   -1.274356
    121          1           0        8.874025    3.498583   -1.348801
    122          1           0       11.211817    2.532591   -1.404237
    123          1           0       10.505023    0.894091   -1.413665
    124          1           0        9.405774    2.379775    0.789305
    125          1           0       12.343578    2.344273    1.357252
    126          1           0       10.960074    3.554237    1.737205
    127          1           0       11.885555    3.644537    0.286756
    128          1           0       11.628388    0.219110    0.829787
    129          1           0        9.874733   -0.122263    0.549164
    130          1           0        9.328990   -0.540356    2.398924
    131          1           0        9.477873    1.230104    2.696631
    132          1           0       12.098848    0.018725    3.176375
    133          1           0       10.845865   -0.861129    4.048657
    134          1           0       11.001117    2.025202    4.046795
    135          1           0       12.451217    1.326617    6.373970
    136          1           0       13.166597    1.994149    4.911763
    137          1           0       13.121687    0.293690    5.202763
    138          1           0        9.883485    1.776682    6.246923
    139          1           0       10.076531   -0.005393    6.075886
    140          1           0        9.115817    1.000159    4.855600
 ---------------------------------------------------------------------

 SCF Done:  E(RB-LYP) =  -3007.35327597     A.U. after   21 cycles

 Excitation energies and oscillator strengths:

 Excited State   1:      Singlet-A      1.7519 eV  707.73 nm  f=0.2821  <S**2>=0.000
     245 -> 248       -0.18892
     246 -> 247        0.68482
     246 <- 247       -0.14553
 This state for optimization and/or second-order correction.
 Total Energy, E(TD-HF/TD-DFT) =  -3007.28889620
 Copying the excited state density for this state as the 1-particle RhoCI density.

 Excited State   2:      Singlet-A      1.8990 eV  652.89 nm  f=0.0078  <S**2>=0.000
     244 -> 247        0.65525
     245 -> 247        0.25142

 Excited State   3:      Singlet-A      2.0002 eV  619.87 nm  f=0.0468  <S**2>=0.000
     244 -> 247       -0.26084
     245 -> 247        0.58370
     246 -> 248        0.24949
     246 -> 249        0.13504

 Excited State   4:      Singlet-A      2.3983 eV  516.98 nm  f=0.0000  <S**2>=0.000
     242 -> 247        0.63395
     243 -> 247       -0.30725

 Excited State   5:      Singlet-A      2.4380 eV  508.55 nm  f=0.0001  <S**2>=0.000
     241 -> 247        0.65453
     242 -> 247       -0.13964
     243 -> 247       -0.21841

 The electronic state is 1-A.
 Alpha  occ. eigenvalues --  -46.25761 -18.82733 -18.81052 -18.78087 -18.77058
 Alpha  occ. eigenvalues --  -18.76572 -18.74898 -14.02829 -14.02716 -14.00982
 Alpha  occ. eigenvalues --  -14.00122 -10.04221 -10.03161 -10.01518  -9.99218
 Alpha  occ. eigenvalues --   -9.97581  -9.96684  -9.96332  -9.96283  -9.96093
 Alpha  occ. eigenvalues --   -9.96021  -9.95790  -9.95717  -9.94560  -9.94472
 Alpha  occ. eigenvalues --   -9.94461  -9.94409  -9.93900  -9.93752  -9.93617
 Alpha  occ. eigenvalues --   -9.93614  -9.93529  -9.93447  -9.93394  -9.93381
 Alpha  occ. eigenvalues --   -9.93287  -9.93130  -9.92967  -9.92786  -9.92684
 Alpha  occ. eigenvalues --   -9.92643  -9.92629  -9.92542  -9.92481  -9.92366
 Alpha  occ. eigenvalues --   -9.92165  -9.92109  -9.92062  -9.91792  -9.91790
 Alpha  occ. eigenvalues --   -9.91697  -9.91512  -9.91453  -9.91400  -9.91294
 Alpha  occ. eigenvalues --   -9.91246  -9.91149  -9.91144  -9.91062  -9.91024
 Alpha  occ. eigenvalues --   -9.91022  -9.90988  -9.90911  -9.90573  -9.90556
 Alpha  occ. eigenvalues --   -9.90188  -2.90576  -1.70972  -1.70440  -1.70321
 Alpha  occ. eigenvalues --   -0.98432  -0.96644  -0.91604  -0.91428  -0.90692
 Alpha  occ. eigenvalues --   -0.88712  -0.85163  -0.84201  -0.83398  -0.82815
 Alpha  occ. eigenvalues --   -0.74245  -0.73956  -0.73372  -0.72945  -0.72113
 Alpha  occ. eigenvalues --   -0.71819  -0.71303  -0.71072  -0.70684  -0.69829
 Alpha  occ. eigenvalues --   -0.69265  -0.69005  -0.68106  -0.67031  -0.66721
 Alpha  occ. eigenvalues --   -0.66291  -0.66142  -0.65445  -0.64701  -0.64170
 Alpha  occ. eigenvalues --   -0.63702  -0.62219  -0.62111  -0.61348  -0.61042
 Alpha  occ. eigenvalues --   -0.60491  -0.60093  -0.59880  -0.59378  -0.58691
 Alpha  occ. eigenvalues --   -0.57717  -0.57204  -0.56448  -0.55198  -0.54624
 Alpha  occ. eigenvalues --   -0.53751  -0.53290  -0.52529  -0.51860  -0.51269
 Alpha  occ. eigenvalues --   -0.50595  -0.50257  -0.49906  -0.49801  -0.49756
 Alpha  occ. eigenvalues --   -0.49137  -0.49100  -0.48345  -0.46819  -0.46683
 Alpha  occ. eigenvalues --   -0.46060  -0.45594  -0.45270  -0.44473  -0.43805
 Alpha  occ. eigenvalues --   -0.43701  -0.43490  -0.42788  -0.42676  -0.42452
 Alpha  occ. eigenvalues --   -0.42068  -0.42022  -0.41746  -0.41443  -0.41306
 Alpha  occ. eigenvalues --   -0.41082  -0.40849  -0.40464  -0.40288  -0.40228
 Alpha  occ. eigenvalues --   -0.39776  -0.39566  -0.39498  -0.39342  -0.39206
 Alpha  occ. eigenvalues --   -0.38907  -0.38769  -0.38538  -0.38381  -0.37993
 Alpha  occ. eigenvalues --   -0.37778  -0.37735  -0.37494  -0.37395  -0.37341
 Alpha  occ. eigenvalues --   -0.37067  -0.36864  -0.36773  -0.36515  -0.36434
 Alpha  occ. eigenvalues --   -0.36260  -0.35891  -0.35851  -0.35518  -0.35301
 Alpha  occ. eigenvalues --   -0.35243  -0.35140  -0.34838  -0.34685  -0.34588
 Alpha  occ. eigenvalues --   -0.34283  -0.34216  -0.34077  -0.34019  -0.33828
 Alpha  occ. eigenvalues --   -0.33437  -0.33421  -0.33349  -0.32976  -0.32952
 Alpha  occ. eigenvalues --   -0.32788  -0.32622  -0.32505  -0.32288  -0.32129
 Alpha  occ. eigenvalues --   -0.31887  -0.31679  -0.31584  -0.31420  -0.31369
 Alpha  occ. eigenvalues --   -0.31066  -0.30919  -0.30803  -0.30640  -0.30547
 Alpha  occ. eigenvalues --   -0.30448  -0.30221  -0.30214  -0.29841  -0.29747
 Alpha  occ. eigenvalues --   -0.29614  -0.29527  -0.29493  -0.28900  -0.28805
 Alpha  occ. eigenvalues --   -0.28767  -0.28494  -0.28265  -0.28238  -0.27664
 Alpha  occ. eigenvalues --   -0.27224  -0.27144  -0.26835  -0.26772  -0.26538
 Alpha  occ. eigenvalues --   -0.26454  -0.25783  -0.25720  -0.25628  -0.25242
 Alpha  occ. eigenvalues --   -0.25200  -0.24359  -0.23926  -0.23541  -0.23353
 Alpha  occ. eigenvalues --   -0.23105  -0.22783  -0.21852  -0.21817  -0.20706
 Alpha  occ. eigenvalues --   -0.20112  -0.19867  -0.19705  -0.18062  -0.16928
 Alpha  occ. eigenvalues --   -0.15323
 Alpha virt. eigenvalues --   -0.11141  -0.07248  -0.06092  -0.04682  -0.04584
 Alpha virt. eigenvalues --   -0.03445  -0.02691  -0.02525  -0.01624  -0.00194
 Alpha virt. eigenvalues --    0.01231   0.01904   0.02182   0.02331   0.02987

 Mulliken charges:
               1
     1  Mg   0.706476
     2  C   -0.020088
     3  C   -0.058680
     4  C   -0.042042
     5  C   -0.080918
     6  N   -0.229650
     7  C   -0.045548
     8  C   -0.023817
     9  C    0.026795
    10  C   -0.039596
    11  C    0.121070
    12  C    0.103609
    13  C    0.197893
    14  C    0.060031
    15  O   -0.172501
    16  O   -0.287262
    17  N   -0.330988
    18  C    0.186648
    19  C   -0.119638
    20  C    0.002059
    21  C    0.087360
    22  C    0.153637
    23  C   -0.036519
    24  O   -0.163809
    25  C    0.126331
    26  N   -0.239433
    27  C    0.030089
    28  C    0.011202
    29  C    0.049107
    30  C    0.099918
    31  C    0.126145
    32  C    0.057494
    33  C    0.075320
    34  N   -0.333264
    35  C    0.101118
    36  C   -0.186733
    37  C    0.153876
    38  C    0.082150
    39  C    0.175629
    40  C   -0.124825
    41  O   -0.138999
    42  C    0.086671
    43  C    0.134555
    44  O   -0.152672
    45  O   -0.317217
    46  C    0.213432
    47  C    0.292197
    48  C   -0.118792
    49  C   -0.139662
    50  C    0.142381
    51  C    0.127373
    52  C   -0.000553
    53  C    0.159684
    54  C   -0.066076
    55  C    0.100926
    56  C    0.067256
    57  C    0.035767
    58  C    0.107661
    59  C   -0.094110
    60  C    0.131063
    61  C    0.092880
    62  C    0.074303
    63  C    0.103376
    64  C   -0.107935
    65  C    0.111896
    66  C    0.131198
    67  H   -0.071635
    68  H   -0.047828
    69  H   -0.081326
    70  H    0.019756
    71  H   -0.024344
    72  H    0.018546
    73  H    0.003694
    74  H   -0.025510
    75  H   -0.022776
    76  H   -0.014116
    77  H   -0.014373
    78  H   -0.013062
    79  H    0.010269
    80  H   -0.017403
    81  H   -0.007944
    82  H    0.022023
    83  H    0.028985
    84  H   -0.005460
    85  H   -0.026155
    86  H   -0.028248
    87  H    0.003935
    88  H   -0.007933
    89  H   -0.013064
    90  H   -0.027051
    91  H   -0.020629
    92  H   -0.008848
    93  H   -0.003994
    94  H    0.002280
    95  H   -0.004901
    96  H    0.022106
    97  H   -0.006273
    98  H    0.019085
    99  H    0.030132
   100  H    0.028553
   101  H    0.007551
   102  H   -0.000072
   103  H   -0.016143
   104  H   -0.023788
   105  H    0.011566
   106  H   -0.009723
   107  H    0.011186
   108  H    0.000819
   109  H   -0.038271
   110  H   -0.030356
   111  H    0.011771
   112  H   -0.040945
   113  H   -0.030548
   114  H   -0.035994
   115  H   -0.016094
   116  H   -0.017824
   117  H   -0.024980
   118  H   -0.046392
   119  H   -0.033586
   120  H   -0.037097
   121  H   -0.022712
   122  H   -0.038942
   123  H   -0.030963
   124  H   -0.032221
   125  H   -0.009929
   126  H   -0.006796
   127  H   -0.020980
   128  H   -0.018719
   129  H   -0.033787
   130  H   -0.030508
   131  H   -0.019936
   132  H   -0.042133
   133  H   -0.051021
   134  H   -0.048946
   135  H   -0.031755
   136  H   -0.014760
   137  H   -0.026821
   138  H   -0.017552
   139  H   -0.012783
   140  H   -0.021551
 Sum of Mulliken charges =  -0.00000

 Dipole moment (field-independent basis, Debye):
    X=              4.2550    Y=              2.7453    Z=             -3.3689  Tot=              6.0821
 Quadrupole moment (field-independent basis, Debye-Ang):
   XX=           -377.6876   YY=           -421.5861   ZZ=           -408.0974
   XY=            -16.9462   XZ=             -6.3113   YZ=              4.5069

 Normal termination of Gaussian 16 at Wed May  4 09:12:46 2022.
