 Gaussian 16, Revision A.03,
 Gaussian 16:  ES64L-G16RevA.03 25-Dec-2016

 -----------------------------------
 #p cam-b3lyp/Def2SVP td=(nstates=5)
 -----------------------------------

 -------------------------------------------------------
 step_1501_chromophore_9 TDDFT with cam-b3lyp functional
 -------------------------------------------------------
 Symbolic Z-matrix:
 Charge =  0 Multiplicity = 1

                         Standard orientation:
 ---------------------------------------------------------------------
 Center     Atomic      Atomic             Coordinates (Angstroms)
 Number     Number       Type             X           Y           Z
 ---------------------------------------------------------------------
      1         12           0       -5.041482    0.719957   -0.295029
      2          6           0       -3.678326   -2.621431   -0.069815
      3          6           0       -1.834024    1.917031   -0.509002
      4          6           0       -6.215123    3.849176    0.021013
      5          6           0       -8.116819   -0.630844    0.731405
      6          7           0       -3.032489   -0.284857   -0.217671
      7          6           0       -2.708714   -1.633293   -0.365447
      8          6           0       -1.227860   -1.797286   -0.529781
      9          6           0       -0.630238   -0.320618   -0.511789
     10          6           0       -1.873539    0.490100   -0.396227
     11          6           0        0.446525   -0.001561    0.518485
     12          6           0       -0.740567   -2.778023   -1.691012
     13          6           0        0.333814   -3.728562   -1.332154
     14          6           0        1.412472   -3.118906   -0.476321
     15          8           0        1.430837   -3.260702    0.718761
     16          8           0        2.338608   -2.417243   -1.252268
     17          7           0       -4.164307    2.569819   -0.134640
     18          6           0       -2.826943    2.908330   -0.395051
     19          6           0       -2.635196    4.345978   -0.561460
     20          6           0       -3.906818    4.952021   -0.418189
     21          6           0       -4.855164    3.810214   -0.190265
     22          6           0       -1.221056    4.916484   -0.825988
     23          6           0       -4.314712    6.497068   -0.369723
     24          8           0       -5.490191    6.807870   -0.113712
     25          6           0       -3.189224    7.488782   -0.444015
     26          7           0       -6.879373    1.485140    0.319567
     27          6           0       -7.119702    2.850792    0.384443
     28          6           0       -8.553976    3.117584    0.951249
     29          6           0       -9.108186    1.640054    1.066090
     30          6           0       -7.985995    0.757165    0.621036
     31          6           0       -8.656956    4.056969    2.194504
     32          6           0      -10.529718    1.300454    0.569724
     33          6           0      -10.623913    0.921086   -0.921209
     34          7           0       -5.796084   -1.124496    0.146439
     35          6           0       -7.123797   -1.565445    0.516113
     36          6           0       -7.191243   -2.995871    0.579972
     37          6           0       -5.876805   -3.445761    0.357752
     38          6           0       -5.077013   -2.338690    0.157014
     39          6           0       -8.427707   -3.767005    1.024436
     40          6           0       -5.011089   -4.587832    0.262690
     41          8           0       -5.246337   -5.787684    0.347792
     42          6           0       -3.532843   -4.189574   -0.114698
     43          6           0       -2.524789   -4.710032    0.828597
     44          8           0       -2.108703   -4.054970    1.738115
     45          8           0       -1.937654   -5.936401    0.423787
     46          6           0       -0.919566   -6.341470    1.502184
     47          6           0        3.553788   -2.200334   -0.453361
     48          6           0        4.653926   -1.720969   -1.366959
     49          6           0        5.600481   -2.593103   -1.962232
     50          6           0        5.572789   -4.124452   -1.872993
     51          6           0        6.547185   -1.978839   -2.969645
     52          6           0        7.425925   -0.862629   -2.303870
     53          6           0        8.385364   -0.251974   -3.361699
     54          6           0        7.823552    1.149841   -3.630772
     55          6           0        7.446980    1.478640   -5.134850
     56          6           0        8.790226    2.288033   -3.134476
     57          6           0        9.024337    2.457888   -1.634441
     58          6           0       10.419823    1.900454   -1.004353
     59          6           0       10.393112    1.990240    0.542643
     60          6           0       11.493671    2.934711    1.015356
     61          6           0       10.603351    0.531924    1.028287
     62          6           0       10.009761    0.310142    2.454558
     63          6           0       11.072758    0.075053    3.537585
     64          6           0       11.134812    1.115288    4.631595
     65          6           0       12.522936    1.200914    5.293268
     66          6           0        9.953829    0.941163    5.550268
     67          1           0       -0.828389    2.141572   -0.870037
     68          1           0       -6.583572    4.876840    0.034165
     69          1           0       -9.023550   -1.172037    1.009954
     70          1           0       -0.885861   -2.252686    0.399378
     71          1           0       -0.226347   -0.198601   -1.517951
     72          1           0        1.087944   -0.781318    0.930383
     73          1           0        0.204150    0.750602    1.269489
     74          1           0        1.125133    0.420441   -0.222986
     75          1           0       -0.323097   -2.181275   -2.501273
     76          1           0       -1.626417   -3.310410   -2.038211
     77          1           0        0.821691   -4.156231   -2.207854
     78          1           0       -0.111601   -4.530903   -0.743623
     79          1           0       -0.630926    5.226184    0.036239
     80          1           0       -1.291460    5.786193   -1.479772
     81          1           0       -0.608633    4.176806   -1.341982
     82          1           0       -2.835529    7.439540   -1.474002
     83          1           0       -2.410915    7.320486    0.300284
     84          1           0       -3.607973    8.478479   -0.259897
     85          1           0       -9.055668    3.700310    0.178862
     86          1           0       -9.233731    1.545696    2.144209
     87          1           0       -7.629751    4.383679    2.357802
     88          1           0       -9.130610    3.599113    3.062965
     89          1           0       -9.246675    4.947301    1.975585
     90          1           0      -11.188640    2.157042    0.712742
     91          1           0      -10.912008    0.492409    1.194026
     92          1           0      -11.335086    1.669362   -1.269906
     93          1           0      -10.950766   -0.106871   -1.080292
     94          1           0       -9.635554    1.058314   -1.359915
     95          1           0       -9.090018   -3.172628    1.654780
     96          1           0       -7.994617   -4.674119    1.446047
     97          1           0       -9.080972   -3.982577    0.179412
     98          1           0       -3.458744   -4.560558   -1.136341
     99          1           0       -1.359088   -6.472227    2.491026
    100          1           0       -0.211862   -5.513262    1.469779
    101          1           0       -0.430667   -7.238374    1.121095
    102          1           0        3.964790   -3.066447    0.066209
    103          1           0        3.369334   -1.405515    0.268737
    104          1           0        4.741341   -0.634990   -1.335445
    105          1           0        5.648351   -4.434256   -2.915585
    106          1           0        4.661068   -4.531297   -1.436152
    107          1           0        6.349595   -4.504229   -1.209301
    108          1           0        5.993736   -1.592801   -3.826196
    109          1           0        7.301918   -2.715531   -3.244061
    110          1           0        8.124953   -1.388686   -1.653696
    111          1           0        6.743996   -0.142853   -1.850659
    112          1           0        8.396230   -0.907186   -4.232289
    113          1           0        9.401937   -0.350469   -2.978706
    114          1           0        6.949303    1.439094   -3.046994
    115          1           0        8.178827    2.075358   -5.678461
    116          1           0        6.515651    2.035275   -5.233925
    117          1           0        7.355101    0.524049   -5.652696
    118          1           0        8.225098    3.177640   -3.410603
    119          1           0        9.707161    2.239204   -3.723234
    120          1           0        8.222725    1.813857   -1.274356
    121          1           0        8.874025    3.498583   -1.348801
    122          1           0       11.211817    2.532591   -1.404237
    123          1           0       10.505023    0.894091   -1.413665
    124          1           0        9.405774    2.379775    0.789305
    125          1           0       12.343578    2.344273    1.357252
    126          1           0       10.960074    3.554237    1.737205
    127          1           0       11.885555    3.644537    0.286756
    128          1           0       11.628388    0.219110    0.829787
    129          1           0        9.874733   -0.122263    0.549164
    130          1           0        9.328990   -0.540356    2.398924
    131          1           0        9.477873    1.230104    2.696631
    132          1           0       12.098848    0.018725    3.176375
    133          1           0       10.845865   -0.861129    4.048657
    134          1           0       11.001117    2.025202    4.046795
    135          1           0       12.451217    1.326617    6.373970
    136          1           0       13.166597    1.994149    4.911763
    137          1           0       13.121687    0.293690    5.202763
    138          1           0        9.883485    1.776682    6.246923
    139          1           0       10.076531   -0.005393    6.075886
    140          1           0        9.115817    1.000159    4.855600
 ---------------------------------------------------------------------

 SCF Done:  E(RCAM-B3LYP) =  -3007.13706138     A.U. after   19 cycles

 Excitation energies and oscillator strengths:

 Excited State   1:      Singlet-A      1.6751 eV  740.16 nm  f=0.3606  <S**2>=0.000
     245 -> 248        0.18690
     246 -> 247        0.68248
     245 <- 248        0.10805
 This state for optimization and/or second-order correction.
 Total Energy, E(TD-HF/TD-DFT) =  -3007.07550237
 Copying the excited state density for this state as the 1-particle RhoCI density.

 Excited State   2:      Singlet-A      2.2123 eV  560.43 nm  f=0.0721  <S**2>=0.000
     245 -> 247        0.61532
     246 -> 248       -0.33218

 Excited State   3:      Singlet-A      3.3154 eV  373.97 nm  f=0.0560  <S**2>=0.000
     244 -> 247        0.64346
     246 -> 248        0.23462

 Excited State   4:      Singlet-A      3.3663 eV  368.31 nm  f=0.6586  <S**2>=0.000
     240 -> 247        0.11383
     241 -> 247        0.12222
     244 -> 247       -0.23321
     245 -> 247        0.30526
     246 -> 248        0.56610
     245 <- 247       -0.10362

 Excited State   5:      Singlet-A      3.5361 eV  350.63 nm  f=0.0015  <S**2>=0.000
     241 -> 247        0.35873
     241 -> 249       -0.15794
     241 -> 251       -0.17470
     242 -> 247        0.43852
     242 -> 249       -0.16870
     242 -> 250        0.10045
     242 -> 251       -0.18289

 The electronic state is 1-A.
 Alpha  occ. eigenvalues --  -46.87191 -19.25654 -19.23899 -19.21071 -19.20629
 Alpha  occ. eigenvalues --  -19.19684 -19.17853 -14.41692 -14.41621 -14.39617
 Alpha  occ. eigenvalues --  -14.38343 -10.39478 -10.38584 -10.37149 -10.34341
 Alpha  occ. eigenvalues --  -10.31722 -10.31015 -10.30998 -10.30713 -10.30514
 Alpha  occ. eigenvalues --  -10.30425 -10.30417 -10.30128 -10.29461 -10.28872
 Alpha  occ. eigenvalues --  -10.28655 -10.28544 -10.28354 -10.28139 -10.27786
 Alpha  occ. eigenvalues --  -10.27731 -10.27617 -10.27489 -10.27430 -10.27401
 Alpha  occ. eigenvalues --  -10.27138 -10.27087 -10.26939 -10.26845 -10.26644
 Alpha  occ. eigenvalues --  -10.26489 -10.26441 -10.26363 -10.26340 -10.26061
 Alpha  occ. eigenvalues --  -10.25883 -10.25797 -10.25793 -10.25518 -10.25506
 Alpha  occ. eigenvalues --  -10.25468 -10.25397 -10.25243 -10.25194 -10.24962
 Alpha  occ. eigenvalues --  -10.24927 -10.24838 -10.24773 -10.24761 -10.24714
 Alpha  occ. eigenvalues --  -10.24638 -10.24611 -10.24609 -10.24180 -10.24143
 Alpha  occ. eigenvalues --  -10.23824  -3.15913  -1.90782  -1.90347  -1.90250
 Alpha  occ. eigenvalues --   -1.16924  -1.15202  -1.10289  -1.09288  -1.08899
 Alpha  occ. eigenvalues --   -1.06472  -1.02790  -1.01840  -1.01003  -1.00148
 Alpha  occ. eigenvalues --   -0.91165  -0.90849  -0.90216  -0.89705  -0.88843
 Alpha  occ. eigenvalues --   -0.88511  -0.87925  -0.87706  -0.87296  -0.86642
 Alpha  occ. eigenvalues --   -0.85560  -0.85381  -0.84370  -0.83211  -0.82959
 Alpha  occ. eigenvalues --   -0.82595  -0.82221  -0.81338  -0.80563  -0.79985
 Alpha  occ. eigenvalues --   -0.79473  -0.78044  -0.77675  -0.76759  -0.76441
 Alpha  occ. eigenvalues --   -0.75905  -0.75396  -0.75218  -0.74612  -0.73928
 Alpha  occ. eigenvalues --   -0.72721  -0.72124  -0.71343  -0.70000  -0.69204
 Alpha  occ. eigenvalues --   -0.68353  -0.67945  -0.66937  -0.66369  -0.65503
 Alpha  occ. eigenvalues --   -0.64672  -0.64415  -0.63921  -0.63682  -0.63632
 Alpha  occ. eigenvalues --   -0.63050  -0.63021  -0.62258  -0.60414  -0.60324
 Alpha  occ. eigenvalues --   -0.59843  -0.59071  -0.58809  -0.57969  -0.57208
 Alpha  occ. eigenvalues --   -0.56911  -0.56866  -0.56046  -0.55757  -0.55547
 Alpha  occ. eigenvalues --   -0.55228  -0.54815  -0.54677  -0.54477  -0.54303
 Alpha  occ. eigenvalues --   -0.53855  -0.53638  -0.53301  -0.53124  -0.52788
 Alpha  occ. eigenvalues --   -0.52637  -0.52433  -0.52155  -0.51967  -0.51860
 Alpha  occ. eigenvalues --   -0.51725  -0.51176  -0.50952  -0.50844  -0.50574
 Alpha  occ. eigenvalues --   -0.50439  -0.50315  -0.49962  -0.49765  -0.49606
 Alpha  occ. eigenvalues --   -0.49562  -0.49103  -0.48935  -0.48795  -0.48745
 Alpha  occ. eigenvalues --   -0.48537  -0.47943  -0.47868  -0.47808  -0.47447
 Alpha  occ. eigenvalues --   -0.47227  -0.47085  -0.47002  -0.46792  -0.46474
 Alpha  occ. eigenvalues --   -0.46244  -0.46043  -0.45795  -0.45749  -0.45672
 Alpha  occ. eigenvalues --   -0.45273  -0.45141  -0.45029  -0.44774  -0.44597
 Alpha  occ. eigenvalues --   -0.44481  -0.44354  -0.44210  -0.44058  -0.43978
 Alpha  occ. eigenvalues --   -0.43434  -0.43343  -0.43173  -0.43053  -0.42835
 Alpha  occ. eigenvalues --   -0.42823  -0.42402  -0.42201  -0.42124  -0.42010
 Alpha  occ. eigenvalues --   -0.41714  -0.41613  -0.41536  -0.41459  -0.40971
 Alpha  occ. eigenvalues --   -0.40879  -0.40818  -0.40674  -0.39965  -0.39839
 Alpha  occ. eigenvalues --   -0.39786  -0.39532  -0.39187  -0.39172  -0.38545
 Alpha  occ. eigenvalues --   -0.38272  -0.38073  -0.37994  -0.37540  -0.37422
 Alpha  occ. eigenvalues --   -0.37232  -0.37141  -0.36404  -0.36344  -0.36217
 Alpha  occ. eigenvalues --   -0.35867  -0.35781  -0.34688  -0.34321  -0.34248
 Alpha  occ. eigenvalues --   -0.34038  -0.33393  -0.32857  -0.32280  -0.31357
 Alpha  occ. eigenvalues --   -0.30037  -0.29821  -0.29644  -0.28808  -0.23693
 Alpha  occ. eigenvalues --   -0.20529
 Alpha virt. eigenvalues --   -0.08153  -0.02052   0.00259   0.02381   0.02523
 Alpha virt. eigenvalues --    0.02617   0.04467   0.05065   0.05714   0.07137
 Alpha virt. eigenvalues --    0.08072   0.08115   0.08589   0.08836   0.09155

 Mulliken charges:
               1
     1  Mg   0.836267
     2  C   -0.033454
     3  C   -0.081452
     4  C   -0.069534
     5  C   -0.082008
     6  N   -0.295617
     7  C    0.000481
     8  C   -0.085228
     9  C   -0.026586
    10  C   -0.009216
    11  C    0.058322
    12  C    0.053042
    13  C    0.133881
    14  C    0.129901
    15  O   -0.211232
    16  O   -0.346937
    17  N   -0.413675
    18  C    0.195043
    19  C   -0.130372
    20  C   -0.055374
    21  C    0.110866
    22  C    0.104794
    23  C    0.046229
    24  O   -0.203143
    25  C    0.041627
    26  N   -0.312536
    27  C    0.053558
    28  C   -0.037397
    29  C   -0.007133
    30  C    0.107728
    31  C    0.067174
    32  C    0.005484
    33  C    0.013678
    34  N   -0.417186
    35  C    0.101149
    36  C   -0.175280
    37  C    0.058531
    38  C    0.112416
    39  C    0.123412
    40  C   -0.019536
    41  O   -0.179340
    42  C    0.006259
    43  C    0.219356
    44  O   -0.186439
    45  O   -0.380237
    46  C    0.173549
    47  C    0.254571
    48  C   -0.132771
    49  C   -0.157217
    50  C    0.079362
    51  C    0.069956
    52  C   -0.049006
    53  C    0.099066
    54  C   -0.123706
    55  C    0.045241
    56  C    0.019166
    57  C   -0.012922
    58  C    0.061848
    59  C   -0.150638
    60  C    0.071266
    61  C    0.038032
    62  C    0.021418
    63  C    0.047208
    64  C   -0.166060
    65  C    0.048818
    66  C    0.073351
    67  H   -0.037349
    68  H   -0.006542
    69  H   -0.045351
    70  H    0.055378
    71  H    0.010902
    72  H    0.042507
    73  H    0.032165
    74  H   -0.002220
    75  H    0.007541
    76  H    0.016580
    77  H    0.020920
    78  H    0.016125
    79  H    0.038098
    80  H    0.008585
    81  H    0.019705
    82  H    0.048233
    83  H    0.056831
    84  H    0.030849
    85  H    0.007571
    86  H    0.007096
    87  H    0.028593
    88  H    0.017024
    89  H    0.011733
    90  H    0.001342
    91  H    0.006524
    92  H    0.013893
    93  H    0.019330
    94  H    0.024024
    95  H    0.017779
    96  H    0.047025
    97  H    0.020144
    98  H    0.059015
    99  H    0.053896
   100  H    0.049151
   101  H    0.032682
   102  H    0.028032
   103  H    0.011338
   104  H    0.006985
   105  H    0.034918
   106  H    0.014033
   107  H    0.035625
   108  H    0.029103
   109  H   -0.007918
   110  H   -0.001965
   111  H    0.030353
   112  H   -0.010187
   113  H   -0.001072
   114  H   -0.005006
   115  H    0.008524
   116  H    0.006707
   117  H   -0.001765
   118  H   -0.015655
   119  H   -0.006637
   120  H   -0.013851
   121  H    0.004442
   122  H   -0.010424
   123  H   -0.007219
   124  H    0.000018
   125  H    0.012075
   126  H    0.015218
   127  H    0.005190
   128  H    0.009281
   129  H   -0.005517
   130  H    0.000163
   131  H    0.004807
   132  H   -0.012600
   133  H   -0.021242
   134  H   -0.018401
   135  H   -0.005687
   136  H    0.010098
   137  H   -0.001750
   138  H    0.007622
   139  H    0.010388
   140  H    0.001376
 Sum of Mulliken charges =  -0.00000

 Dipole moment (field-independent basis, Debye):
    X=              4.8047    Y=              3.7473    Z=             -3.5859  Tot=              7.0701
 Quadrupole moment (field-independent basis, Debye-Ang):
   XX=           -379.2939   YY=           -415.9252   ZZ=           -407.9589
   XY=            -20.8578   XZ=             -6.2017   YZ=              3.9271

 Normal termination of Gaussian 16 at Wed May  4 08:08:55 2022.
