 Gaussian 16, Revision A.03,
 Gaussian 16:  ES64L-G16RevA.03 25-Dec-2016

 ---------------------------------
 #p PBE1PBE/Def2SVP td=(nstates=5)
 ---------------------------------

 -----------------------------------------------------
 step_1501_chromophore_9 TDDFT with PBE1PBE functional
 -----------------------------------------------------
 Symbolic Z-matrix:
 Charge =  0 Multiplicity = 1

                         Standard orientation:
 ---------------------------------------------------------------------
 Center     Atomic      Atomic             Coordinates (Angstroms)
 Number     Number       Type             X           Y           Z
 ---------------------------------------------------------------------
      1         12           0       -5.041482    0.719957   -0.295029
      2          6           0       -3.678326   -2.621431   -0.069815
      3          6           0       -1.834024    1.917031   -0.509002
      4          6           0       -6.215123    3.849176    0.021013
      5          6           0       -8.116819   -0.630844    0.731405
      6          7           0       -3.032489   -0.284857   -0.217671
      7          6           0       -2.708714   -1.633293   -0.365447
      8          6           0       -1.227860   -1.797286   -0.529781
      9          6           0       -0.630238   -0.320618   -0.511789
     10          6           0       -1.873539    0.490100   -0.396227
     11          6           0        0.446525   -0.001561    0.518485
     12          6           0       -0.740567   -2.778023   -1.691012
     13          6           0        0.333814   -3.728562   -1.332154
     14          6           0        1.412472   -3.118906   -0.476321
     15          8           0        1.430837   -3.260702    0.718761
     16          8           0        2.338608   -2.417243   -1.252268
     17          7           0       -4.164307    2.569819   -0.134640
     18          6           0       -2.826943    2.908330   -0.395051
     19          6           0       -2.635196    4.345978   -0.561460
     20          6           0       -3.906818    4.952021   -0.418189
     21          6           0       -4.855164    3.810214   -0.190265
     22          6           0       -1.221056    4.916484   -0.825988
     23          6           0       -4.314712    6.497068   -0.369723
     24          8           0       -5.490191    6.807870   -0.113712
     25          6           0       -3.189224    7.488782   -0.444015
     26          7           0       -6.879373    1.485140    0.319567
     27          6           0       -7.119702    2.850792    0.384443
     28          6           0       -8.553976    3.117584    0.951249
     29          6           0       -9.108186    1.640054    1.066090
     30          6           0       -7.985995    0.757165    0.621036
     31          6           0       -8.656956    4.056969    2.194504
     32          6           0      -10.529718    1.300454    0.569724
     33          6           0      -10.623913    0.921086   -0.921209
     34          7           0       -5.796084   -1.124496    0.146439
     35          6           0       -7.123797   -1.565445    0.516113
     36          6           0       -7.191243   -2.995871    0.579972
     37          6           0       -5.876805   -3.445761    0.357752
     38          6           0       -5.077013   -2.338690    0.157014
     39          6           0       -8.427707   -3.767005    1.024436
     40          6           0       -5.011089   -4.587832    0.262690
     41          8           0       -5.246337   -5.787684    0.347792
     42          6           0       -3.532843   -4.189574   -0.114698
     43          6           0       -2.524789   -4.710032    0.828597
     44          8           0       -2.108703   -4.054970    1.738115
     45          8           0       -1.937654   -5.936401    0.423787
     46          6           0       -0.919566   -6.341470    1.502184
     47          6           0        3.553788   -2.200334   -0.453361
     48          6           0        4.653926   -1.720969   -1.366959
     49          6           0        5.600481   -2.593103   -1.962232
     50          6           0        5.572789   -4.124452   -1.872993
     51          6           0        6.547185   -1.978839   -2.969645
     52          6           0        7.425925   -0.862629   -2.303870
     53          6           0        8.385364   -0.251974   -3.361699
     54          6           0        7.823552    1.149841   -3.630772
     55          6           0        7.446980    1.478640   -5.134850
     56          6           0        8.790226    2.288033   -3.134476
     57          6           0        9.024337    2.457888   -1.634441
     58          6           0       10.419823    1.900454   -1.004353
     59          6           0       10.393112    1.990240    0.542643
     60          6           0       11.493671    2.934711    1.015356
     61          6           0       10.603351    0.531924    1.028287
     62          6           0       10.009761    0.310142    2.454558
     63          6           0       11.072758    0.075053    3.537585
     64          6           0       11.134812    1.115288    4.631595
     65          6           0       12.522936    1.200914    5.293268
     66          6           0        9.953829    0.941163    5.550268
     67          1           0       -0.828389    2.141572   -0.870037
     68          1           0       -6.583572    4.876840    0.034165
     69          1           0       -9.023550   -1.172037    1.009954
     70          1           0       -0.885861   -2.252686    0.399378
     71          1           0       -0.226347   -0.198601   -1.517951
     72          1           0        1.087944   -0.781318    0.930383
     73          1           0        0.204150    0.750602    1.269489
     74          1           0        1.125133    0.420441   -0.222986
     75          1           0       -0.323097   -2.181275   -2.501273
     76          1           0       -1.626417   -3.310410   -2.038211
     77          1           0        0.821691   -4.156231   -2.207854
     78          1           0       -0.111601   -4.530903   -0.743623
     79          1           0       -0.630926    5.226184    0.036239
     80          1           0       -1.291460    5.786193   -1.479772
     81          1           0       -0.608633    4.176806   -1.341982
     82          1           0       -2.835529    7.439540   -1.474002
     83          1           0       -2.410915    7.320486    0.300284
     84          1           0       -3.607973    8.478479   -0.259897
     85          1           0       -9.055668    3.700310    0.178862
     86          1           0       -9.233731    1.545696    2.144209
     87          1           0       -7.629751    4.383679    2.357802
     88          1           0       -9.130610    3.599113    3.062965
     89          1           0       -9.246675    4.947301    1.975585
     90          1           0      -11.188640    2.157042    0.712742
     91          1           0      -10.912008    0.492409    1.194026
     92          1           0      -11.335086    1.669362   -1.269906
     93          1           0      -10.950766   -0.106871   -1.080292
     94          1           0       -9.635554    1.058314   -1.359915
     95          1           0       -9.090018   -3.172628    1.654780
     96          1           0       -7.994617   -4.674119    1.446047
     97          1           0       -9.080972   -3.982577    0.179412
     98          1           0       -3.458744   -4.560558   -1.136341
     99          1           0       -1.359088   -6.472227    2.491026
    100          1           0       -0.211862   -5.513262    1.469779
    101          1           0       -0.430667   -7.238374    1.121095
    102          1           0        3.964790   -3.066447    0.066209
    103          1           0        3.369334   -1.405515    0.268737
    104          1           0        4.741341   -0.634990   -1.335445
    105          1           0        5.648351   -4.434256   -2.915585
    106          1           0        4.661068   -4.531297   -1.436152
    107          1           0        6.349595   -4.504229   -1.209301
    108          1           0        5.993736   -1.592801   -3.826196
    109          1           0        7.301918   -2.715531   -3.244061
    110          1           0        8.124953   -1.388686   -1.653696
    111          1           0        6.743996   -0.142853   -1.850659
    112          1           0        8.396230   -0.907186   -4.232289
    113          1           0        9.401937   -0.350469   -2.978706
    114          1           0        6.949303    1.439094   -3.046994
    115          1           0        8.178827    2.075358   -5.678461
    116          1           0        6.515651    2.035275   -5.233925
    117          1           0        7.355101    0.524049   -5.652696
    118          1           0        8.225098    3.177640   -3.410603
    119          1           0        9.707161    2.239204   -3.723234
    120          1           0        8.222725    1.813857   -1.274356
    121          1           0        8.874025    3.498583   -1.348801
    122          1           0       11.211817    2.532591   -1.404237
    123          1           0       10.505023    0.894091   -1.413665
    124          1           0        9.405774    2.379775    0.789305
    125          1           0       12.343578    2.344273    1.357252
    126          1           0       10.960074    3.554237    1.737205
    127          1           0       11.885555    3.644537    0.286756
    128          1           0       11.628388    0.219110    0.829787
    129          1           0        9.874733   -0.122263    0.549164
    130          1           0        9.328990   -0.540356    2.398924
    131          1           0        9.477873    1.230104    2.696631
    132          1           0       12.098848    0.018725    3.176375
    133          1           0       10.845865   -0.861129    4.048657
    134          1           0       11.001117    2.025202    4.046795
    135          1           0       12.451217    1.326617    6.373970
    136          1           0       13.166597    1.994149    4.911763
    137          1           0       13.121687    0.293690    5.202763
    138          1           0        9.883485    1.776682    6.246923
    139          1           0       10.076531   -0.005393    6.075886
    140          1           0        9.115817    1.000159    4.855600
 ---------------------------------------------------------------------

 SCF Done:  E(RPBE1PBE) =  -3005.32581696     A.U. after   15 cycles

 Excitation energies and oscillator strengths:

 Excited State   1:      Singlet-A      1.8164 eV  682.59 nm  f=0.3494  <S**2>=0.000
     245 -> 248       -0.17682
     246 -> 247        0.68963
     246 <- 247       -0.10305
 This state for optimization and/or second-order correction.
 Total Energy, E(TD-HF/TD-DFT) =  -3005.25906602
 Copying the excited state density for this state as the 1-particle RhoCI density.

 Excited State   2:      Singlet-A      2.2158 eV  559.54 nm  f=0.0737  <S**2>=0.000
     245 -> 247        0.63039
     246 -> 248        0.29895

 Excited State   3:      Singlet-A      2.9497 eV  420.33 nm  f=0.0026  <S**2>=0.000
     243 -> 247        0.30850
     244 -> 247        0.60045
     246 -> 248       -0.11703

 Excited State   4:      Singlet-A      3.0252 eV  409.84 nm  f=0.0003  <S**2>=0.000
     243 -> 247        0.59826
     244 -> 247       -0.33029

 Excited State   5:      Singlet-A      3.1318 eV  395.89 nm  f=0.3315  <S**2>=0.000
     244 -> 247        0.12349
     245 -> 247       -0.24814
     246 -> 248        0.58745
     246 -> 249        0.22735

 The electronic state is 1-A.
 Alpha  occ. eigenvalues --  -46.90651 -19.26311 -19.24617 -19.21333 -19.20674
 Alpha  occ. eigenvalues --  -19.19926 -19.18247 -14.41226 -14.41173 -14.39232
 Alpha  occ. eigenvalues --  -14.38213 -10.36542 -10.35619 -10.34141 -10.31638
 Alpha  occ. eigenvalues --  -10.29111 -10.28633 -10.28602 -10.28286 -10.28049
 Alpha  occ. eigenvalues --  -10.28033 -10.28009 -10.27897 -10.26907 -10.26582
 Alpha  occ. eigenvalues --  -10.26431 -10.26329 -10.26168 -10.25869 -10.25734
 Alpha  occ. eigenvalues --  -10.25413 -10.25382 -10.25212 -10.25006 -10.24820
 Alpha  occ. eigenvalues --  -10.24785 -10.24573 -10.24485 -10.24458 -10.24329
 Alpha  occ. eigenvalues --  -10.24130 -10.24117 -10.24099 -10.23935 -10.23743
 Alpha  occ. eigenvalues --  -10.23474 -10.23465 -10.23414 -10.23210 -10.23093
 Alpha  occ. eigenvalues --  -10.23000 -10.22934 -10.22750 -10.22705 -10.22679
 Alpha  occ. eigenvalues --  -10.22522 -10.22390 -10.22385 -10.22372 -10.22326
 Alpha  occ. eigenvalues --  -10.22183 -10.22093 -10.21990 -10.21543 -10.21491
 Alpha  occ. eigenvalues --  -10.21350  -3.12944  -1.85753  -1.85297  -1.85206
 Alpha  occ. eigenvalues --   -1.11700  -1.09965  -1.04840  -1.04158  -1.03788
 Alpha  occ. eigenvalues --   -1.01359  -0.97388  -0.96407  -0.95566  -0.94869
 Alpha  occ. eigenvalues --   -0.85616  -0.84968  -0.84303  -0.83910  -0.82968
 Alpha  occ. eigenvalues --   -0.82798  -0.82071  -0.81984  -0.81575  -0.80784
 Alpha  occ. eigenvalues --   -0.80011  -0.79699  -0.78551  -0.77479  -0.77178
 Alpha  occ. eigenvalues --   -0.76725  -0.76415  -0.75552  -0.74910  -0.74123
 Alpha  occ. eigenvalues --   -0.73813  -0.72253  -0.72000  -0.71109  -0.70614
 Alpha  occ. eigenvalues --   -0.69969  -0.69735  -0.69335  -0.68974  -0.68103
 Alpha  occ. eigenvalues --   -0.67089  -0.66594  -0.65792  -0.64305  -0.63561
 Alpha  occ. eigenvalues --   -0.62619  -0.62349  -0.61148  -0.60800  -0.59729
 Alpha  occ. eigenvalues --   -0.59258  -0.58855  -0.58202  -0.58137  -0.57969
 Alpha  occ. eigenvalues --   -0.57640  -0.57245  -0.56404  -0.54959  -0.54770
 Alpha  occ. eigenvalues --   -0.54280  -0.53635  -0.53368  -0.52474  -0.51712
 Alpha  occ. eigenvalues --   -0.51581  -0.51273  -0.50642  -0.50213  -0.50148
 Alpha  occ. eigenvalues --   -0.49788  -0.49229  -0.49177  -0.48978  -0.48835
 Alpha  occ. eigenvalues --   -0.48345  -0.48092  -0.47789  -0.47456  -0.47254
 Alpha  occ. eigenvalues --   -0.47230  -0.46941  -0.46752  -0.46548  -0.46412
 Alpha  occ. eigenvalues --   -0.46303  -0.45757  -0.45497  -0.45328  -0.45063
 Alpha  occ. eigenvalues --   -0.45001  -0.44976  -0.44599  -0.44265  -0.44142
 Alpha  occ. eigenvalues --   -0.44098  -0.43681  -0.43538  -0.43375  -0.43284
 Alpha  occ. eigenvalues --   -0.43207  -0.42639  -0.42555  -0.42476  -0.42051
 Alpha  occ. eigenvalues --   -0.41885  -0.41767  -0.41677  -0.41329  -0.41057
 Alpha  occ. eigenvalues --   -0.40938  -0.40747  -0.40557  -0.40384  -0.40337
 Alpha  occ. eigenvalues --   -0.40100  -0.39905  -0.39668  -0.39533  -0.39339
 Alpha  occ. eigenvalues --   -0.39269  -0.39048  -0.38953  -0.38800  -0.38700
 Alpha  occ. eigenvalues --   -0.38184  -0.38061  -0.37998  -0.37836  -0.37672
 Alpha  occ. eigenvalues --   -0.37573  -0.37380  -0.37055  -0.36934  -0.36860
 Alpha  occ. eigenvalues --   -0.36512  -0.36506  -0.36432  -0.36128  -0.35852
 Alpha  occ. eigenvalues --   -0.35750  -0.35661  -0.35481  -0.34769  -0.34745
 Alpha  occ. eigenvalues --   -0.34662  -0.34440  -0.34162  -0.34011  -0.33354
 Alpha  occ. eigenvalues --   -0.33290  -0.32965  -0.32882  -0.32380  -0.32328
 Alpha  occ. eigenvalues --   -0.32158  -0.31969  -0.31480  -0.31234  -0.31192
 Alpha  occ. eigenvalues --   -0.30805  -0.30662  -0.29576  -0.29539  -0.29196
 Alpha  occ. eigenvalues --   -0.28871  -0.28529  -0.28385  -0.26957  -0.26846
 Alpha  occ. eigenvalues --   -0.25606  -0.25024  -0.24937  -0.24550  -0.20609
 Alpha  occ. eigenvalues --   -0.18194
 Alpha virt. eigenvalues --   -0.10670  -0.05540  -0.03869  -0.01977  -0.01832
 Alpha virt. eigenvalues --   -0.00294  -0.00145   0.00439   0.01205   0.02827
 Alpha virt. eigenvalues --    0.04408   0.04798   0.04960   0.05225   0.05891

 Mulliken charges:
               1
     1  Mg   0.987044
     2  C   -0.026560
     3  C   -0.079787
     4  C   -0.072933
     5  C   -0.071324
     6  N   -0.392803
     7  C    0.069678
     8  C   -0.153038
     9  C   -0.107368
    10  C    0.032757
    11  C   -0.000114
    12  C   -0.000514
    13  C    0.047020
    14  C    0.192963
    15  O   -0.242890
    16  O   -0.373876
    17  N   -0.517527
    18  C    0.209139
    19  C   -0.158985
    20  C   -0.090671
    21  C    0.133012
    22  C    0.047928
    23  C    0.092279
    24  O   -0.241548
    25  C   -0.030038
    26  N   -0.422744
    27  C    0.084560
    28  C   -0.101891
    29  C   -0.080083
    30  C    0.138834
    31  C    0.006512
    32  C   -0.058855
    33  C   -0.059279
    34  N   -0.530731
    35  C    0.118595
    36  C   -0.178101
    37  C   -0.001041
    38  C    0.149552
    39  C    0.068191
    40  C    0.082609
    41  O   -0.222433
    42  C   -0.113010
    43  C    0.304425
    44  O   -0.218396
    45  O   -0.408594
    46  C    0.112619
    47  C    0.204788
    48  C   -0.139060
    49  C   -0.192678
    50  C    0.011542
    51  C    0.005984
    52  C   -0.121117
    53  C    0.051165
    54  C   -0.214213
    55  C   -0.013180
    56  C   -0.031419
    57  C   -0.080873
    58  C    0.008521
    59  C   -0.239459
    60  C    0.017173
    61  C   -0.020359
    62  C   -0.040896
    63  C   -0.004560
    64  C   -0.266061
    65  C   -0.010574
    66  C    0.008597
    67  H   -0.004580
    68  H    0.026470
    69  H   -0.012100
    70  H    0.097780
    71  H    0.048083
    72  H    0.070751
    73  H    0.060029
    74  H    0.025214
    75  H    0.040641
    76  H    0.050985
    77  H    0.053473
    78  H    0.057969
    79  H    0.063800
    80  H    0.036546
    81  H    0.046038
    82  H    0.074264
    83  H    0.082378
    84  H    0.057783
    85  H    0.046133
    86  H    0.048052
    87  H    0.057679
    88  H    0.043058
    89  H    0.038828
    90  H    0.035274
    91  H    0.037912
    92  H    0.041755
    93  H    0.046481
    94  H    0.055057
    95  H    0.044502
    96  H    0.075149
    97  H    0.049729
    98  H    0.094254
    99  H    0.076657
   100  H    0.072217
   101  H    0.055310
   102  H    0.054673
   103  H    0.039644
   104  H    0.035195
   105  H    0.062125
   106  H    0.041641
   107  H    0.063296
   108  H    0.062253
   109  H    0.025356
   110  H    0.033490
   111  H    0.060886
   112  H    0.021376
   113  H    0.030701
   114  H    0.033190
   115  H    0.035204
   116  H    0.034253
   117  H    0.025928
   118  H    0.019131
   119  H    0.026154
   120  H    0.024026
   121  H    0.036723
   122  H    0.022645
   123  H    0.027448
   124  H    0.036060
   125  H    0.038865
   126  H    0.041120
   127  H    0.032275
   128  H    0.039617
   129  H    0.031017
   130  H    0.032271
   131  H    0.035749
   132  H    0.020091
   133  H    0.012925
   134  H    0.025487
   135  H    0.022256
   136  H    0.037192
   137  H    0.025243
   138  H    0.036247
   139  H    0.037750
   140  H    0.031028
 Sum of Mulliken charges =  -0.00000

 Dipole moment (field-independent basis, Debye):
    X=              4.6158    Y=              3.3529    Z=             -3.5679  Tot=              6.7288
 Quadrupole moment (field-independent basis, Debye-Ang):
   XX=           -371.5931   YY=           -414.0616   ZZ=           -405.4569
   XY=            -19.4368   XZ=             -7.4826   YZ=              4.2092

 Normal termination of Gaussian 16 at Wed May  4 08:28:36 2022.
