 Gaussian 16, Revision A.03,
 Gaussian 16:  ES64L-G16RevA.03 25-Dec-2016

 --------------------------------
 #p wB97XD/Def2SVP td=(nstates=5)
 --------------------------------

 ----------------------------------------------------
 step_1501_chromophore_9 TDDFT with wB97XD functional
 ----------------------------------------------------
 Symbolic Z-matrix:
 Charge =  0 Multiplicity = 1

                         Standard orientation:
 ---------------------------------------------------------------------
 Center     Atomic      Atomic             Coordinates (Angstroms)
 Number     Number       Type             X           Y           Z
 ---------------------------------------------------------------------
      1         12           0       -5.041482    0.719957   -0.295029
      2          6           0       -3.678326   -2.621431   -0.069815
      3          6           0       -1.834024    1.917031   -0.509002
      4          6           0       -6.215123    3.849176    0.021013
      5          6           0       -8.116819   -0.630844    0.731405
      6          7           0       -3.032489   -0.284857   -0.217671
      7          6           0       -2.708714   -1.633293   -0.365447
      8          6           0       -1.227860   -1.797286   -0.529781
      9          6           0       -0.630238   -0.320618   -0.511789
     10          6           0       -1.873539    0.490100   -0.396227
     11          6           0        0.446525   -0.001561    0.518485
     12          6           0       -0.740567   -2.778023   -1.691012
     13          6           0        0.333814   -3.728562   -1.332154
     14          6           0        1.412472   -3.118906   -0.476321
     15          8           0        1.430837   -3.260702    0.718761
     16          8           0        2.338608   -2.417243   -1.252268
     17          7           0       -4.164307    2.569819   -0.134640
     18          6           0       -2.826943    2.908330   -0.395051
     19          6           0       -2.635196    4.345978   -0.561460
     20          6           0       -3.906818    4.952021   -0.418189
     21          6           0       -4.855164    3.810214   -0.190265
     22          6           0       -1.221056    4.916484   -0.825988
     23          6           0       -4.314712    6.497068   -0.369723
     24          8           0       -5.490191    6.807870   -0.113712
     25          6           0       -3.189224    7.488782   -0.444015
     26          7           0       -6.879373    1.485140    0.319567
     27          6           0       -7.119702    2.850792    0.384443
     28          6           0       -8.553976    3.117584    0.951249
     29          6           0       -9.108186    1.640054    1.066090
     30          6           0       -7.985995    0.757165    0.621036
     31          6           0       -8.656956    4.056969    2.194504
     32          6           0      -10.529718    1.300454    0.569724
     33          6           0      -10.623913    0.921086   -0.921209
     34          7           0       -5.796084   -1.124496    0.146439
     35          6           0       -7.123797   -1.565445    0.516113
     36          6           0       -7.191243   -2.995871    0.579972
     37          6           0       -5.876805   -3.445761    0.357752
     38          6           0       -5.077013   -2.338690    0.157014
     39          6           0       -8.427707   -3.767005    1.024436
     40          6           0       -5.011089   -4.587832    0.262690
     41          8           0       -5.246337   -5.787684    0.347792
     42          6           0       -3.532843   -4.189574   -0.114698
     43          6           0       -2.524789   -4.710032    0.828597
     44          8           0       -2.108703   -4.054970    1.738115
     45          8           0       -1.937654   -5.936401    0.423787
     46          6           0       -0.919566   -6.341470    1.502184
     47          6           0        3.553788   -2.200334   -0.453361
     48          6           0        4.653926   -1.720969   -1.366959
     49          6           0        5.600481   -2.593103   -1.962232
     50          6           0        5.572789   -4.124452   -1.872993
     51          6           0        6.547185   -1.978839   -2.969645
     52          6           0        7.425925   -0.862629   -2.303870
     53          6           0        8.385364   -0.251974   -3.361699
     54          6           0        7.823552    1.149841   -3.630772
     55          6           0        7.446980    1.478640   -5.134850
     56          6           0        8.790226    2.288033   -3.134476
     57          6           0        9.024337    2.457888   -1.634441
     58          6           0       10.419823    1.900454   -1.004353
     59          6           0       10.393112    1.990240    0.542643
     60          6           0       11.493671    2.934711    1.015356
     61          6           0       10.603351    0.531924    1.028287
     62          6           0       10.009761    0.310142    2.454558
     63          6           0       11.072758    0.075053    3.537585
     64          6           0       11.134812    1.115288    4.631595
     65          6           0       12.522936    1.200914    5.293268
     66          6           0        9.953829    0.941163    5.550268
     67          1           0       -0.828389    2.141572   -0.870037
     68          1           0       -6.583572    4.876840    0.034165
     69          1           0       -9.023550   -1.172037    1.009954
     70          1           0       -0.885861   -2.252686    0.399378
     71          1           0       -0.226347   -0.198601   -1.517951
     72          1           0        1.087944   -0.781318    0.930383
     73          1           0        0.204150    0.750602    1.269489
     74          1           0        1.125133    0.420441   -0.222986
     75          1           0       -0.323097   -2.181275   -2.501273
     76          1           0       -1.626417   -3.310410   -2.038211
     77          1           0        0.821691   -4.156231   -2.207854
     78          1           0       -0.111601   -4.530903   -0.743623
     79          1           0       -0.630926    5.226184    0.036239
     80          1           0       -1.291460    5.786193   -1.479772
     81          1           0       -0.608633    4.176806   -1.341982
     82          1           0       -2.835529    7.439540   -1.474002
     83          1           0       -2.410915    7.320486    0.300284
     84          1           0       -3.607973    8.478479   -0.259897
     85          1           0       -9.055668    3.700310    0.178862
     86          1           0       -9.233731    1.545696    2.144209
     87          1           0       -7.629751    4.383679    2.357802
     88          1           0       -9.130610    3.599113    3.062965
     89          1           0       -9.246675    4.947301    1.975585
     90          1           0      -11.188640    2.157042    0.712742
     91          1           0      -10.912008    0.492409    1.194026
     92          1           0      -11.335086    1.669362   -1.269906
     93          1           0      -10.950766   -0.106871   -1.080292
     94          1           0       -9.635554    1.058314   -1.359915
     95          1           0       -9.090018   -3.172628    1.654780
     96          1           0       -7.994617   -4.674119    1.446047
     97          1           0       -9.080972   -3.982577    0.179412
     98          1           0       -3.458744   -4.560558   -1.136341
     99          1           0       -1.359088   -6.472227    2.491026
    100          1           0       -0.211862   -5.513262    1.469779
    101          1           0       -0.430667   -7.238374    1.121095
    102          1           0        3.964790   -3.066447    0.066209
    103          1           0        3.369334   -1.405515    0.268737
    104          1           0        4.741341   -0.634990   -1.335445
    105          1           0        5.648351   -4.434256   -2.915585
    106          1           0        4.661068   -4.531297   -1.436152
    107          1           0        6.349595   -4.504229   -1.209301
    108          1           0        5.993736   -1.592801   -3.826196
    109          1           0        7.301918   -2.715531   -3.244061
    110          1           0        8.124953   -1.388686   -1.653696
    111          1           0        6.743996   -0.142853   -1.850659
    112          1           0        8.396230   -0.907186   -4.232289
    113          1           0        9.401937   -0.350469   -2.978706
    114          1           0        6.949303    1.439094   -3.046994
    115          1           0        8.178827    2.075358   -5.678461
    116          1           0        6.515651    2.035275   -5.233925
    117          1           0        7.355101    0.524049   -5.652696
    118          1           0        8.225098    3.177640   -3.410603
    119          1           0        9.707161    2.239204   -3.723234
    120          1           0        8.222725    1.813857   -1.274356
    121          1           0        8.874025    3.498583   -1.348801
    122          1           0       11.211817    2.532591   -1.404237
    123          1           0       10.505023    0.894091   -1.413665
    124          1           0        9.405774    2.379775    0.789305
    125          1           0       12.343578    2.344273    1.357252
    126          1           0       10.960074    3.554237    1.737205
    127          1           0       11.885555    3.644537    0.286756
    128          1           0       11.628388    0.219110    0.829787
    129          1           0        9.874733   -0.122263    0.549164
    130          1           0        9.328990   -0.540356    2.398924
    131          1           0        9.477873    1.230104    2.696631
    132          1           0       12.098848    0.018725    3.176375
    133          1           0       10.845865   -0.861129    4.048657
    134          1           0       11.001117    2.025202    4.046795
    135          1           0       12.451217    1.326617    6.373970
    136          1           0       13.166597    1.994149    4.911763
    137          1           0       13.121687    0.293690    5.202763
    138          1           0        9.883485    1.776682    6.246923
    139          1           0       10.076531   -0.005393    6.075886
    140          1           0        9.115817    1.000159    4.855600
 ---------------------------------------------------------------------

 SCF Done:  E(RwB97XD) =  -3007.83889063     A.U. after   20 cycles

 Excitation energies and oscillator strengths:

 Excited State   1:      Singlet-A      1.6205 eV  765.12 nm  f=0.3593  <S**2>=0.000
     245 -> 248       -0.19192
     246 -> 247        0.68048
     245 <- 248       -0.11744
 This state for optimization and/or second-order correction.
 Total Energy, E(TD-HF/TD-DFT) =  -3007.77934004
 Copying the excited state density for this state as the 1-particle RhoCI density.

 Excited State   2:      Singlet-A      2.1535 eV  575.73 nm  f=0.0716  <S**2>=0.000
     245 -> 247        0.61489
     246 -> 248        0.33085

 Excited State   3:      Singlet-A      3.3274 eV  372.62 nm  f=0.0397  <S**2>=0.000
     244 -> 247        0.64791
     246 -> 248       -0.21047

 Excited State   4:      Singlet-A      3.3833 eV  366.46 nm  f=0.6816  <S**2>=0.000
     240 -> 247       -0.12372
     241 -> 247       -0.17802
     244 -> 247        0.19041
     245 -> 247       -0.30263
     246 -> 248        0.57069
     245 <- 247        0.10990

 Excited State   5:      Singlet-A      3.5836 eV  345.97 nm  f=0.0007  <S**2>=0.000
     241 -> 247        0.14060
     241 -> 250        0.10005
     242 -> 247        0.52529
     242 -> 249        0.23619
     242 -> 250        0.29535
     243 -> 247       -0.11261

 The electronic state is 1-A.
 Alpha  occ. eigenvalues --  -46.93567 -19.30865 -19.29113 -19.25961 -19.25708
 Alpha  occ. eigenvalues --  -19.24562 -19.22867 -14.46293 -14.46243 -14.44284
 Alpha  occ. eigenvalues --  -14.42979 -10.43282 -10.42394 -10.41185 -10.38323
 Alpha  occ. eigenvalues --  -10.35628 -10.35096 -10.35074 -10.34626 -10.34533
 Alpha  occ. eigenvalues --  -10.34480 -10.34430 -10.34083 -10.33684 -10.32915
 Alpha  occ. eigenvalues --  -10.32833 -10.32525 -10.32317 -10.32174 -10.31914
 Alpha  occ. eigenvalues --  -10.31721 -10.31672 -10.31553 -10.31444 -10.31332
 Alpha  occ. eigenvalues --  -10.31103 -10.31008 -10.30938 -10.30924 -10.30530
 Alpha  occ. eigenvalues --  -10.30468 -10.30454 -10.30356 -10.30310 -10.30061
 Alpha  occ. eigenvalues --  -10.29756 -10.29730 -10.29701 -10.29571 -10.29493
 Alpha  occ. eigenvalues --  -10.29357 -10.29327 -10.29150 -10.29135 -10.28874
 Alpha  occ. eigenvalues --  -10.28815 -10.28761 -10.28741 -10.28736 -10.28627
 Alpha  occ. eigenvalues --  -10.28548 -10.28438 -10.28428 -10.27984 -10.27952
 Alpha  occ. eigenvalues --  -10.27724  -3.19711  -1.93270  -1.92815  -1.92720
 Alpha  occ. eigenvalues --   -1.19053  -1.17298  -1.12550  -1.11470  -1.11098
 Alpha  occ. eigenvalues --   -1.08659  -1.04774  -1.03838  -1.03062  -1.02159
 Alpha  occ. eigenvalues --   -0.93113  -0.92644  -0.91974  -0.91535  -0.90637
 Alpha  occ. eigenvalues --   -0.90416  -0.89721  -0.89606  -0.89210  -0.88617
 Alpha  occ. eigenvalues --   -0.87488  -0.87287  -0.86218  -0.85118  -0.84889
 Alpha  occ. eigenvalues --   -0.84508  -0.84077  -0.83212  -0.82486  -0.81807
 Alpha  occ. eigenvalues --   -0.81430  -0.80040  -0.79571  -0.78655  -0.78292
 Alpha  occ. eigenvalues --   -0.77681  -0.77330  -0.77030  -0.76553  -0.75772
 Alpha  occ. eigenvalues --   -0.74656  -0.74093  -0.73331  -0.71928  -0.71090
 Alpha  occ. eigenvalues --   -0.70253  -0.69931  -0.68804  -0.68405  -0.67370
 Alpha  occ. eigenvalues --   -0.66669  -0.66404  -0.65743  -0.65615  -0.65574
 Alpha  occ. eigenvalues --   -0.65039  -0.64893  -0.64067  -0.62329  -0.62301
 Alpha  occ. eigenvalues --   -0.61890  -0.61017  -0.60783  -0.59896  -0.59193
 Alpha  occ. eigenvalues --   -0.58869  -0.58789  -0.58008  -0.57649  -0.57517
 Alpha  occ. eigenvalues --   -0.57154  -0.56664  -0.56613  -0.56417  -0.56209
 Alpha  occ. eigenvalues --   -0.55737  -0.55527  -0.55255  -0.55043  -0.54663
 Alpha  occ. eigenvalues --   -0.54525  -0.54372  -0.54054  -0.53874  -0.53774
 Alpha  occ. eigenvalues --   -0.53632  -0.53080  -0.52855  -0.52710  -0.52547
 Alpha  occ. eigenvalues --   -0.52347  -0.52238  -0.51884  -0.51749  -0.51508
 Alpha  occ. eigenvalues --   -0.51451  -0.50977  -0.50840  -0.50751  -0.50642
 Alpha  occ. eigenvalues --   -0.50455  -0.49859  -0.49784  -0.49705  -0.49322
 Alpha  occ. eigenvalues --   -0.49130  -0.48965  -0.48932  -0.48795  -0.48329
 Alpha  occ. eigenvalues --   -0.48201  -0.47940  -0.47673  -0.47620  -0.47565
 Alpha  occ. eigenvalues --   -0.47181  -0.47053  -0.46890  -0.46685  -0.46501
 Alpha  occ. eigenvalues --   -0.46417  -0.46243  -0.46136  -0.45995  -0.45876
 Alpha  occ. eigenvalues --   -0.45383  -0.45220  -0.45133  -0.45045  -0.44810
 Alpha  occ. eigenvalues --   -0.44733  -0.44306  -0.44139  -0.44015  -0.43903
 Alpha  occ. eigenvalues --   -0.43594  -0.43558  -0.43462  -0.43285  -0.42881
 Alpha  occ. eigenvalues --   -0.42760  -0.42711  -0.42543  -0.41835  -0.41725
 Alpha  occ. eigenvalues --   -0.41711  -0.41453  -0.41115  -0.41047  -0.40396
 Alpha  occ. eigenvalues --   -0.40219  -0.39926  -0.39908  -0.39397  -0.39323
 Alpha  occ. eigenvalues --   -0.39170  -0.38996  -0.38321  -0.38234  -0.38186
 Alpha  occ. eigenvalues --   -0.37812  -0.37695  -0.36594  -0.36307  -0.36125
 Alpha  occ. eigenvalues --   -0.35928  -0.35237  -0.35123  -0.34269  -0.33572
 Alpha  occ. eigenvalues --   -0.32187  -0.31828  -0.31696  -0.30941  -0.25620
 Alpha  occ. eigenvalues --   -0.22324
 Alpha virt. eigenvalues --   -0.06506  -0.00123   0.02311   0.04588   0.04819
 Alpha virt. eigenvalues --    0.05547   0.06761   0.07292   0.07997   0.09537
 Alpha virt. eigenvalues --    0.11322   0.11357   0.11485   0.11960   0.12593

 Mulliken charges:
               1
     1  Mg   0.973967
     2  C   -0.035678
     3  C   -0.095189
     4  C   -0.086455
     5  C   -0.086029
     6  N   -0.362535
     7  C    0.042073
     8  C   -0.124576
     9  C   -0.079238
    10  C    0.021742
    11  C    0.012502
    12  C    0.009294
    13  C    0.079402
    14  C    0.176406
    15  O   -0.238194
    16  O   -0.372698
    17  N   -0.491412
    18  C    0.208846
    19  C   -0.150262
    20  C   -0.089371
    21  C    0.130831
    22  C    0.061363
    23  C    0.091310
    24  O   -0.234295
    25  C   -0.021513
    26  N   -0.387443
    27  C    0.076598
    28  C   -0.085004
    29  C   -0.052698
    30  C    0.126314
    31  C    0.019165
    32  C   -0.043630
    33  C   -0.042056
    34  N   -0.500660
    35  C    0.112217
    36  C   -0.181230
    37  C    0.004981
    38  C    0.140161
    39  C    0.078885
    40  C    0.062092
    41  O   -0.215038
    42  C   -0.071177
    43  C    0.282065
    44  O   -0.213396
    45  O   -0.408478
    46  C    0.132474
    47  C    0.221695
    48  C   -0.148774
    49  C   -0.182091
    50  C    0.026652
    51  C    0.023415
    52  C   -0.091732
    53  C    0.058009
    54  C   -0.179957
    55  C   -0.000568
    56  C   -0.019380
    57  C   -0.055508
    58  C    0.027277
    59  C   -0.208267
    60  C    0.024965
    61  C   -0.003462
    62  C   -0.022161
    63  C    0.008659
    64  C   -0.225691
    65  C   -0.001042
    66  C    0.021699
    67  H   -0.013864
    68  H    0.021280
    69  H   -0.021694
    70  H    0.078170
    71  H    0.036747
    72  H    0.061679
    73  H    0.055804
    74  H    0.018213
    75  H    0.032851
    76  H    0.041672
    77  H    0.049389
    78  H    0.038957
    79  H    0.061429
    80  H    0.030420
    81  H    0.042136
    82  H    0.069335
    83  H    0.078696
    84  H    0.057367
    85  H    0.035220
    86  H    0.034168
    87  H    0.049629
    88  H    0.038532
    89  H    0.033937
    90  H    0.026881
    91  H    0.030567
    92  H    0.036302
    93  H    0.041672
    94  H    0.044388
    95  H    0.038347
    96  H    0.070784
    97  H    0.043850
    98  H    0.088050
    99  H    0.072874
   100  H    0.063889
   101  H    0.052547
   102  H    0.047851
   103  H    0.033809
   104  H    0.032512
   105  H    0.056574
   106  H    0.035563
   107  H    0.058386
   108  H    0.054051
   109  H    0.016400
   110  H    0.024211
   111  H    0.043742
   112  H    0.012551
   113  H    0.023519
   114  H    0.018457
   115  H    0.029222
   116  H    0.029120
   117  H    0.018821
   118  H    0.009965
   119  H    0.016763
   120  H    0.006042
   121  H    0.029429
   122  H    0.013382
   123  H    0.010899
   124  H    0.023784
   125  H    0.032198
   126  H    0.035714
   127  H    0.027157
   128  H    0.031971
   129  H    0.019173
   130  H    0.026784
   131  H    0.021224
   132  H    0.009489
   133  H    0.002867
   134  H    0.006521
   135  H    0.016716
   136  H    0.032336
   137  H    0.018965
   138  H    0.030868
   139  H    0.031354
   140  H    0.023206
 Sum of Mulliken charges =  -0.00000

 Dipole moment (field-independent basis, Debye):
    X=              4.9148    Y=              3.9302    Z=             -3.6589  Tot=              7.2794
 Quadrupole moment (field-independent basis, Debye-Ang):
   XX=           -374.8069   YY=           -411.2325   ZZ=           -404.9369
   XY=            -21.5030   XZ=             -6.5141   YZ=              3.8802

 Normal termination of Gaussian 16 at Wed May  4 08:59:59 2022.
