 Gaussian 16, Revision A.03,
 Gaussian 16:  ES64L-G16RevA.03 25-Dec-2016

 --------------------
 #p ZINDO=(nstates=5)
 --------------------

 -----------------------------
 step_1501_chromophore_9 ZINDO
 -----------------------------
 Symbolic Z-matrix:
 Charge =  0 Multiplicity = 1

                         Standard orientation:
 ---------------------------------------------------------------------
 Center     Atomic      Atomic             Coordinates (Angstroms)
 Number     Number       Type             X           Y           Z
 ---------------------------------------------------------------------
      1         12           0       -5.041482    0.719957   -0.295029
      2          6           0       -3.678326   -2.621431   -0.069815
      3          6           0       -1.834024    1.917031   -0.509002
      4          6           0       -6.215123    3.849176    0.021013
      5          6           0       -8.116819   -0.630844    0.731405
      6          7           0       -3.032489   -0.284857   -0.217671
      7          6           0       -2.708714   -1.633293   -0.365447
      8          6           0       -1.227860   -1.797286   -0.529781
      9          6           0       -0.630238   -0.320618   -0.511789
     10          6           0       -1.873539    0.490100   -0.396227
     11          6           0        0.446525   -0.001561    0.518485
     12          6           0       -0.740567   -2.778023   -1.691012
     13          6           0        0.333814   -3.728562   -1.332154
     14          6           0        1.412472   -3.118906   -0.476321
     15          8           0        1.430837   -3.260702    0.718761
     16          8           0        2.338608   -2.417243   -1.252268
     17          7           0       -4.164307    2.569819   -0.134640
     18          6           0       -2.826943    2.908330   -0.395051
     19          6           0       -2.635196    4.345978   -0.561460
     20          6           0       -3.906818    4.952021   -0.418189
     21          6           0       -4.855164    3.810214   -0.190265
     22          6           0       -1.221056    4.916484   -0.825988
     23          6           0       -4.314712    6.497068   -0.369723
     24          8           0       -5.490191    6.807870   -0.113712
     25          6           0       -3.189224    7.488782   -0.444015
     26          7           0       -6.879373    1.485140    0.319567
     27          6           0       -7.119702    2.850792    0.384443
     28          6           0       -8.553976    3.117584    0.951249
     29          6           0       -9.108186    1.640054    1.066090
     30          6           0       -7.985995    0.757165    0.621036
     31          6           0       -8.656956    4.056969    2.194504
     32          6           0      -10.529718    1.300454    0.569724
     33          6           0      -10.623913    0.921086   -0.921209
     34          7           0       -5.796084   -1.124496    0.146439
     35          6           0       -7.123797   -1.565445    0.516113
     36          6           0       -7.191243   -2.995871    0.579972
     37          6           0       -5.876805   -3.445761    0.357752
     38          6           0       -5.077013   -2.338690    0.157014
     39          6           0       -8.427707   -3.767005    1.024436
     40          6           0       -5.011089   -4.587832    0.262690
     41          8           0       -5.246337   -5.787684    0.347792
     42          6           0       -3.532843   -4.189574   -0.114698
     43          6           0       -2.524789   -4.710032    0.828597
     44          8           0       -2.108703   -4.054970    1.738115
     45          8           0       -1.937654   -5.936401    0.423787
     46          6           0       -0.919566   -6.341470    1.502184
     47          6           0        3.553788   -2.200334   -0.453361
     48          6           0        4.653926   -1.720969   -1.366959
     49          6           0        5.600481   -2.593103   -1.962232
     50          6           0        5.572789   -4.124452   -1.872993
     51          6           0        6.547185   -1.978839   -2.969645
     52          6           0        7.425925   -0.862629   -2.303870
     53          6           0        8.385364   -0.251974   -3.361699
     54          6           0        7.823552    1.149841   -3.630772
     55          6           0        7.446980    1.478640   -5.134850
     56          6           0        8.790226    2.288033   -3.134476
     57          6           0        9.024337    2.457888   -1.634441
     58          6           0       10.419823    1.900454   -1.004353
     59          6           0       10.393112    1.990240    0.542643
     60          6           0       11.493671    2.934711    1.015356
     61          6           0       10.603351    0.531924    1.028287
     62          6           0       10.009761    0.310142    2.454558
     63          6           0       11.072758    0.075053    3.537585
     64          6           0       11.134812    1.115288    4.631595
     65          6           0       12.522936    1.200914    5.293268
     66          6           0        9.953829    0.941163    5.550268
     67          1           0       -0.828389    2.141572   -0.870037
     68          1           0       -6.583572    4.876840    0.034165
     69          1           0       -9.023550   -1.172037    1.009954
     70          1           0       -0.885861   -2.252686    0.399378
     71          1           0       -0.226347   -0.198601   -1.517951
     72          1           0        1.087944   -0.781318    0.930383
     73          1           0        0.204150    0.750602    1.269489
     74          1           0        1.125133    0.420441   -0.222986
     75          1           0       -0.323097   -2.181275   -2.501273
     76          1           0       -1.626417   -3.310410   -2.038211
     77          1           0        0.821691   -4.156231   -2.207854
     78          1           0       -0.111601   -4.530903   -0.743623
     79          1           0       -0.630926    5.226184    0.036239
     80          1           0       -1.291460    5.786193   -1.479772
     81          1           0       -0.608633    4.176806   -1.341982
     82          1           0       -2.835529    7.439540   -1.474002
     83          1           0       -2.410915    7.320486    0.300284
     84          1           0       -3.607973    8.478479   -0.259897
     85          1           0       -9.055668    3.700310    0.178862
     86          1           0       -9.233731    1.545696    2.144209
     87          1           0       -7.629751    4.383679    2.357802
     88          1           0       -9.130610    3.599113    3.062965
     89          1           0       -9.246675    4.947301    1.975585
     90          1           0      -11.188640    2.157042    0.712742
     91          1           0      -10.912008    0.492409    1.194026
     92          1           0      -11.335086    1.669362   -1.269906
     93          1           0      -10.950766   -0.106871   -1.080292
     94          1           0       -9.635554    1.058314   -1.359915
     95          1           0       -9.090018   -3.172628    1.654780
     96          1           0       -7.994617   -4.674119    1.446047
     97          1           0       -9.080972   -3.982577    0.179412
     98          1           0       -3.458744   -4.560558   -1.136341
     99          1           0       -1.359088   -6.472227    2.491026
    100          1           0       -0.211862   -5.513262    1.469779
    101          1           0       -0.430667   -7.238374    1.121095
    102          1           0        3.964790   -3.066447    0.066209
    103          1           0        3.369334   -1.405515    0.268737
    104          1           0        4.741341   -0.634990   -1.335445
    105          1           0        5.648351   -4.434256   -2.915585
    106          1           0        4.661068   -4.531297   -1.436152
    107          1           0        6.349595   -4.504229   -1.209301
    108          1           0        5.993736   -1.592801   -3.826196
    109          1           0        7.301918   -2.715531   -3.244061
    110          1           0        8.124953   -1.388686   -1.653696
    111          1           0        6.743996   -0.142853   -1.850659
    112          1           0        8.396230   -0.907186   -4.232289
    113          1           0        9.401937   -0.350469   -2.978706
    114          1           0        6.949303    1.439094   -3.046994
    115          1           0        8.178827    2.075358   -5.678461
    116          1           0        6.515651    2.035275   -5.233925
    117          1           0        7.355101    0.524049   -5.652696
    118          1           0        8.225098    3.177640   -3.410603
    119          1           0        9.707161    2.239204   -3.723234
    120          1           0        8.222725    1.813857   -1.274356
    121          1           0        8.874025    3.498583   -1.348801
    122          1           0       11.211817    2.532591   -1.404237
    123          1           0       10.505023    0.894091   -1.413665
    124          1           0        9.405774    2.379775    0.789305
    125          1           0       12.343578    2.344273    1.357252
    126          1           0       10.960074    3.554237    1.737205
    127          1           0       11.885555    3.644537    0.286756
    128          1           0       11.628388    0.219110    0.829787
    129          1           0        9.874733   -0.122263    0.549164
    130          1           0        9.328990   -0.540356    2.398924
    131          1           0        9.477873    1.230104    2.696631
    132          1           0       12.098848    0.018725    3.176375
    133          1           0       10.845865   -0.861129    4.048657
    134          1           0       11.001117    2.025202    4.046795
    135          1           0       12.451217    1.326617    6.373970
    136          1           0       13.166597    1.994149    4.911763
    137          1           0       13.121687    0.293690    5.202763
    138          1           0        9.883485    1.776682    6.246923
    139          1           0       10.076531   -0.005393    6.075886
    140          1           0        9.115817    1.000159    4.855600
 ---------------------------------------------------------------------

 SCF Done:  E(RZINDO/S) =  -473.926031201     A.U. after   19 cycles

 Excitation energies and oscillator strengths:

 Excited State   1:      Singlet-A      1.2572 eV  986.19 nm  f=0.5644  <S**2>=0.000
     175 ->178        -0.18334
     176 ->177         0.66425
 This state for optimization and/or second-order correction.
 Total Energy, E(CIS/TDA) =  -473.879829579
 Copying the excited state density for this state as the 1-particle RhoCI density.

 Excited State   2:      Singlet-A      1.9075 eV  649.97 nm  f=0.0125  <S**2>=0.000
     175 ->177         0.50821
     176 ->178         0.46234

 Excited State   3:      Singlet-A      2.9369 eV  422.16 nm  f=0.8315  <S**2>=0.000
     175 ->177        -0.36345
     176 ->178         0.45684
     176 ->179         0.31774

 Excited State   4:      Singlet-A      2.9971 eV  413.68 nm  f=0.0382  <S**2>=0.000
     171 ->177         0.26306
     171 ->179         0.23328
     171 ->180         0.37785
     171 ->186         0.17687
     171 ->188         0.18632
     171 ->203        -0.11614
     176 ->179         0.25951
     176 ->180         0.11697

 Excited State   5:      Singlet-A      3.0226 eV  410.19 nm  f=0.3897  <S**2>=0.000
     171 ->177        -0.13430
     171 ->179        -0.11372
     171 ->180        -0.18852
     175 ->177         0.24175
     176 ->178        -0.21038
     176 ->179         0.45964
     176 ->180         0.23694

 The electronic state is 1-A.
 Alpha  occ. eigenvalues --   -1.80797  -1.78861  -1.77302  -1.73650  -1.70386
 Alpha  occ. eigenvalues --   -1.67846  -1.66621  -1.63111  -1.57435  -1.57176
 Alpha  occ. eigenvalues --   -1.55949  -1.52705  -1.48476  -1.47492  -1.46966
 Alpha  occ. eigenvalues --   -1.44031  -1.42374  -1.39506  -1.38894  -1.36925
 Alpha  occ. eigenvalues --   -1.36171  -1.32919  -1.32033  -1.31676  -1.27912
 Alpha  occ. eigenvalues --   -1.27015  -1.25049  -1.23321  -1.21204  -1.17497
 Alpha  occ. eigenvalues --   -1.17153  -1.16010  -1.14956  -1.14114  -1.13628
 Alpha  occ. eigenvalues --   -1.12310  -1.10213  -1.09859  -1.03847  -1.02960
 Alpha  occ. eigenvalues --   -1.00851  -0.99941  -0.98064  -0.97597  -0.96925
 Alpha  occ. eigenvalues --   -0.95318  -0.94658  -0.93401  -0.92134  -0.91602
 Alpha  occ. eigenvalues --   -0.90509  -0.89875  -0.88581  -0.87298  -0.86686
 Alpha  occ. eigenvalues --   -0.84233  -0.83999  -0.81815  -0.80593  -0.79490
 Alpha  occ. eigenvalues --   -0.79152  -0.78089  -0.77170  -0.77056  -0.76096
 Alpha  occ. eigenvalues --   -0.75415  -0.75112  -0.74289  -0.74066  -0.73656
 Alpha  occ. eigenvalues --   -0.72850  -0.72507  -0.71897  -0.70888  -0.70555
 Alpha  occ. eigenvalues --   -0.69850  -0.69697  -0.69323  -0.68761  -0.68367
 Alpha  occ. eigenvalues --   -0.68035  -0.66792  -0.66313  -0.65481  -0.65050
 Alpha  occ. eigenvalues --   -0.64994  -0.64417  -0.64134  -0.63638  -0.63587
 Alpha  occ. eigenvalues --   -0.63217  -0.62761  -0.62450  -0.62160  -0.61500
 Alpha  occ. eigenvalues --   -0.61159  -0.60835  -0.60719  -0.60348  -0.59677
 Alpha  occ. eigenvalues --   -0.59395  -0.59312  -0.59044  -0.58612  -0.58453
 Alpha  occ. eigenvalues --   -0.57927  -0.57626  -0.57080  -0.56912  -0.56536
 Alpha  occ. eigenvalues --   -0.55646  -0.55419  -0.54601  -0.54383  -0.54136
 Alpha  occ. eigenvalues --   -0.53802  -0.53653  -0.53189  -0.52797  -0.52570
 Alpha  occ. eigenvalues --   -0.51961  -0.51648  -0.51194  -0.51060  -0.50910
 Alpha  occ. eigenvalues --   -0.50762  -0.50709  -0.50623  -0.50468  -0.50216
 Alpha  occ. eigenvalues --   -0.49980  -0.49706  -0.49061  -0.48799  -0.48733
 Alpha  occ. eigenvalues --   -0.48274  -0.48060  -0.47763  -0.47513  -0.47370
 Alpha  occ. eigenvalues --   -0.47023  -0.46855  -0.46721  -0.46627  -0.46507
 Alpha  occ. eigenvalues --   -0.46322  -0.46044  -0.45852  -0.45660  -0.45098
 Alpha  occ. eigenvalues --   -0.44767  -0.44564  -0.44209  -0.44043  -0.43906
 Alpha  occ. eigenvalues --   -0.43556  -0.43420  -0.42891  -0.42490  -0.42109
 Alpha  occ. eigenvalues --   -0.41622  -0.41452  -0.40596  -0.38640  -0.38393
 Alpha  occ. eigenvalues --   -0.37746  -0.37197  -0.36691  -0.34518  -0.34261
 Alpha  occ. eigenvalues --   -0.33758  -0.31761  -0.31713  -0.31543  -0.26403
 Alpha  occ. eigenvalues --   -0.21238
 Alpha virt. eigenvalues --   -0.07952  -0.02183  -0.00551   0.01535   0.02107
 Alpha virt. eigenvalues --    0.02284   0.02878   0.03082   0.03285   0.04301
 Alpha virt. eigenvalues --    0.05749   0.06606   0.08072   0.08249   0.08338

 Mulliken charges:
               1
     1  Mg   0.426777
     2  C   -0.050131
     3  C   -0.094495
     4  C   -0.053338
     5  C   -0.053788
     6  N   -0.295833
     7  C    0.114169
     8  C   -0.006557
     9  C    0.019191
    10  C    0.165858
    11  C   -0.056799
    12  C   -0.015101
    13  C    0.011463
    14  C    0.472267
    15  O   -0.508227
    16  O   -0.272742
    17  N   -0.346832
    18  C    0.137847
    19  C    0.015263
    20  C   -0.037051
    21  C    0.139116
    22  C   -0.043018
    23  C    0.333566
    24  O   -0.505607
    25  C   -0.023869
    26  N   -0.258487
    27  C    0.151905
    28  C   -0.000964
    29  C    0.000902
    30  C    0.112054
    31  C   -0.050579
    32  C   -0.028832
    33  C   -0.061864
    34  N   -0.360599
    35  C    0.067066
    36  C    0.013517
    37  C   -0.043770
    38  C    0.112869
    39  C   -0.044182
    40  C    0.332165
    41  O   -0.542788
    42  C    0.050984
    43  C    0.490131
    44  O   -0.497799
    45  O   -0.287537
    46  C    0.070840
    47  C    0.099404
    48  C   -0.114373
    49  C   -0.007920
    50  C   -0.040339
    51  C   -0.024494
    52  C   -0.045148
    53  C   -0.032237
    54  C   -0.012453
    55  C   -0.063745
    56  C   -0.041396
    57  C   -0.052088
    58  C   -0.047944
    59  C   -0.010022
    60  C   -0.057447
    61  C   -0.041815
    62  C   -0.039610
    63  C   -0.034309
    64  C   -0.008700
    65  C   -0.057930
    66  C   -0.052486
    67  H    0.020543
    68  H    0.041607
    69  H    0.032493
    70  H    0.050437
    71  H    0.028712
    72  H    0.045260
    73  H    0.032187
    74  H    0.006612
    75  H    0.019414
    76  H    0.025577
    77  H    0.031238
    78  H    0.041531
    79  H    0.037251
    80  H    0.020572
    81  H    0.026633
    82  H    0.043193
    83  H    0.046001
    84  H    0.034832
    85  H    0.027230
    86  H    0.019715
    87  H    0.028813
    88  H    0.027338
    89  H    0.020114
    90  H    0.014997
    91  H    0.018676
    92  H    0.020392
    93  H    0.026371
    94  H    0.025664
    95  H    0.028452
    96  H    0.040742
    97  H    0.027903
    98  H    0.060978
    99  H    0.058419
   100  H    0.048853
   101  H    0.028616
   102  H    0.051414
   103  H    0.038464
   104  H    0.036837
   105  H    0.030070
   106  H    0.023492
   107  H    0.036179
   108  H    0.036480
   109  H    0.016348
   110  H    0.019138
   111  H    0.038551
   112  H    0.018567
   113  H    0.023587
   114  H    0.026199
   115  H    0.020475
   116  H    0.018268
   117  H    0.013503
   118  H    0.005413
   119  H    0.018259
   120  H    0.017021
   121  H    0.023322
   122  H    0.018561
   123  H    0.022644
   124  H    0.028236
   125  H    0.026906
   126  H    0.018040
   127  H    0.018212
   128  H    0.035260
   129  H    0.011543
   130  H    0.020165
   131  H    0.023603
   132  H    0.015971
   133  H    0.010739
   134  H    0.010991
   135  H    0.012159
   136  H    0.018375
   137  H    0.014478
   138  H    0.013601
   139  H    0.027857
   140  H    0.021597
 Sum of Mulliken charges =  -0.00000

 Dipole moment (field-independent basis, Debye):
    X=              6.4500    Y=              6.3186    Z=             -6.1121  Tot=             10.9034
 N-N= 4.395997939106D+03 E-N= 0.000000000000D+00  KE=-9.466766348844D+03
 Leave Link  601 at Wed May  4 09:12:53 2022, MaxMem=  6710886400 cpu:               1.0 elap:               0.1
 (Enter /sw/apps/gaussian-16.0/g16/l9999.exe)
 1\1\GINC-BP1-COMPUTE031\SP\RZINDO CIS\STO-3G\C55H74Mg1N4O6\OF15641\04-
 May-2022\0\\#p ZINDO=(nstates=5)\\step_1501_chromophore_9 ZINDO\\0,1\M
 g,0,35.667,0.625,29.685\C,0,33.357,1.867,32.174\C,0,38.14,0.726,32.06\
 C,0,37.945,-0.016,27.304\C,0,33.223,1.36,27.272\N,0,35.693,1.299,31.82
 9\C,0,34.628,1.531,32.699\C,0,35.128,1.682,34.104\C,0,36.704,1.464,34.
 022\C,0,36.876,1.159,32.575\C,0,37.604,2.57,34.56\C,0,34.33,0.89,35.23
 7\C,0,34.02,1.65,36.467\C,0,35.155,2.522,36.935\O,0,35.193,3.7,36.691\

 Normal termination of Gaussian 16 at Wed May  4 09:12:53 2022.
