 Gaussian 16, Revision A.03,
 Gaussian 16:  ES64L-G16RevA.03 25-Dec-2016

 ------------------------------
 #p blyp/Def2SVP td=(nstates=5)
 ------------------------------

 --------------------------------------------------
 step_1301_chromophore_6 TDDFT with blyp functional
 --------------------------------------------------
 Symbolic Z-matrix:
 Charge =  0 Multiplicity = 1

                         Standard orientation:
 ---------------------------------------------------------------------
 Center     Atomic      Atomic             Coordinates (Angstroms)
 Number     Number       Type             X           Y           Z
 ---------------------------------------------------------------------
      1         12           0        5.307753    1.157561    0.262813
      2          6           0        4.465417   -2.300985    0.050224
      3          6           0        1.836724    1.883855    0.241414
      4          6           0        6.099816    4.380047   -0.085195
      5          6           0        8.636009    0.238623   -0.140464
      6          7           0        3.321588   -0.086038    0.193038
      7          6           0        3.303481   -1.469044    0.016068
      8          6           0        1.816302   -1.943851    0.076562
      9          6           0        0.984606   -0.585251    0.022672
     10          6           0        2.097702    0.482369    0.136776
     11          6           0       -0.020236   -0.423242   -1.184354
     12          6           0        1.480831   -2.883618    1.254957
     13          6           0        0.824940   -4.211181    1.014714
     14          6           0       -0.166954   -4.334407   -0.179367
     15          8           0        0.117113   -4.837272   -1.242722
     16          8           0       -1.400286   -3.732690    0.092824
     17          7           0        4.171766    2.888274    0.230960
     18          6           0        2.740376    2.975811    0.320880
     19          6           0        2.401405    4.395962    0.493861
     20          6           0        3.611124    5.108448    0.153442
     21          6           0        4.672235    4.128207    0.020680
     22          6           0        1.023847    4.794718    0.696033
     23          6           0        3.773719    6.586756   -0.129032
     24          8           0        4.890142    7.063577   -0.314083
     25          6           0        2.598659    7.458979   -0.092461
     26          7           0        7.035484    2.158477   -0.339849
     27          6           0        7.121296    3.523440   -0.334932
     28          6           0        8.563032    3.970572   -0.480988
     29          6           0        9.343819    2.666644   -0.334507
     30          6           0        8.272552    1.558522   -0.303385
     31          6           0        8.850267    4.911672   -1.573259
     32          6           0       10.364627    2.628371    0.821142
     33          6           0        9.891226    1.906297    2.089192
     34          7           0        6.382687   -0.618653    0.152054
     35          6           0        7.740564   -0.842118    0.017237
     36          6           0        8.027150   -2.266769    0.159568
     37          6           0        6.753744   -2.839881    0.158659
     38          6           0        5.818577   -1.786634    0.115997
     39          6           0        9.283795   -2.991578    0.121324
     40          6           0        6.050985   -4.120622    0.080052
     41          8           0        6.546575   -5.234373    0.063974
     42          6           0        4.485077   -3.821107    0.026433
     43          6           0        3.885732   -4.507576   -1.087996
     44          8           0        3.603673   -4.064260   -2.184841
     45          8           0        3.531356   -5.779254   -0.661108
     46          6           0        3.161767   -6.651433   -1.817788
     47          6           0       -2.445293   -3.768139   -0.959440
     48          6           0       -3.818101   -3.785527   -0.442377
     49          6           0       -4.779198   -2.901118   -0.505713
     50          6           0       -4.728085   -1.504700   -1.115099
     51          6           0       -6.208125   -3.202765    0.096564
     52          6           0       -6.423796   -2.891589    1.577798
     53          6           0       -7.920397   -2.517136    1.911572
     54          6           0       -8.070765   -1.079124    2.482518
     55          6           0       -8.018284   -1.019488    4.035299
     56          6           0       -9.419312   -0.524164    1.973619
     57          6           0       -9.335057    0.162286    0.653441
     58          6           0      -10.230655    1.437729    0.564247
     59          6           0      -10.960955    1.551374   -0.785428
     60          6           0      -11.061483    2.968934   -1.308843
     61          6           0      -12.343169    0.788698   -0.790932
     62          6           0      -13.331892    1.429690    0.156566
     63          6           0      -14.794180    1.306681   -0.244229
     64          6           0      -15.214774    2.550257   -1.137153
     65          6           0      -15.758538    2.149388   -2.504259
     66          6           0      -16.224287    3.428091   -0.415032
     67          1           0        0.768664    2.112908    0.228495
     68          1           0        6.405030    5.411062    0.105735
     69          1           0        9.667005   -0.118035   -0.108801
     70          1           0        1.592092   -2.436933   -0.869654
     71          1           0        0.366125   -0.541569    0.919539
     72          1           0       -0.975657   -0.281764   -0.679350
     73          1           0       -0.010211   -1.366345   -1.731027
     74          1           0        0.173176    0.451623   -1.804964
     75          1           0        0.969359   -2.330441    2.042674
     76          1           0        2.481307   -3.047241    1.654684
     77          1           0        0.172265   -4.247701    1.886752
     78          1           0        1.579623   -4.977702    1.184469
     79          1           0        1.054689    5.547906    1.484105
     80          1           0        0.400120    4.015100    1.132204
     81          1           0        0.591863    5.123354   -0.249101
     82          1           0        2.263287    7.447872    0.945459
     83          1           0        1.827090    6.946037   -0.667218
     84          1           0        2.897993    8.479790   -0.329945
     85          1           0        8.755184    4.649495    0.349986
     86          1           0        9.793108    2.593754   -1.324207
     87          1           0        9.609792    4.579873   -2.281022
     88          1           0        9.152844    5.872473   -1.155769
     89          1           0        7.909415    4.959262   -2.120902
     90          1           0       10.477984    3.665680    1.132759
     91          1           0       11.296766    2.161751    0.503162
     92          1           0        8.841523    2.080934    2.327804
     93          1           0       10.311983    2.350821    2.991256
     94          1           0       10.320308    0.905434    2.055935
     95          1           0       10.049434   -2.255951    0.367535
     96          1           0        9.424905   -3.207432   -0.937692
     97          1           0        9.290340   -3.820869    0.827861
     98          1           0        4.122010   -4.277722    0.946803
     99          1           0        3.881511   -6.778974   -2.625327
    100          1           0        2.208272   -6.401753   -2.285028
    101          1           0        2.927741   -7.591033   -1.318058
    102          1           0       -2.377286   -4.558497   -1.706715
    103          1           0       -2.351058   -2.827967   -1.502500
    104          1           0       -4.254194   -4.741536   -0.152169
    105          1           0       -3.775881   -1.262548   -1.587786
    106          1           0       -4.939494   -0.810332   -0.302619
    107          1           0       -5.412854   -1.563054   -1.960198
    108          1           0       -6.422540   -4.236617   -0.174000
    109          1           0       -6.968847   -2.702276   -0.503132
    110          1           0       -5.745212   -2.087804    1.863415
    111          1           0       -6.176059   -3.762871    2.185596
    112          1           0       -8.160437   -3.274285    2.658137
    113          1           0       -8.539517   -2.668761    1.027275
    114          1           0       -7.221520   -0.470349    2.170886
    115          1           0       -7.334024   -1.751222    4.465347
    116          1           0       -8.969242   -0.944337    4.563453
    117          1           0       -7.565478   -0.057186    4.272870
    118          1           0       -9.800429    0.144058    2.745423
    119          1           0      -10.119697   -1.359982    1.984967
    120          1           0       -9.617019   -0.537434   -0.133277
    121          1           0       -8.312881    0.403940    0.360225
    122          1           0       -9.708483    2.363944    0.804489
    123          1           0      -11.000374    1.394770    1.334616
    124          1           0      -10.388835    0.975514   -1.512678
    125          1           0      -10.136706    3.182783   -1.843640
    126          1           0      -11.113246    3.675959   -0.480341
    127          1           0      -11.893257    3.005847   -2.010962
    128          1           0      -12.189907   -0.257106   -0.525932
    129          1           0      -12.712767    0.888976   -1.811042
    130          1           0      -13.054170    2.472638    0.309922
    131          1           0      -13.296361    1.094585    1.192965
    132          1           0      -15.367629    1.242923    0.680022
    133          1           0      -15.014424    0.387932   -0.788821
    134          1           0      -14.415293    3.284027   -1.242666
    135          1           0      -14.947332    2.322469   -3.212106
    136          1           0      -16.596740    2.754493   -2.850228
    137          1           0      -15.931755    1.080314   -2.624236
    138          1           0      -15.711773    3.981468    0.371535
    139          1           0      -16.879855    2.725451    0.101086
    140          1           0      -16.803877    4.011232   -1.129527
 ---------------------------------------------------------------------

 SCF Done:  E(RB-LYP) =  -3007.37016598     A.U. after   20 cycles

 Excitation energies and oscillator strengths:

 Excited State   1:      Singlet-A      1.7581 eV  705.22 nm  f=0.2475  <S**2>=0.000
     244 -> 247       -0.15112
     245 -> 247        0.13080
     245 -> 248        0.17277
     246 -> 247        0.66790
     246 <- 247       -0.15452
 This state for optimization and/or second-order correction.
 Total Energy, E(TD-HF/TD-DFT) =  -3007.30555733
 Copying the excited state density for this state as the 1-particle RhoCI density.

 Excited State   2:      Singlet-A      1.8617 eV  665.96 nm  f=0.0815  <S**2>=0.000
     244 -> 247        0.49208
     245 -> 247       -0.44428
     246 -> 247        0.19635
     246 -> 248        0.10621

 Excited State   3:      Singlet-A      2.0122 eV  616.15 nm  f=0.0168  <S**2>=0.000
     243 -> 247        0.53438
     244 -> 247        0.35363
     245 -> 247        0.27004
     246 -> 248       -0.11695

 Excited State   4:      Singlet-A      2.0840 eV  594.94 nm  f=0.0407  <S**2>=0.000
     243 -> 247        0.45323
     244 -> 247       -0.31716
     245 -> 247       -0.37794
     246 -> 248        0.20853

 Excited State   5:      Singlet-A      2.5039 eV  495.16 nm  f=0.0046  <S**2>=0.000
     241 -> 247       -0.12737
     242 -> 247        0.67650

 The electronic state is 1-A.
 Alpha  occ. eigenvalues --  -46.26891 -18.82160 -18.81006 -18.77293 -18.75912
 Alpha  occ. eigenvalues --  -18.75895 -18.74939 -14.03124 -14.02517 -14.00899
 Alpha  occ. eigenvalues --  -14.00864 -10.04619 -10.02689  -9.99847  -9.99168
 Alpha  occ. eigenvalues --   -9.97936  -9.96644  -9.96506  -9.96184  -9.95891
 Alpha  occ. eigenvalues --   -9.95748  -9.95668  -9.95425  -9.95407  -9.94431
 Alpha  occ. eigenvalues --   -9.94060  -9.93811  -9.93772  -9.93750  -9.93479
 Alpha  occ. eigenvalues --   -9.93398  -9.93386  -9.93368  -9.93177  -9.93146
 Alpha  occ. eigenvalues --   -9.92993  -9.92771  -9.92645  -9.92534  -9.92503
 Alpha  occ. eigenvalues --   -9.92424  -9.92374  -9.92345  -9.92306  -9.92246
 Alpha  occ. eigenvalues --   -9.92106  -9.92040  -9.91970  -9.91636  -9.91586
 Alpha  occ. eigenvalues --   -9.91532  -9.91495  -9.91391  -9.91367  -9.91359
 Alpha  occ. eigenvalues --   -9.91222  -9.91201  -9.91201  -9.91161  -9.91111
 Alpha  occ. eigenvalues --   -9.91011  -9.90966  -9.90666  -9.90591  -9.90515
 Alpha  occ. eigenvalues --   -9.90370  -2.91505  -1.71930  -1.71385  -1.71221
 Alpha  occ. eigenvalues --   -0.97153  -0.96332  -0.91560  -0.91004  -0.90055
 Alpha  occ. eigenvalues --   -0.88562  -0.87248  -0.85289  -0.84654  -0.83672
 Alpha  occ. eigenvalues --   -0.75013  -0.74090  -0.73582  -0.72721  -0.72470
 Alpha  occ. eigenvalues --   -0.72446  -0.72121  -0.71268  -0.71182  -0.70973
 Alpha  occ. eigenvalues --   -0.69773  -0.69002  -0.68328  -0.67872  -0.67143
 Alpha  occ. eigenvalues --   -0.66722  -0.66523  -0.65701  -0.64981  -0.64691
 Alpha  occ. eigenvalues --   -0.64275  -0.62662  -0.62200  -0.61596  -0.60851
 Alpha  occ. eigenvalues --   -0.60234  -0.60183  -0.59890  -0.59724  -0.59313
 Alpha  occ. eigenvalues --   -0.58419  -0.57598  -0.56307  -0.55428  -0.54612
 Alpha  occ. eigenvalues --   -0.53789  -0.53488  -0.53092  -0.52120  -0.51909
 Alpha  occ. eigenvalues --   -0.50968  -0.50754  -0.50190  -0.50033  -0.50013
 Alpha  occ. eigenvalues --   -0.49689  -0.49177  -0.47859  -0.47393  -0.46174
 Alpha  occ. eigenvalues --   -0.45843  -0.45723  -0.45451  -0.45168  -0.44394
 Alpha  occ. eigenvalues --   -0.43778  -0.43365  -0.42987  -0.42679  -0.42455
 Alpha  occ. eigenvalues --   -0.42169  -0.41775  -0.41376  -0.41240  -0.40968
 Alpha  occ. eigenvalues --   -0.40914  -0.40778  -0.40726  -0.40670  -0.40386
 Alpha  occ. eigenvalues --   -0.39892  -0.39642  -0.39599  -0.39374  -0.39113
 Alpha  occ. eigenvalues --   -0.39005  -0.38856  -0.38831  -0.38664  -0.38373
 Alpha  occ. eigenvalues --   -0.38234  -0.38049  -0.37952  -0.37688  -0.37441
 Alpha  occ. eigenvalues --   -0.37241  -0.37098  -0.37007  -0.36945  -0.36905
 Alpha  occ. eigenvalues --   -0.36499  -0.36129  -0.36025  -0.35903  -0.35644
 Alpha  occ. eigenvalues --   -0.35477  -0.35108  -0.34929  -0.34778  -0.34525
 Alpha  occ. eigenvalues --   -0.34394  -0.34165  -0.34045  -0.34014  -0.33845
 Alpha  occ. eigenvalues --   -0.33579  -0.33218  -0.33143  -0.33084  -0.32939
 Alpha  occ. eigenvalues --   -0.32836  -0.32682  -0.32597  -0.32571  -0.32203
 Alpha  occ. eigenvalues --   -0.31992  -0.31860  -0.31694  -0.31688  -0.31623
 Alpha  occ. eigenvalues --   -0.31446  -0.31159  -0.30978  -0.30439  -0.30353
 Alpha  occ. eigenvalues --   -0.30312  -0.30077  -0.29929  -0.29888  -0.29763
 Alpha  occ. eigenvalues --   -0.29608  -0.29389  -0.29339  -0.29210  -0.28975
 Alpha  occ. eigenvalues --   -0.28581  -0.28338  -0.28099  -0.27765  -0.27676
 Alpha  occ. eigenvalues --   -0.27434  -0.27308  -0.27260  -0.26906  -0.26165
 Alpha  occ. eigenvalues --   -0.26142  -0.25749  -0.25682  -0.24994  -0.24854
 Alpha  occ. eigenvalues --   -0.24696  -0.24488  -0.24172  -0.24002  -0.23482
 Alpha  occ. eigenvalues --   -0.22808  -0.22717  -0.21754  -0.21391  -0.21099
 Alpha  occ. eigenvalues --   -0.20613  -0.20032  -0.18818  -0.18376  -0.17066
 Alpha  occ. eigenvalues --   -0.15465
 Alpha virt. eigenvalues --   -0.11432  -0.06339  -0.05849  -0.04426  -0.03228
 Alpha virt. eigenvalues --   -0.02334  -0.02162  -0.02064  -0.01159   0.00484
 Alpha virt. eigenvalues --    0.01448   0.01701   0.01889   0.02417   0.02624

 Mulliken charges:
               1
     1  Mg   0.694395
     2  C   -0.005532
     3  C   -0.048713
     4  C   -0.059690
     5  C   -0.066669
     6  N   -0.193536
     7  C   -0.066321
     8  C   -0.008421
     9  C   -0.032979
    10  C    0.001597
    11  C    0.115658
    12  C    0.109010
    13  C    0.180856
    14  C    0.094974
    15  O   -0.168544
    16  O   -0.296612
    17  N   -0.317969
    18  C    0.156511
    19  C   -0.164796
    20  C    0.011704
    21  C    0.114491
    22  C    0.183490
    23  C   -0.107074
    24  O   -0.172762
    25  C    0.178239
    26  N   -0.256140
    27  C    0.049812
    28  C   -0.043807
    29  C    0.096513
    30  C    0.061054
    31  C    0.159066
    32  C    0.113935
    33  C    0.079457
    34  N   -0.223900
    35  C    0.068548
    36  C   -0.211072
    37  C    0.089454
    38  C    0.082191
    39  C    0.201007
    40  C   -0.087490
    41  O   -0.119316
    42  C    0.061335
    43  C    0.129454
    44  O   -0.169724
    45  O   -0.291588
    46  C    0.228283
    47  C    0.375252
    48  C   -0.073700
    49  C   -0.200119
    50  C    0.150633
    51  C    0.094999
    52  C    0.091332
    53  C    0.101016
    54  C   -0.082420
    55  C    0.104796
    56  C    0.101935
    57  C    0.092342
    58  C    0.123998
    59  C   -0.113455
    60  C    0.130401
    61  C    0.122958
    62  C    0.046372
    63  C    0.126158
    64  C   -0.099265
    65  C    0.114595
    66  C    0.096630
    67  H   -0.065439
    68  H   -0.037614
    69  H   -0.068631
    70  H    0.001073
    71  H   -0.022872
    72  H   -0.009779
    73  H    0.016597
    74  H   -0.000081
    75  H   -0.026741
    76  H   -0.033757
    77  H   -0.022816
    78  H    0.005473
    79  H   -0.005497
    80  H   -0.014283
    81  H    0.020819
    82  H    0.001028
    83  H   -0.000138
    84  H   -0.001592
    85  H   -0.033058
    86  H   -0.043702
    87  H   -0.022415
    88  H   -0.006984
    89  H   -0.006791
    90  H   -0.026863
    91  H   -0.020402
    92  H   -0.002367
    93  H   -0.029138
    94  H   -0.004144
    95  H   -0.028271
    96  H    0.016372
    97  H    0.022736
    98  H    0.013013
    99  H    0.016962
   100  H    0.016831
   101  H   -0.004258
   102  H    0.007980
   103  H   -0.037212
   104  H   -0.052538
   105  H   -0.021140
   106  H    0.011190
   107  H    0.005141
   108  H   -0.028920
   109  H   -0.041986
   110  H   -0.024110
   111  H   -0.026838
   112  H   -0.032171
   113  H   -0.020489
   114  H   -0.035289
   115  H   -0.019213
   116  H   -0.010683
   117  H   -0.030423
   118  H   -0.041367
   119  H   -0.030893
   120  H   -0.031601
   121  H   -0.034240
   122  H   -0.042632
   123  H   -0.037661
   124  H   -0.047474
   125  H   -0.021759
   126  H   -0.008305
   127  H   -0.014459
   128  H   -0.034075
   129  H   -0.032509
   130  H   -0.042160
   131  H   -0.040537
   132  H   -0.041835
   133  H   -0.035850
   134  H   -0.025849
   135  H   -0.026491
   136  H   -0.019594
   137  H   -0.018271
   138  H   -0.020937
   139  H   -0.027943
   140  H   -0.012967
 Sum of Mulliken charges =  -0.00000

 Dipole moment (field-independent basis, Debye):
    X=             -3.9008    Y=              2.2867    Z=              2.9814  Tot=              5.4161
 Quadrupole moment (field-independent basis, Debye-Ang):
   XX=           -384.0230   YY=           -434.9503   ZZ=           -406.1406
   XY=             16.0620   XZ=             12.4481   YZ=              0.8395

 Normal termination of Gaussian 16 at Wed May  4 04:19:08 2022.
