 Gaussian 16, Revision A.03,
 Gaussian 16:  ES64L-G16RevA.03 25-Dec-2016

 -----------------------------------
 #p cam-b3lyp/Def2SVP td=(nstates=5)
 -----------------------------------

 -------------------------------------------------------
 step_1301_chromophore_6 TDDFT with cam-b3lyp functional
 -------------------------------------------------------
 Symbolic Z-matrix:
 Charge =  0 Multiplicity = 1

                         Standard orientation:
 ---------------------------------------------------------------------
 Center     Atomic      Atomic             Coordinates (Angstroms)
 Number     Number       Type             X           Y           Z
 ---------------------------------------------------------------------
      1         12           0        5.307753    1.157561    0.262813
      2          6           0        4.465417   -2.300985    0.050224
      3          6           0        1.836724    1.883855    0.241414
      4          6           0        6.099816    4.380047   -0.085195
      5          6           0        8.636009    0.238623   -0.140464
      6          7           0        3.321588   -0.086038    0.193038
      7          6           0        3.303481   -1.469044    0.016068
      8          6           0        1.816302   -1.943851    0.076562
      9          6           0        0.984606   -0.585251    0.022672
     10          6           0        2.097702    0.482369    0.136776
     11          6           0       -0.020236   -0.423242   -1.184354
     12          6           0        1.480831   -2.883618    1.254957
     13          6           0        0.824940   -4.211181    1.014714
     14          6           0       -0.166954   -4.334407   -0.179367
     15          8           0        0.117113   -4.837272   -1.242722
     16          8           0       -1.400286   -3.732690    0.092824
     17          7           0        4.171766    2.888274    0.230960
     18          6           0        2.740376    2.975811    0.320880
     19          6           0        2.401405    4.395962    0.493861
     20          6           0        3.611124    5.108448    0.153442
     21          6           0        4.672235    4.128207    0.020680
     22          6           0        1.023847    4.794718    0.696033
     23          6           0        3.773719    6.586756   -0.129032
     24          8           0        4.890142    7.063577   -0.314083
     25          6           0        2.598659    7.458979   -0.092461
     26          7           0        7.035484    2.158477   -0.339849
     27          6           0        7.121296    3.523440   -0.334932
     28          6           0        8.563032    3.970572   -0.480988
     29          6           0        9.343819    2.666644   -0.334507
     30          6           0        8.272552    1.558522   -0.303385
     31          6           0        8.850267    4.911672   -1.573259
     32          6           0       10.364627    2.628371    0.821142
     33          6           0        9.891226    1.906297    2.089192
     34          7           0        6.382687   -0.618653    0.152054
     35          6           0        7.740564   -0.842118    0.017237
     36          6           0        8.027150   -2.266769    0.159568
     37          6           0        6.753744   -2.839881    0.158659
     38          6           0        5.818577   -1.786634    0.115997
     39          6           0        9.283795   -2.991578    0.121324
     40          6           0        6.050985   -4.120622    0.080052
     41          8           0        6.546575   -5.234373    0.063974
     42          6           0        4.485077   -3.821107    0.026433
     43          6           0        3.885732   -4.507576   -1.087996
     44          8           0        3.603673   -4.064260   -2.184841
     45          8           0        3.531356   -5.779254   -0.661108
     46          6           0        3.161767   -6.651433   -1.817788
     47          6           0       -2.445293   -3.768139   -0.959440
     48          6           0       -3.818101   -3.785527   -0.442377
     49          6           0       -4.779198   -2.901118   -0.505713
     50          6           0       -4.728085   -1.504700   -1.115099
     51          6           0       -6.208125   -3.202765    0.096564
     52          6           0       -6.423796   -2.891589    1.577798
     53          6           0       -7.920397   -2.517136    1.911572
     54          6           0       -8.070765   -1.079124    2.482518
     55          6           0       -8.018284   -1.019488    4.035299
     56          6           0       -9.419312   -0.524164    1.973619
     57          6           0       -9.335057    0.162286    0.653441
     58          6           0      -10.230655    1.437729    0.564247
     59          6           0      -10.960955    1.551374   -0.785428
     60          6           0      -11.061483    2.968934   -1.308843
     61          6           0      -12.343169    0.788698   -0.790932
     62          6           0      -13.331892    1.429690    0.156566
     63          6           0      -14.794180    1.306681   -0.244229
     64          6           0      -15.214774    2.550257   -1.137153
     65          6           0      -15.758538    2.149388   -2.504259
     66          6           0      -16.224287    3.428091   -0.415032
     67          1           0        0.768664    2.112908    0.228495
     68          1           0        6.405030    5.411062    0.105735
     69          1           0        9.667005   -0.118035   -0.108801
     70          1           0        1.592092   -2.436933   -0.869654
     71          1           0        0.366125   -0.541569    0.919539
     72          1           0       -0.975657   -0.281764   -0.679350
     73          1           0       -0.010211   -1.366345   -1.731027
     74          1           0        0.173176    0.451623   -1.804964
     75          1           0        0.969359   -2.330441    2.042674
     76          1           0        2.481307   -3.047241    1.654684
     77          1           0        0.172265   -4.247701    1.886752
     78          1           0        1.579623   -4.977702    1.184469
     79          1           0        1.054689    5.547906    1.484105
     80          1           0        0.400120    4.015100    1.132204
     81          1           0        0.591863    5.123354   -0.249101
     82          1           0        2.263287    7.447872    0.945459
     83          1           0        1.827090    6.946037   -0.667218
     84          1           0        2.897993    8.479790   -0.329945
     85          1           0        8.755184    4.649495    0.349986
     86          1           0        9.793108    2.593754   -1.324207
     87          1           0        9.609792    4.579873   -2.281022
     88          1           0        9.152844    5.872473   -1.155769
     89          1           0        7.909415    4.959262   -2.120902
     90          1           0       10.477984    3.665680    1.132759
     91          1           0       11.296766    2.161751    0.503162
     92          1           0        8.841523    2.080934    2.327804
     93          1           0       10.311983    2.350821    2.991256
     94          1           0       10.320308    0.905434    2.055935
     95          1           0       10.049434   -2.255951    0.367535
     96          1           0        9.424905   -3.207432   -0.937692
     97          1           0        9.290340   -3.820869    0.827861
     98          1           0        4.122010   -4.277722    0.946803
     99          1           0        3.881511   -6.778974   -2.625327
    100          1           0        2.208272   -6.401753   -2.285028
    101          1           0        2.927741   -7.591033   -1.318058
    102          1           0       -2.377286   -4.558497   -1.706715
    103          1           0       -2.351058   -2.827967   -1.502500
    104          1           0       -4.254194   -4.741536   -0.152169
    105          1           0       -3.775881   -1.262548   -1.587786
    106          1           0       -4.939494   -0.810332   -0.302619
    107          1           0       -5.412854   -1.563054   -1.960198
    108          1           0       -6.422540   -4.236617   -0.174000
    109          1           0       -6.968847   -2.702276   -0.503132
    110          1           0       -5.745212   -2.087804    1.863415
    111          1           0       -6.176059   -3.762871    2.185596
    112          1           0       -8.160437   -3.274285    2.658137
    113          1           0       -8.539517   -2.668761    1.027275
    114          1           0       -7.221520   -0.470349    2.170886
    115          1           0       -7.334024   -1.751222    4.465347
    116          1           0       -8.969242   -0.944337    4.563453
    117          1           0       -7.565478   -0.057186    4.272870
    118          1           0       -9.800429    0.144058    2.745423
    119          1           0      -10.119697   -1.359982    1.984967
    120          1           0       -9.617019   -0.537434   -0.133277
    121          1           0       -8.312881    0.403940    0.360225
    122          1           0       -9.708483    2.363944    0.804489
    123          1           0      -11.000374    1.394770    1.334616
    124          1           0      -10.388835    0.975514   -1.512678
    125          1           0      -10.136706    3.182783   -1.843640
    126          1           0      -11.113246    3.675959   -0.480341
    127          1           0      -11.893257    3.005847   -2.010962
    128          1           0      -12.189907   -0.257106   -0.525932
    129          1           0      -12.712767    0.888976   -1.811042
    130          1           0      -13.054170    2.472638    0.309922
    131          1           0      -13.296361    1.094585    1.192965
    132          1           0      -15.367629    1.242923    0.680022
    133          1           0      -15.014424    0.387932   -0.788821
    134          1           0      -14.415293    3.284027   -1.242666
    135          1           0      -14.947332    2.322469   -3.212106
    136          1           0      -16.596740    2.754493   -2.850228
    137          1           0      -15.931755    1.080314   -2.624236
    138          1           0      -15.711773    3.981468    0.371535
    139          1           0      -16.879855    2.725451    0.101086
    140          1           0      -16.803877    4.011232   -1.129527
 ---------------------------------------------------------------------

 SCF Done:  E(RCAM-B3LYP) =  -3007.17068851     A.U. after   17 cycles

 Excitation energies and oscillator strengths:

 Excited State   1:      Singlet-A      1.6378 eV  756.99 nm  f=0.3793  <S**2>=0.000
     245 -> 248       -0.17207
     246 -> 247        0.68848
     245 <- 248       -0.10988
 This state for optimization and/or second-order correction.
 Total Energy, E(TD-HF/TD-DFT) =  -3007.11049873
 Copying the excited state density for this state as the 1-particle RhoCI density.

 Excited State   2:      Singlet-A      2.2238 eV  557.53 nm  f=0.1195  <S**2>=0.000
     245 -> 247        0.64086
     246 -> 248        0.28826

 Excited State   3:      Singlet-A      3.3072 eV  374.89 nm  f=0.0007  <S**2>=0.000
     244 -> 247        0.68014
     246 -> 248       -0.13667

 Excited State   4:      Singlet-A      3.4912 eV  355.13 nm  f=0.1096  <S**2>=0.000
     241 -> 247        0.25457
     241 -> 249       -0.14004
     243 -> 247        0.51519
     245 -> 247        0.10528
     246 -> 248       -0.31052

 Excited State   5:      Singlet-A      3.5502 eV  349.23 nm  f=0.4357  <S**2>=0.000
     240 -> 247        0.16207
     241 -> 249       -0.12808
     242 -> 247        0.31886
     242 -> 249        0.12121
     243 -> 247        0.24458
     245 -> 247       -0.21705
     246 -> 248        0.42688

 The electronic state is 1-A.
 Alpha  occ. eigenvalues --  -46.88424 -19.25063 -19.24029 -19.20320 -19.19142
 Alpha  occ. eigenvalues --  -19.19121 -19.18149 -14.42201 -14.41102 -14.39417
 Alpha  occ. eigenvalues --  -14.39248 -10.39996 -10.38255 -10.35258 -10.34358
 Alpha  occ. eigenvalues --  -10.32074 -10.31189 -10.31040 -10.30509 -10.30219
 Alpha  occ. eigenvalues --  -10.30211 -10.29924 -10.29746 -10.29631 -10.28675
 Alpha  occ. eigenvalues --  -10.28575 -10.28555 -10.28257 -10.27828 -10.27790
 Alpha  occ. eigenvalues --  -10.27658 -10.27514 -10.27459 -10.27370 -10.27132
 Alpha  occ. eigenvalues --  -10.26907 -10.26802 -10.26465 -10.26398 -10.26351
 Alpha  occ. eigenvalues --  -10.26217 -10.26136 -10.26127 -10.26057 -10.26030
 Alpha  occ. eigenvalues --  -10.25821 -10.25794 -10.25743 -10.25340 -10.25265
 Alpha  occ. eigenvalues --  -10.25232 -10.25231 -10.25175 -10.25078 -10.25025
 Alpha  occ. eigenvalues --  -10.24907 -10.24898 -10.24847 -10.24819 -10.24652
 Alpha  occ. eigenvalues --  -10.24622 -10.24567 -10.24561 -10.24311 -10.24184
 Alpha  occ. eigenvalues --  -10.23958  -3.16943  -1.91844  -1.91388  -1.91253
 Alpha  occ. eigenvalues --   -1.15632  -1.14992  -1.09996  -1.09422  -1.07910
 Alpha  occ. eigenvalues --   -1.06555  -1.04879  -1.02814  -1.02376  -1.01214
 Alpha  occ. eigenvalues --   -0.92222  -0.91010  -0.90450  -0.89515  -0.89215
 Alpha  occ. eigenvalues --   -0.89079  -0.88823  -0.87919  -0.87796  -0.87539
 Alpha  occ. eigenvalues --   -0.86403  -0.85352  -0.84687  -0.84033  -0.83360
 Alpha  occ. eigenvalues --   -0.82917  -0.82662  -0.81631  -0.80898  -0.80500
 Alpha  occ. eigenvalues --   -0.80154  -0.78483  -0.77851  -0.77010  -0.76227
 Alpha  occ. eigenvalues --   -0.75618  -0.75562  -0.75206  -0.74984  -0.74573
 Alpha  occ. eigenvalues --   -0.73487  -0.72626  -0.71176  -0.70240  -0.69159
 Alpha  occ. eigenvalues --   -0.68346  -0.68082  -0.67612  -0.66476  -0.66296
 Alpha  occ. eigenvalues --   -0.65116  -0.64640  -0.64234  -0.64072  -0.64023
 Alpha  occ. eigenvalues --   -0.63448  -0.63180  -0.61636  -0.61169  -0.59783
 Alpha  occ. eigenvalues --   -0.59401  -0.59238  -0.59038  -0.58565  -0.58046
 Alpha  occ. eigenvalues --   -0.57116  -0.56693  -0.56121  -0.55761  -0.55615
 Alpha  occ. eigenvalues --   -0.55232  -0.54841  -0.54601  -0.53977  -0.53795
 Alpha  occ. eigenvalues --   -0.53722  -0.53581  -0.53518  -0.53335  -0.52938
 Alpha  occ. eigenvalues --   -0.52793  -0.52633  -0.52314  -0.52099  -0.51981
 Alpha  occ. eigenvalues --   -0.51574  -0.51499  -0.51232  -0.51026  -0.50915
 Alpha  occ. eigenvalues --   -0.50701  -0.50323  -0.50279  -0.50192  -0.49963
 Alpha  occ. eigenvalues --   -0.49553  -0.49527  -0.49374  -0.49362  -0.49067
 Alpha  occ. eigenvalues --   -0.48746  -0.48736  -0.48106  -0.48058  -0.47936
 Alpha  occ. eigenvalues --   -0.47741  -0.47275  -0.47069  -0.46870  -0.46749
 Alpha  occ. eigenvalues --   -0.46506  -0.46034  -0.45863  -0.45600  -0.45520
 Alpha  occ. eigenvalues --   -0.45436  -0.44971  -0.44822  -0.44772  -0.44702
 Alpha  occ. eigenvalues --   -0.44540  -0.44446  -0.44303  -0.44184  -0.43959
 Alpha  occ. eigenvalues --   -0.43707  -0.43442  -0.43389  -0.43286  -0.43189
 Alpha  occ. eigenvalues --   -0.43045  -0.42954  -0.42789  -0.42141  -0.41735
 Alpha  occ. eigenvalues --   -0.41659  -0.41524  -0.41459  -0.41251  -0.41069
 Alpha  occ. eigenvalues --   -0.41012  -0.40687  -0.40380  -0.40344  -0.40044
 Alpha  occ. eigenvalues --   -0.39581  -0.39440  -0.39051  -0.38829  -0.38539
 Alpha  occ. eigenvalues --   -0.38418  -0.38124  -0.38035  -0.37703  -0.37407
 Alpha  occ. eigenvalues --   -0.36927  -0.36419  -0.36324  -0.35924  -0.35775
 Alpha  occ. eigenvalues --   -0.35574  -0.35362  -0.35264  -0.34615  -0.34303
 Alpha  occ. eigenvalues --   -0.33863  -0.33689  -0.32583  -0.31668  -0.31189
 Alpha  occ. eigenvalues --   -0.30687  -0.30342  -0.29968  -0.29399  -0.23949
 Alpha  occ. eigenvalues --   -0.20672
 Alpha virt. eigenvalues --   -0.08651  -0.01188   0.00729   0.02527   0.02743
 Alpha virt. eigenvalues --    0.04455   0.05306   0.05615   0.06250   0.07084
 Alpha virt. eigenvalues --    0.07745   0.07900   0.08517   0.08763   0.09066

 Mulliken charges:
               1
     1  Mg   0.826553
     2  C   -0.026374
     3  C   -0.062108
     4  C   -0.082440
     5  C   -0.076286
     6  N   -0.258641
     7  C   -0.018071
     8  C   -0.064998
     9  C   -0.074199
    10  C    0.020219
    11  C    0.060897
    12  C    0.057556
    13  C    0.105958
    14  C    0.170545
    15  O   -0.208634
    16  O   -0.361257
    17  N   -0.403144
    18  C    0.159122
    19  C   -0.159850
    20  C   -0.058844
    21  C    0.144728
    22  C    0.113529
    23  C   -0.022367
    24  O   -0.214656
    25  C    0.090784
    26  N   -0.334189
    27  C    0.072343
    28  C   -0.090649
    29  C    0.034301
    30  C    0.082287
    31  C    0.094109
    32  C    0.053449
    33  C    0.015987
    34  N   -0.314908
    35  C    0.072897
    36  C   -0.205354
    37  C    0.008357
    38  C    0.116463
    39  C    0.146854
    40  C    0.018215
    41  O   -0.157504
    42  C   -0.020102
    43  C    0.214197
    44  O   -0.203920
    45  O   -0.353658
    46  C    0.187060
    47  C    0.341248
    48  C   -0.094795
    49  C   -0.220305
    50  C    0.092534
    51  C    0.039813
    52  C    0.040575
    53  C    0.045587
    54  C   -0.134953
    55  C    0.046070
    56  C    0.042528
    57  C    0.042386
    58  C    0.067823
    59  C   -0.168953
    60  C    0.069788
    61  C    0.073806
    62  C   -0.012267
    63  C    0.070117
    64  C   -0.159602
    65  C    0.053892
    66  C    0.041958
    67  H   -0.028757
    68  H    0.002079
    69  H   -0.033439
    70  H    0.034097
    71  H    0.011596
    72  H    0.011689
    73  H    0.036577
    74  H    0.025709
    75  H    0.005338
    76  H   -0.001945
    77  H    0.013986
    78  H    0.037904
    79  H    0.022517
    80  H    0.015981
    81  H    0.047770
    82  H    0.028637
    83  H    0.026043
    84  H    0.034758
    85  H    0.002613
    86  H   -0.005900
    87  H    0.003601
    88  H    0.017368
    89  H    0.020935
    90  H    0.002268
    91  H    0.008214
    92  H    0.020276
    93  H   -0.002492
    94  H    0.017745
    95  H   -0.004755
    96  H    0.043150
    97  H    0.048653
    98  H    0.054571
    99  H    0.040412
   100  H    0.041508
   101  H    0.020856
   102  H    0.039133
   103  H   -0.011230
   104  H   -0.019543
   105  H    0.002517
   106  H    0.031500
   107  H    0.029003
   108  H    0.000803
   109  H   -0.012947
   110  H    0.002129
   111  H    0.002113
   112  H   -0.002010
   113  H    0.006196
   114  H   -0.005282
   115  H    0.005069
   116  H    0.013474
   117  H   -0.005154
   118  H   -0.011037
   119  H   -0.002041
   120  H   -0.005617
   121  H   -0.006318
   122  H   -0.011402
   123  H   -0.010007
   124  H   -0.013753
   125  H    0.004619
   126  H    0.013519
   127  H    0.008280
   128  H   -0.005519
   129  H   -0.005565
   130  H   -0.014542
   131  H   -0.010746
   132  H   -0.010705
   133  H   -0.006730
   134  H    0.003073
   135  H   -0.003032
   136  H    0.005632
   137  H    0.005935
   138  H    0.003066
   139  H   -0.004786
   140  H    0.010834
 Sum of Mulliken charges =  -0.00000

 Dipole moment (field-independent basis, Debye):
    X=             -4.4929    Y=              2.5491    Z=              3.1138  Tot=              6.0316
 Quadrupole moment (field-independent basis, Debye-Ang):
   XX=           -386.6459   YY=           -430.8226   ZZ=           -406.1146
   XY=             16.0480   XZ=             12.7932   YZ=              1.2328

 Normal termination of Gaussian 16 at Wed May  4 03:22:22 2022.
