 Gaussian 16, Revision A.03,
 Gaussian 16:  ES64L-G16RevA.03 25-Dec-2016

 ---------------------------------
 #p PBE1PBE/Def2SVP td=(nstates=5)
 ---------------------------------

 -----------------------------------------------------
 step_1301_chromophore_6 TDDFT with PBE1PBE functional
 -----------------------------------------------------
 Symbolic Z-matrix:
 Charge =  0 Multiplicity = 1

                         Standard orientation:
 ---------------------------------------------------------------------
 Center     Atomic      Atomic             Coordinates (Angstroms)
 Number     Number       Type             X           Y           Z
 ---------------------------------------------------------------------
      1         12           0        5.307753    1.157561    0.262813
      2          6           0        4.465417   -2.300985    0.050224
      3          6           0        1.836724    1.883855    0.241414
      4          6           0        6.099816    4.380047   -0.085195
      5          6           0        8.636009    0.238623   -0.140464
      6          7           0        3.321588   -0.086038    0.193038
      7          6           0        3.303481   -1.469044    0.016068
      8          6           0        1.816302   -1.943851    0.076562
      9          6           0        0.984606   -0.585251    0.022672
     10          6           0        2.097702    0.482369    0.136776
     11          6           0       -0.020236   -0.423242   -1.184354
     12          6           0        1.480831   -2.883618    1.254957
     13          6           0        0.824940   -4.211181    1.014714
     14          6           0       -0.166954   -4.334407   -0.179367
     15          8           0        0.117113   -4.837272   -1.242722
     16          8           0       -1.400286   -3.732690    0.092824
     17          7           0        4.171766    2.888274    0.230960
     18          6           0        2.740376    2.975811    0.320880
     19          6           0        2.401405    4.395962    0.493861
     20          6           0        3.611124    5.108448    0.153442
     21          6           0        4.672235    4.128207    0.020680
     22          6           0        1.023847    4.794718    0.696033
     23          6           0        3.773719    6.586756   -0.129032
     24          8           0        4.890142    7.063577   -0.314083
     25          6           0        2.598659    7.458979   -0.092461
     26          7           0        7.035484    2.158477   -0.339849
     27          6           0        7.121296    3.523440   -0.334932
     28          6           0        8.563032    3.970572   -0.480988
     29          6           0        9.343819    2.666644   -0.334507
     30          6           0        8.272552    1.558522   -0.303385
     31          6           0        8.850267    4.911672   -1.573259
     32          6           0       10.364627    2.628371    0.821142
     33          6           0        9.891226    1.906297    2.089192
     34          7           0        6.382687   -0.618653    0.152054
     35          6           0        7.740564   -0.842118    0.017237
     36          6           0        8.027150   -2.266769    0.159568
     37          6           0        6.753744   -2.839881    0.158659
     38          6           0        5.818577   -1.786634    0.115997
     39          6           0        9.283795   -2.991578    0.121324
     40          6           0        6.050985   -4.120622    0.080052
     41          8           0        6.546575   -5.234373    0.063974
     42          6           0        4.485077   -3.821107    0.026433
     43          6           0        3.885732   -4.507576   -1.087996
     44          8           0        3.603673   -4.064260   -2.184841
     45          8           0        3.531356   -5.779254   -0.661108
     46          6           0        3.161767   -6.651433   -1.817788
     47          6           0       -2.445293   -3.768139   -0.959440
     48          6           0       -3.818101   -3.785527   -0.442377
     49          6           0       -4.779198   -2.901118   -0.505713
     50          6           0       -4.728085   -1.504700   -1.115099
     51          6           0       -6.208125   -3.202765    0.096564
     52          6           0       -6.423796   -2.891589    1.577798
     53          6           0       -7.920397   -2.517136    1.911572
     54          6           0       -8.070765   -1.079124    2.482518
     55          6           0       -8.018284   -1.019488    4.035299
     56          6           0       -9.419312   -0.524164    1.973619
     57          6           0       -9.335057    0.162286    0.653441
     58          6           0      -10.230655    1.437729    0.564247
     59          6           0      -10.960955    1.551374   -0.785428
     60          6           0      -11.061483    2.968934   -1.308843
     61          6           0      -12.343169    0.788698   -0.790932
     62          6           0      -13.331892    1.429690    0.156566
     63          6           0      -14.794180    1.306681   -0.244229
     64          6           0      -15.214774    2.550257   -1.137153
     65          6           0      -15.758538    2.149388   -2.504259
     66          6           0      -16.224287    3.428091   -0.415032
     67          1           0        0.768664    2.112908    0.228495
     68          1           0        6.405030    5.411062    0.105735
     69          1           0        9.667005   -0.118035   -0.108801
     70          1           0        1.592092   -2.436933   -0.869654
     71          1           0        0.366125   -0.541569    0.919539
     72          1           0       -0.975657   -0.281764   -0.679350
     73          1           0       -0.010211   -1.366345   -1.731027
     74          1           0        0.173176    0.451623   -1.804964
     75          1           0        0.969359   -2.330441    2.042674
     76          1           0        2.481307   -3.047241    1.654684
     77          1           0        0.172265   -4.247701    1.886752
     78          1           0        1.579623   -4.977702    1.184469
     79          1           0        1.054689    5.547906    1.484105
     80          1           0        0.400120    4.015100    1.132204
     81          1           0        0.591863    5.123354   -0.249101
     82          1           0        2.263287    7.447872    0.945459
     83          1           0        1.827090    6.946037   -0.667218
     84          1           0        2.897993    8.479790   -0.329945
     85          1           0        8.755184    4.649495    0.349986
     86          1           0        9.793108    2.593754   -1.324207
     87          1           0        9.609792    4.579873   -2.281022
     88          1           0        9.152844    5.872473   -1.155769
     89          1           0        7.909415    4.959262   -2.120902
     90          1           0       10.477984    3.665680    1.132759
     91          1           0       11.296766    2.161751    0.503162
     92          1           0        8.841523    2.080934    2.327804
     93          1           0       10.311983    2.350821    2.991256
     94          1           0       10.320308    0.905434    2.055935
     95          1           0       10.049434   -2.255951    0.367535
     96          1           0        9.424905   -3.207432   -0.937692
     97          1           0        9.290340   -3.820869    0.827861
     98          1           0        4.122010   -4.277722    0.946803
     99          1           0        3.881511   -6.778974   -2.625327
    100          1           0        2.208272   -6.401753   -2.285028
    101          1           0        2.927741   -7.591033   -1.318058
    102          1           0       -2.377286   -4.558497   -1.706715
    103          1           0       -2.351058   -2.827967   -1.502500
    104          1           0       -4.254194   -4.741536   -0.152169
    105          1           0       -3.775881   -1.262548   -1.587786
    106          1           0       -4.939494   -0.810332   -0.302619
    107          1           0       -5.412854   -1.563054   -1.960198
    108          1           0       -6.422540   -4.236617   -0.174000
    109          1           0       -6.968847   -2.702276   -0.503132
    110          1           0       -5.745212   -2.087804    1.863415
    111          1           0       -6.176059   -3.762871    2.185596
    112          1           0       -8.160437   -3.274285    2.658137
    113          1           0       -8.539517   -2.668761    1.027275
    114          1           0       -7.221520   -0.470349    2.170886
    115          1           0       -7.334024   -1.751222    4.465347
    116          1           0       -8.969242   -0.944337    4.563453
    117          1           0       -7.565478   -0.057186    4.272870
    118          1           0       -9.800429    0.144058    2.745423
    119          1           0      -10.119697   -1.359982    1.984967
    120          1           0       -9.617019   -0.537434   -0.133277
    121          1           0       -8.312881    0.403940    0.360225
    122          1           0       -9.708483    2.363944    0.804489
    123          1           0      -11.000374    1.394770    1.334616
    124          1           0      -10.388835    0.975514   -1.512678
    125          1           0      -10.136706    3.182783   -1.843640
    126          1           0      -11.113246    3.675959   -0.480341
    127          1           0      -11.893257    3.005847   -2.010962
    128          1           0      -12.189907   -0.257106   -0.525932
    129          1           0      -12.712767    0.888976   -1.811042
    130          1           0      -13.054170    2.472638    0.309922
    131          1           0      -13.296361    1.094585    1.192965
    132          1           0      -15.367629    1.242923    0.680022
    133          1           0      -15.014424    0.387932   -0.788821
    134          1           0      -14.415293    3.284027   -1.242666
    135          1           0      -14.947332    2.322469   -3.212106
    136          1           0      -16.596740    2.754493   -2.850228
    137          1           0      -15.931755    1.080314   -2.624236
    138          1           0      -15.711773    3.981468    0.371535
    139          1           0      -16.879855    2.725451    0.101086
    140          1           0      -16.803877    4.011232   -1.129527
 ---------------------------------------------------------------------

 SCF Done:  E(RPBE1PBE) =  -3005.36016556     A.U. after   15 cycles

 Excitation energies and oscillator strengths:

 Excited State   1:      Singlet-A      1.8047 eV  687.02 nm  f=0.3618  <S**2>=0.000
     245 -> 248        0.16610
     246 -> 247        0.69708
     246 <- 247       -0.12000
 This state for optimization and/or second-order correction.
 Total Energy, E(TD-HF/TD-DFT) =  -3005.29384576
 Copying the excited state density for this state as the 1-particle RhoCI density.

 Excited State   2:      Singlet-A      2.2231 eV  557.71 nm  f=0.1188  <S**2>=0.000
     245 -> 247        0.65210
     246 -> 248       -0.26275

 Excited State   3:      Singlet-A      2.9883 eV  414.89 nm  f=0.0052  <S**2>=0.000
     242 -> 247       -0.14616
     244 -> 247        0.67789

 Excited State   4:      Singlet-A      3.0174 eV  410.90 nm  f=0.0015  <S**2>=0.000
     242 -> 247        0.16203
     242 -> 249        0.10636
     243 -> 247        0.65036

 Excited State   5:      Singlet-A      3.0594 eV  405.26 nm  f=0.0018  <S**2>=0.000
     241 -> 247        0.25179
     242 -> 247        0.58023
     243 -> 247       -0.15644
     244 -> 247        0.15316
     246 -> 248        0.13880

 The electronic state is 1-A.
 Alpha  occ. eigenvalues --  -46.91823 -19.25737 -19.24634 -19.20541 -19.19352
 Alpha  occ. eigenvalues --  -19.19276 -19.18343 -14.41593 -14.40773 -14.39068
 Alpha  occ. eigenvalues --  -14.38893 -10.37024 -10.35155 -10.32427 -10.31428
 Alpha  occ. eigenvalues --  -10.29428 -10.28995 -10.28725 -10.28312 -10.27903
 Alpha  occ. eigenvalues --  -10.27816 -10.27449 -10.27414 -10.27136 -10.26397
 Alpha  occ. eigenvalues --  -10.26304 -10.26114 -10.25847 -10.25612 -10.25327
 Alpha  occ. eigenvalues --  -10.25317 -10.25280 -10.25223 -10.24842 -10.24503
 Alpha  occ. eigenvalues --  -10.24477 -10.24474 -10.24267 -10.24125 -10.23858
 Alpha  occ. eigenvalues --  -10.23791 -10.23786 -10.23769 -10.23570 -10.23568
 Alpha  occ. eigenvalues --  -10.23352 -10.23300 -10.23257 -10.22955 -10.22931
 Alpha  occ. eigenvalues --  -10.22920 -10.22904 -10.22777 -10.22555 -10.22543
 Alpha  occ. eigenvalues --  -10.22455 -10.22437 -10.22418 -10.22334 -10.22222
 Alpha  occ. eigenvalues --  -10.22199 -10.22112 -10.21952 -10.21836 -10.21572
 Alpha  occ. eigenvalues --  -10.21338  -3.13923  -1.86764  -1.86287  -1.86156
 Alpha  occ. eigenvalues --   -1.10400  -1.09670  -1.04751  -1.04111  -1.02763
 Alpha  occ. eigenvalues --   -1.01318  -0.99632  -0.97468  -0.96912  -0.95824
 Alpha  occ. eigenvalues --   -0.86528  -0.85139  -0.84540  -0.83669  -0.83391
 Alpha  occ. eigenvalues --   -0.83351  -0.83150  -0.82228  -0.81907  -0.81882
 Alpha  occ. eigenvalues --   -0.80651  -0.79537  -0.78878  -0.78363  -0.77559
 Alpha  occ. eigenvalues --   -0.77076  -0.76925  -0.75817  -0.75208  -0.74715
 Alpha  occ. eigenvalues --   -0.74468  -0.72779  -0.72122  -0.71355  -0.70408
 Alpha  occ. eigenvalues --   -0.69906  -0.69648  -0.69372  -0.69314  -0.68738
 Alpha  occ. eigenvalues --   -0.67789  -0.67094  -0.65608  -0.64586  -0.63551
 Alpha  occ. eigenvalues --   -0.62679  -0.62460  -0.61719  -0.60867  -0.60524
 Alpha  occ. eigenvalues --   -0.59587  -0.59193  -0.58737  -0.58584  -0.58174
 Alpha  occ. eigenvalues --   -0.57940  -0.57338  -0.55864  -0.55721  -0.54308
 Alpha  occ. eigenvalues --   -0.53982  -0.53688  -0.53511  -0.53121  -0.52423
 Alpha  occ. eigenvalues --   -0.51705  -0.51168  -0.50623  -0.50330  -0.50105
 Alpha  occ. eigenvalues --   -0.49696  -0.49321  -0.49175  -0.48361  -0.48334
 Alpha  occ. eigenvalues --   -0.48171  -0.48017  -0.47893  -0.47767  -0.47456
 Alpha  occ. eigenvalues --   -0.47357  -0.47161  -0.46911  -0.46577  -0.46541
 Alpha  occ. eigenvalues --   -0.46122  -0.46032  -0.45728  -0.45596  -0.45425
 Alpha  occ. eigenvalues --   -0.45201  -0.44966  -0.44811  -0.44735  -0.44593
 Alpha  occ. eigenvalues --   -0.44151  -0.44106  -0.43974  -0.43901  -0.43680
 Alpha  occ. eigenvalues --   -0.43397  -0.43333  -0.42677  -0.42642  -0.42518
 Alpha  occ. eigenvalues --   -0.42409  -0.41983  -0.41773  -0.41496  -0.41403
 Alpha  occ. eigenvalues --   -0.41227  -0.40805  -0.40491  -0.40322  -0.40195
 Alpha  occ. eigenvalues --   -0.40163  -0.39721  -0.39578  -0.39478  -0.39342
 Alpha  occ. eigenvalues --   -0.39281  -0.39147  -0.39017  -0.38862  -0.38791
 Alpha  occ. eigenvalues --   -0.38451  -0.38315  -0.38159  -0.38034  -0.37946
 Alpha  occ. eigenvalues --   -0.37761  -0.37734  -0.37665  -0.36834  -0.36470
 Alpha  occ. eigenvalues --   -0.36400  -0.36269  -0.36241  -0.36101  -0.35878
 Alpha  occ. eigenvalues --   -0.35733  -0.35554  -0.35275  -0.35190  -0.34988
 Alpha  occ. eigenvalues --   -0.34345  -0.34320  -0.33811  -0.33710  -0.33409
 Alpha  occ. eigenvalues --   -0.33278  -0.33122  -0.32874  -0.32541  -0.32416
 Alpha  occ. eigenvalues --   -0.31786  -0.31422  -0.31219  -0.30867  -0.30650
 Alpha  occ. eigenvalues --   -0.30436  -0.30365  -0.30206  -0.29536  -0.29212
 Alpha  occ. eigenvalues --   -0.28997  -0.28445  -0.28135  -0.26933  -0.26621
 Alpha  occ. eigenvalues --   -0.25746  -0.25517  -0.25279  -0.24968  -0.20847
 Alpha  occ. eigenvalues --   -0.18355
 Alpha virt. eigenvalues --   -0.11064  -0.04689  -0.03507  -0.01828  -0.00129
 Alpha virt. eigenvalues --   -0.00028   0.00796   0.01043   0.01754   0.03497
 Alpha virt. eigenvalues --    0.04383   0.04423   0.04790   0.05268   0.05537

 Mulliken charges:
               1
     1  Mg   0.972350
     2  C   -0.032623
     3  C   -0.062875
     4  C   -0.071794
     5  C   -0.061605
     6  N   -0.361764
     7  C    0.066846
     8  C   -0.134390
     9  C   -0.142502
    10  C    0.065320
    11  C    0.000875
    12  C    0.006204
    13  C    0.025910
    14  C    0.234868
    15  O   -0.242272
    16  O   -0.390676
    17  N   -0.510488
    18  C    0.176375
    19  C   -0.181840
    20  C   -0.111300
    21  C    0.181792
    22  C    0.048039
    23  C    0.033236
    24  O   -0.252870
    25  C    0.013977
    26  N   -0.441579
    27  C    0.096073
    28  C   -0.156129
    29  C   -0.039304
    30  C    0.111771
    31  C    0.035887
    32  C   -0.015409
    33  C   -0.059849
    34  N   -0.448338
    35  C    0.089916
    36  C   -0.217970
    37  C   -0.041748
    38  C    0.163359
    39  C    0.087519
    40  C    0.120723
    41  O   -0.203115
    42  C   -0.132813
    43  C    0.303621
    44  O   -0.240851
    45  O   -0.384625
    46  C    0.129571
    47  C    0.292772
    48  C   -0.103408
    49  C   -0.263369
    50  C    0.027325
    51  C   -0.021429
    52  C   -0.019959
    53  C   -0.007511
    54  C   -0.221435
    55  C   -0.013351
    56  C   -0.018453
    57  C   -0.013790
    58  C    0.015761
    59  C   -0.258418
    60  C    0.005959
    61  C    0.017469
    62  C   -0.078057
    63  C    0.017659
    64  C   -0.252416
    65  C   -0.005857
    66  C   -0.020055
    67  H    0.002064
    68  H    0.033855
    69  H   -0.000415
    70  H    0.075173
    71  H    0.048850
    72  H    0.038907
    73  H    0.063166
    74  H    0.052988
    75  H    0.036148
    76  H    0.034485
    77  H    0.048315
    78  H    0.069321
    79  H    0.051363
    80  H    0.042994
    81  H    0.074318
    82  H    0.056897
    83  H    0.054140
    84  H    0.061440
    85  H    0.041114
    86  H    0.034267
    87  H    0.031258
    88  H    0.043596
    89  H    0.050107
    90  H    0.036148
    91  H    0.040334
    92  H    0.050998
    93  H    0.027743
    94  H    0.045480
    95  H    0.024529
    96  H    0.072383
    97  H    0.075419
    98  H    0.090743
    99  H    0.062472
   100  H    0.064797
   101  H    0.043052
   102  H    0.064809
   103  H    0.020414
   104  H    0.010724
   105  H    0.030007
   106  H    0.058843
   107  H    0.057264
   108  H    0.032907
   109  H    0.019120
   110  H    0.034674
   111  H    0.034694
   112  H    0.030923
   113  H    0.037889
   114  H    0.031379
   115  H    0.033093
   116  H    0.040082
   117  H    0.023837
   118  H    0.022386
   119  H    0.031232
   120  H    0.025563
   121  H    0.025976
   122  H    0.021046
   123  H    0.024150
   124  H    0.025749
   125  H    0.034254
   126  H    0.039544
   127  H    0.036890
   128  H    0.027820
   129  H    0.028925
   130  H    0.019871
   131  H    0.021530
   132  H    0.021150
   133  H    0.025112
   134  H    0.041023
   135  H    0.025017
   136  H    0.032044
   137  H    0.032648
   138  H    0.031783
   139  H    0.023961
   140  H    0.038275
 Sum of Mulliken charges =  -0.00000

 Dipole moment (field-independent basis, Debye):
    X=             -4.3025    Y=              2.5320    Z=              3.1671  Tot=              5.9121
 Quadrupole moment (field-independent basis, Debye-Ang):
   XX=           -378.8870   YY=           -428.3102   ZZ=           -403.6249
   XY=             16.7398   XZ=             12.8176   YZ=              1.2000

 Normal termination of Gaussian 16 at Wed May  4 03:38:49 2022.
