 Gaussian 16, Revision A.03,
 Gaussian 16:  ES64L-G16RevA.03 25-Dec-2016

 --------------------------------
 #p wB97XD/Def2SVP td=(nstates=5)
 --------------------------------

 ----------------------------------------------------
 step_1301_chromophore_6 TDDFT with wB97XD functional
 ----------------------------------------------------
 Symbolic Z-matrix:
 Charge =  0 Multiplicity = 1

                         Standard orientation:
 ---------------------------------------------------------------------
 Center     Atomic      Atomic             Coordinates (Angstroms)
 Number     Number       Type             X           Y           Z
 ---------------------------------------------------------------------
      1         12           0        5.307753    1.157561    0.262813
      2          6           0        4.465417   -2.300985    0.050224
      3          6           0        1.836724    1.883855    0.241414
      4          6           0        6.099816    4.380047   -0.085195
      5          6           0        8.636009    0.238623   -0.140464
      6          7           0        3.321588   -0.086038    0.193038
      7          6           0        3.303481   -1.469044    0.016068
      8          6           0        1.816302   -1.943851    0.076562
      9          6           0        0.984606   -0.585251    0.022672
     10          6           0        2.097702    0.482369    0.136776
     11          6           0       -0.020236   -0.423242   -1.184354
     12          6           0        1.480831   -2.883618    1.254957
     13          6           0        0.824940   -4.211181    1.014714
     14          6           0       -0.166954   -4.334407   -0.179367
     15          8           0        0.117113   -4.837272   -1.242722
     16          8           0       -1.400286   -3.732690    0.092824
     17          7           0        4.171766    2.888274    0.230960
     18          6           0        2.740376    2.975811    0.320880
     19          6           0        2.401405    4.395962    0.493861
     20          6           0        3.611124    5.108448    0.153442
     21          6           0        4.672235    4.128207    0.020680
     22          6           0        1.023847    4.794718    0.696033
     23          6           0        3.773719    6.586756   -0.129032
     24          8           0        4.890142    7.063577   -0.314083
     25          6           0        2.598659    7.458979   -0.092461
     26          7           0        7.035484    2.158477   -0.339849
     27          6           0        7.121296    3.523440   -0.334932
     28          6           0        8.563032    3.970572   -0.480988
     29          6           0        9.343819    2.666644   -0.334507
     30          6           0        8.272552    1.558522   -0.303385
     31          6           0        8.850267    4.911672   -1.573259
     32          6           0       10.364627    2.628371    0.821142
     33          6           0        9.891226    1.906297    2.089192
     34          7           0        6.382687   -0.618653    0.152054
     35          6           0        7.740564   -0.842118    0.017237
     36          6           0        8.027150   -2.266769    0.159568
     37          6           0        6.753744   -2.839881    0.158659
     38          6           0        5.818577   -1.786634    0.115997
     39          6           0        9.283795   -2.991578    0.121324
     40          6           0        6.050985   -4.120622    0.080052
     41          8           0        6.546575   -5.234373    0.063974
     42          6           0        4.485077   -3.821107    0.026433
     43          6           0        3.885732   -4.507576   -1.087996
     44          8           0        3.603673   -4.064260   -2.184841
     45          8           0        3.531356   -5.779254   -0.661108
     46          6           0        3.161767   -6.651433   -1.817788
     47          6           0       -2.445293   -3.768139   -0.959440
     48          6           0       -3.818101   -3.785527   -0.442377
     49          6           0       -4.779198   -2.901118   -0.505713
     50          6           0       -4.728085   -1.504700   -1.115099
     51          6           0       -6.208125   -3.202765    0.096564
     52          6           0       -6.423796   -2.891589    1.577798
     53          6           0       -7.920397   -2.517136    1.911572
     54          6           0       -8.070765   -1.079124    2.482518
     55          6           0       -8.018284   -1.019488    4.035299
     56          6           0       -9.419312   -0.524164    1.973619
     57          6           0       -9.335057    0.162286    0.653441
     58          6           0      -10.230655    1.437729    0.564247
     59          6           0      -10.960955    1.551374   -0.785428
     60          6           0      -11.061483    2.968934   -1.308843
     61          6           0      -12.343169    0.788698   -0.790932
     62          6           0      -13.331892    1.429690    0.156566
     63          6           0      -14.794180    1.306681   -0.244229
     64          6           0      -15.214774    2.550257   -1.137153
     65          6           0      -15.758538    2.149388   -2.504259
     66          6           0      -16.224287    3.428091   -0.415032
     67          1           0        0.768664    2.112908    0.228495
     68          1           0        6.405030    5.411062    0.105735
     69          1           0        9.667005   -0.118035   -0.108801
     70          1           0        1.592092   -2.436933   -0.869654
     71          1           0        0.366125   -0.541569    0.919539
     72          1           0       -0.975657   -0.281764   -0.679350
     73          1           0       -0.010211   -1.366345   -1.731027
     74          1           0        0.173176    0.451623   -1.804964
     75          1           0        0.969359   -2.330441    2.042674
     76          1           0        2.481307   -3.047241    1.654684
     77          1           0        0.172265   -4.247701    1.886752
     78          1           0        1.579623   -4.977702    1.184469
     79          1           0        1.054689    5.547906    1.484105
     80          1           0        0.400120    4.015100    1.132204
     81          1           0        0.591863    5.123354   -0.249101
     82          1           0        2.263287    7.447872    0.945459
     83          1           0        1.827090    6.946037   -0.667218
     84          1           0        2.897993    8.479790   -0.329945
     85          1           0        8.755184    4.649495    0.349986
     86          1           0        9.793108    2.593754   -1.324207
     87          1           0        9.609792    4.579873   -2.281022
     88          1           0        9.152844    5.872473   -1.155769
     89          1           0        7.909415    4.959262   -2.120902
     90          1           0       10.477984    3.665680    1.132759
     91          1           0       11.296766    2.161751    0.503162
     92          1           0        8.841523    2.080934    2.327804
     93          1           0       10.311983    2.350821    2.991256
     94          1           0       10.320308    0.905434    2.055935
     95          1           0       10.049434   -2.255951    0.367535
     96          1           0        9.424905   -3.207432   -0.937692
     97          1           0        9.290340   -3.820869    0.827861
     98          1           0        4.122010   -4.277722    0.946803
     99          1           0        3.881511   -6.778974   -2.625327
    100          1           0        2.208272   -6.401753   -2.285028
    101          1           0        2.927741   -7.591033   -1.318058
    102          1           0       -2.377286   -4.558497   -1.706715
    103          1           0       -2.351058   -2.827967   -1.502500
    104          1           0       -4.254194   -4.741536   -0.152169
    105          1           0       -3.775881   -1.262548   -1.587786
    106          1           0       -4.939494   -0.810332   -0.302619
    107          1           0       -5.412854   -1.563054   -1.960198
    108          1           0       -6.422540   -4.236617   -0.174000
    109          1           0       -6.968847   -2.702276   -0.503132
    110          1           0       -5.745212   -2.087804    1.863415
    111          1           0       -6.176059   -3.762871    2.185596
    112          1           0       -8.160437   -3.274285    2.658137
    113          1           0       -8.539517   -2.668761    1.027275
    114          1           0       -7.221520   -0.470349    2.170886
    115          1           0       -7.334024   -1.751222    4.465347
    116          1           0       -8.969242   -0.944337    4.563453
    117          1           0       -7.565478   -0.057186    4.272870
    118          1           0       -9.800429    0.144058    2.745423
    119          1           0      -10.119697   -1.359982    1.984967
    120          1           0       -9.617019   -0.537434   -0.133277
    121          1           0       -8.312881    0.403940    0.360225
    122          1           0       -9.708483    2.363944    0.804489
    123          1           0      -11.000374    1.394770    1.334616
    124          1           0      -10.388835    0.975514   -1.512678
    125          1           0      -10.136706    3.182783   -1.843640
    126          1           0      -11.113246    3.675959   -0.480341
    127          1           0      -11.893257    3.005847   -2.010962
    128          1           0      -12.189907   -0.257106   -0.525932
    129          1           0      -12.712767    0.888976   -1.811042
    130          1           0      -13.054170    2.472638    0.309922
    131          1           0      -13.296361    1.094585    1.192965
    132          1           0      -15.367629    1.242923    0.680022
    133          1           0      -15.014424    0.387932   -0.788821
    134          1           0      -14.415293    3.284027   -1.242666
    135          1           0      -14.947332    2.322469   -3.212106
    136          1           0      -16.596740    2.754493   -2.850228
    137          1           0      -15.931755    1.080314   -2.624236
    138          1           0      -15.711773    3.981468    0.371535
    139          1           0      -16.879855    2.725451    0.101086
    140          1           0      -16.803877    4.011232   -1.129527
 ---------------------------------------------------------------------

 SCF Done:  E(RwB97XD) =  -3007.87044049     A.U. after   17 cycles

 Excitation energies and oscillator strengths:

 Excited State   1:      Singlet-A      1.5755 eV  786.97 nm  f=0.3785  <S**2>=0.000
     245 -> 248       -0.17762
     246 -> 247        0.68604
     245 <- 248       -0.11923
 This state for optimization and/or second-order correction.
 Total Energy, E(TD-HF/TD-DFT) =  -3007.81254333
 Copying the excited state density for this state as the 1-particle RhoCI density.

 Excited State   2:      Singlet-A      2.1683 eV  571.80 nm  f=0.1159  <S**2>=0.000
     245 -> 247        0.63879
     246 -> 248        0.29108

 Excited State   3:      Singlet-A      3.3232 eV  373.09 nm  f=0.0017  <S**2>=0.000
     244 -> 247        0.67191
     246 -> 248       -0.15230

 Excited State   4:      Singlet-A      3.5073 eV  353.50 nm  f=0.1847  <S**2>=0.000
     241 -> 247        0.19921
     241 -> 249       -0.12171
     243 -> 247        0.49293
     243 -> 249       -0.10271
     245 -> 247        0.13581
     246 -> 248       -0.37091

 Excited State   5:      Singlet-A      3.5734 eV  346.96 nm  f=0.3894  <S**2>=0.000
     240 -> 247        0.10981
     241 -> 249       -0.15456
     242 -> 247        0.30115
     242 -> 249        0.14893
     242 -> 250       -0.13457
     243 -> 247        0.32185
     244 -> 247        0.10244
     245 -> 247       -0.20694
     246 -> 248        0.38309

 The electronic state is 1-A.
 Alpha  occ. eigenvalues --  -46.94755 -19.30308 -19.29238 -19.25218 -19.24179
 Alpha  occ. eigenvalues --  -19.24052 -19.23178 -14.46819 -14.45679 -14.44034
 Alpha  occ. eigenvalues --  -14.43816 -10.43823 -10.42069 -10.39289 -10.38303
 Alpha  occ. eigenvalues --  -10.35974 -10.35229 -10.35054 -10.34507 -10.34292
 Alpha  occ. eigenvalues --  -10.34265 -10.33762 -10.33676 -10.33648 -10.32734
 Alpha  occ. eigenvalues --  -10.32730 -10.32642 -10.32311 -10.31892 -10.31869
 Alpha  occ. eigenvalues --  -10.31664 -10.31576 -10.31545 -10.31287 -10.31078
 Alpha  occ. eigenvalues --  -10.30909 -10.30870 -10.30414 -10.30344 -10.30309
 Alpha  occ. eigenvalues --  -10.30173 -10.30056 -10.30048 -10.29976 -10.29890
 Alpha  occ. eigenvalues --  -10.29743 -10.29727 -10.29668 -10.29291 -10.29201
 Alpha  occ. eigenvalues --  -10.29199 -10.29180 -10.29171 -10.28943 -10.28904
 Alpha  occ. eigenvalues --  -10.28835 -10.28822 -10.28775 -10.28658 -10.28613
 Alpha  occ. eigenvalues --  -10.28577 -10.28449 -10.28403 -10.28223 -10.27998
 Alpha  occ. eigenvalues --  -10.27774  -3.20718  -1.94307  -1.93831  -1.93698
 Alpha  occ. eigenvalues --   -1.17788  -1.17129  -1.12243  -1.11629  -1.10111
 Alpha  occ. eigenvalues --   -1.08738  -1.06903  -1.04798  -1.04373  -1.03256
 Alpha  occ. eigenvalues --   -0.94191  -0.92819  -0.92218  -0.91330  -0.91015
 Alpha  occ. eigenvalues --   -0.90953  -0.90725  -0.89847  -0.89568  -0.89453
 Alpha  occ. eigenvalues --   -0.88348  -0.87205  -0.86547  -0.85928  -0.85261
 Alpha  occ. eigenvalues --   -0.84778  -0.84570  -0.83485  -0.82818  -0.82369
 Alpha  occ. eigenvalues --   -0.82107  -0.80462  -0.79761  -0.78905  -0.78083
 Alpha  occ. eigenvalues --   -0.77543  -0.77349  -0.77034  -0.76912  -0.76408
 Alpha  occ. eigenvalues --   -0.75404  -0.74621  -0.73140  -0.72179  -0.71065
 Alpha  occ. eigenvalues --   -0.70263  -0.70043  -0.69421  -0.68438  -0.68179
 Alpha  occ. eigenvalues --   -0.67086  -0.66609  -0.66225  -0.66033  -0.65848
 Alpha  occ. eigenvalues --   -0.65421  -0.65000  -0.63484  -0.63165  -0.61782
 Alpha  occ. eigenvalues --   -0.61376  -0.61160  -0.61000  -0.60525  -0.59975
 Alpha  occ. eigenvalues --   -0.59099  -0.58614  -0.58043  -0.57720  -0.57552
 Alpha  occ. eigenvalues --   -0.57136  -0.56743  -0.56582  -0.55831  -0.55711
 Alpha  occ. eigenvalues --   -0.55610  -0.55506  -0.55421  -0.55202  -0.54825
 Alpha  occ. eigenvalues --   -0.54719  -0.54566  -0.54239  -0.53960  -0.53904
 Alpha  occ. eigenvalues --   -0.53521  -0.53402  -0.53105  -0.52929  -0.52799
 Alpha  occ. eigenvalues --   -0.52664  -0.52273  -0.52153  -0.52065  -0.51898
 Alpha  occ. eigenvalues --   -0.51457  -0.51424  -0.51297  -0.51238  -0.50972
 Alpha  occ. eigenvalues --   -0.50689  -0.50644  -0.50038  -0.49938  -0.49824
 Alpha  occ. eigenvalues --   -0.49656  -0.49229  -0.49016  -0.48791  -0.48651
 Alpha  occ. eigenvalues --   -0.48443  -0.47963  -0.47717  -0.47485  -0.47377
 Alpha  occ. eigenvalues --   -0.47342  -0.46876  -0.46742  -0.46622  -0.46606
 Alpha  occ. eigenvalues --   -0.46439  -0.46359  -0.46206  -0.46053  -0.45893
 Alpha  occ. eigenvalues --   -0.45667  -0.45363  -0.45312  -0.45196  -0.45089
 Alpha  occ. eigenvalues --   -0.44927  -0.44868  -0.44729  -0.44071  -0.43613
 Alpha  occ. eigenvalues --   -0.43545  -0.43386  -0.43362  -0.43168  -0.43050
 Alpha  occ. eigenvalues --   -0.42860  -0.42649  -0.42251  -0.42240  -0.41938
 Alpha  occ. eigenvalues --   -0.41437  -0.41336  -0.40880  -0.40715  -0.40406
 Alpha  occ. eigenvalues --   -0.40306  -0.40008  -0.39884  -0.39573  -0.39336
 Alpha  occ. eigenvalues --   -0.38801  -0.38444  -0.38266  -0.37846  -0.37738
 Alpha  occ. eigenvalues --   -0.37413  -0.37300  -0.37112  -0.36448  -0.36229
 Alpha  occ. eigenvalues --   -0.35863  -0.35607  -0.34819  -0.33685  -0.33306
 Alpha  occ. eigenvalues --   -0.32670  -0.32384  -0.32114  -0.31586  -0.25859
 Alpha  occ. eigenvalues --   -0.22460
 Alpha virt. eigenvalues --   -0.07013   0.00726   0.02790   0.04678   0.05816
 Alpha virt. eigenvalues --    0.06676   0.07496   0.07835   0.08562   0.09990
 Alpha virt. eigenvalues --    0.10737   0.11162   0.11532   0.12094   0.12239

 Mulliken charges:
               1
     1  Mg   0.963024
     2  C   -0.035002
     3  C   -0.074235
     4  C   -0.093356
     5  C   -0.083924
     6  N   -0.324448
     7  C    0.030378
     8  C   -0.109072
     9  C   -0.118144
    10  C    0.045710
    11  C    0.014279
    12  C    0.019967
    13  C    0.044454
    14  C    0.220860
    15  O   -0.238299
    16  O   -0.389154
    17  N   -0.483417
    18  C    0.170470
    19  C   -0.170620
    20  C   -0.103937
    21  C    0.171507
    22  C    0.060310
    23  C    0.027546
    24  O   -0.246548
    25  C    0.027602
    26  N   -0.409071
    27  C    0.092824
    28  C   -0.133197
    29  C   -0.016377
    30  C    0.105297
    31  C    0.044090
    32  C   -0.000794
    33  C   -0.038036
    34  N   -0.407683
    35  C    0.084019
    36  C   -0.215240
    37  C   -0.038372
    38  C    0.147153
    39  C    0.100498
    40  C    0.099421
    41  O   -0.193263
    42  C   -0.090193
    43  C    0.277776
    44  O   -0.232990
    45  O   -0.382779
    46  C    0.144130
    47  C    0.312185
    48  C   -0.116009
    49  C   -0.247626
    50  C    0.042989
    51  C   -0.000871
    52  C   -0.005207
    53  C    0.005284
    54  C   -0.190265
    55  C   -0.002896
    56  C    0.002238
    57  C   -0.000539
    58  C    0.028586
    59  C   -0.221927
    60  C    0.017455
    61  C    0.030829
    62  C   -0.056272
    63  C    0.030013
    64  C   -0.222362
    65  C    0.006710
    66  C   -0.005133
    67  H   -0.003398
    68  H    0.029100
    69  H   -0.008322
    70  H    0.057609
    71  H    0.037435
    72  H    0.032903
    73  H    0.055969
    74  H    0.047650
    75  H    0.030187
    76  H    0.021443
    77  H    0.042501
    78  H    0.064042
    79  H    0.045578
    80  H    0.038978
    81  H    0.070582
    82  H    0.050215
    83  H    0.046485
    84  H    0.061319
    85  H    0.028079
    86  H    0.022507
    87  H    0.025892
    88  H    0.039528
    89  H    0.042926
    90  H    0.027208
    91  H    0.034469
    92  H    0.040656
    93  H    0.021814
    94  H    0.038057
    95  H    0.016945
    96  H    0.066997
    97  H    0.072099
    98  H    0.082062
    99  H    0.059028
   100  H    0.060851
   101  H    0.039873
   102  H    0.061719
   103  H    0.008786
   104  H    0.006872
   105  H    0.024235
   106  H    0.052266
   107  H    0.051086
   108  H    0.025400
   109  H    0.008400
   110  H    0.023607
   111  H    0.028055
   112  H    0.023514
   113  H    0.026860
   114  H    0.017392
   115  H    0.027373
   116  H    0.034653
   117  H    0.017473
   118  H    0.011776
   119  H    0.021928
   120  H    0.014976
   121  H    0.017406
   122  H    0.014540
   123  H    0.009734
   124  H    0.013304
   125  H    0.029125
   126  H    0.033514
   127  H    0.029015
   128  H    0.019960
   129  H    0.017370
   130  H    0.004688
   131  H    0.014065
   132  H    0.013675
   133  H    0.016302
   134  H    0.026471
   135  H    0.018147
   136  H    0.026670
   137  H    0.026476
   138  H    0.025796
   139  H    0.015487
   140  H    0.032275
 Sum of Mulliken charges =  -0.00000

 Dipole moment (field-independent basis, Debye):
    X=             -4.5926    Y=              2.6288    Z=              3.2017  Tot=              6.1849
 Quadrupole moment (field-independent basis, Debye-Ang):
   XX=           -381.8352   YY=           -426.3364   ZZ=           -403.2984
   XY=             16.0119   XZ=             13.0483   YZ=              1.2415

 Normal termination of Gaussian 16 at Wed May  4 04:07:16 2022.
