 Gaussian 16, Revision A.03,
 Gaussian 16:  ES64L-G16RevA.03 25-Dec-2016

 --------------------
 #p ZINDO=(nstates=5)
 --------------------

 -----------------------------
 step_1301_chromophore_6 ZINDO
 -----------------------------
 Symbolic Z-matrix:
 Charge =  0 Multiplicity = 1

                         Standard orientation:
 ---------------------------------------------------------------------
 Center     Atomic      Atomic             Coordinates (Angstroms)
 Number     Number       Type             X           Y           Z
 ---------------------------------------------------------------------
      1         12           0        5.307753    1.157561    0.262813
      2          6           0        4.465417   -2.300985    0.050224
      3          6           0        1.836724    1.883855    0.241414
      4          6           0        6.099816    4.380047   -0.085195
      5          6           0        8.636009    0.238623   -0.140464
      6          7           0        3.321588   -0.086038    0.193038
      7          6           0        3.303481   -1.469044    0.016068
      8          6           0        1.816302   -1.943851    0.076562
      9          6           0        0.984606   -0.585251    0.022672
     10          6           0        2.097702    0.482369    0.136776
     11          6           0       -0.020236   -0.423242   -1.184354
     12          6           0        1.480831   -2.883618    1.254957
     13          6           0        0.824940   -4.211181    1.014714
     14          6           0       -0.166954   -4.334407   -0.179367
     15          8           0        0.117113   -4.837272   -1.242722
     16          8           0       -1.400286   -3.732690    0.092824
     17          7           0        4.171766    2.888274    0.230960
     18          6           0        2.740376    2.975811    0.320880
     19          6           0        2.401405    4.395962    0.493861
     20          6           0        3.611124    5.108448    0.153442
     21          6           0        4.672235    4.128207    0.020680
     22          6           0        1.023847    4.794718    0.696033
     23          6           0        3.773719    6.586756   -0.129032
     24          8           0        4.890142    7.063577   -0.314083
     25          6           0        2.598659    7.458979   -0.092461
     26          7           0        7.035484    2.158477   -0.339849
     27          6           0        7.121296    3.523440   -0.334932
     28          6           0        8.563032    3.970572   -0.480988
     29          6           0        9.343819    2.666644   -0.334507
     30          6           0        8.272552    1.558522   -0.303385
     31          6           0        8.850267    4.911672   -1.573259
     32          6           0       10.364627    2.628371    0.821142
     33          6           0        9.891226    1.906297    2.089192
     34          7           0        6.382687   -0.618653    0.152054
     35          6           0        7.740564   -0.842118    0.017237
     36          6           0        8.027150   -2.266769    0.159568
     37          6           0        6.753744   -2.839881    0.158659
     38          6           0        5.818577   -1.786634    0.115997
     39          6           0        9.283795   -2.991578    0.121324
     40          6           0        6.050985   -4.120622    0.080052
     41          8           0        6.546575   -5.234373    0.063974
     42          6           0        4.485077   -3.821107    0.026433
     43          6           0        3.885732   -4.507576   -1.087996
     44          8           0        3.603673   -4.064260   -2.184841
     45          8           0        3.531356   -5.779254   -0.661108
     46          6           0        3.161767   -6.651433   -1.817788
     47          6           0       -2.445293   -3.768139   -0.959440
     48          6           0       -3.818101   -3.785527   -0.442377
     49          6           0       -4.779198   -2.901118   -0.505713
     50          6           0       -4.728085   -1.504700   -1.115099
     51          6           0       -6.208125   -3.202765    0.096564
     52          6           0       -6.423796   -2.891589    1.577798
     53          6           0       -7.920397   -2.517136    1.911572
     54          6           0       -8.070765   -1.079124    2.482518
     55          6           0       -8.018284   -1.019488    4.035299
     56          6           0       -9.419312   -0.524164    1.973619
     57          6           0       -9.335057    0.162286    0.653441
     58          6           0      -10.230655    1.437729    0.564247
     59          6           0      -10.960955    1.551374   -0.785428
     60          6           0      -11.061483    2.968934   -1.308843
     61          6           0      -12.343169    0.788698   -0.790932
     62          6           0      -13.331892    1.429690    0.156566
     63          6           0      -14.794180    1.306681   -0.244229
     64          6           0      -15.214774    2.550257   -1.137153
     65          6           0      -15.758538    2.149388   -2.504259
     66          6           0      -16.224287    3.428091   -0.415032
     67          1           0        0.768664    2.112908    0.228495
     68          1           0        6.405030    5.411062    0.105735
     69          1           0        9.667005   -0.118035   -0.108801
     70          1           0        1.592092   -2.436933   -0.869654
     71          1           0        0.366125   -0.541569    0.919539
     72          1           0       -0.975657   -0.281764   -0.679350
     73          1           0       -0.010211   -1.366345   -1.731027
     74          1           0        0.173176    0.451623   -1.804964
     75          1           0        0.969359   -2.330441    2.042674
     76          1           0        2.481307   -3.047241    1.654684
     77          1           0        0.172265   -4.247701    1.886752
     78          1           0        1.579623   -4.977702    1.184469
     79          1           0        1.054689    5.547906    1.484105
     80          1           0        0.400120    4.015100    1.132204
     81          1           0        0.591863    5.123354   -0.249101
     82          1           0        2.263287    7.447872    0.945459
     83          1           0        1.827090    6.946037   -0.667218
     84          1           0        2.897993    8.479790   -0.329945
     85          1           0        8.755184    4.649495    0.349986
     86          1           0        9.793108    2.593754   -1.324207
     87          1           0        9.609792    4.579873   -2.281022
     88          1           0        9.152844    5.872473   -1.155769
     89          1           0        7.909415    4.959262   -2.120902
     90          1           0       10.477984    3.665680    1.132759
     91          1           0       11.296766    2.161751    0.503162
     92          1           0        8.841523    2.080934    2.327804
     93          1           0       10.311983    2.350821    2.991256
     94          1           0       10.320308    0.905434    2.055935
     95          1           0       10.049434   -2.255951    0.367535
     96          1           0        9.424905   -3.207432   -0.937692
     97          1           0        9.290340   -3.820869    0.827861
     98          1           0        4.122010   -4.277722    0.946803
     99          1           0        3.881511   -6.778974   -2.625327
    100          1           0        2.208272   -6.401753   -2.285028
    101          1           0        2.927741   -7.591033   -1.318058
    102          1           0       -2.377286   -4.558497   -1.706715
    103          1           0       -2.351058   -2.827967   -1.502500
    104          1           0       -4.254194   -4.741536   -0.152169
    105          1           0       -3.775881   -1.262548   -1.587786
    106          1           0       -4.939494   -0.810332   -0.302619
    107          1           0       -5.412854   -1.563054   -1.960198
    108          1           0       -6.422540   -4.236617   -0.174000
    109          1           0       -6.968847   -2.702276   -0.503132
    110          1           0       -5.745212   -2.087804    1.863415
    111          1           0       -6.176059   -3.762871    2.185596
    112          1           0       -8.160437   -3.274285    2.658137
    113          1           0       -8.539517   -2.668761    1.027275
    114          1           0       -7.221520   -0.470349    2.170886
    115          1           0       -7.334024   -1.751222    4.465347
    116          1           0       -8.969242   -0.944337    4.563453
    117          1           0       -7.565478   -0.057186    4.272870
    118          1           0       -9.800429    0.144058    2.745423
    119          1           0      -10.119697   -1.359982    1.984967
    120          1           0       -9.617019   -0.537434   -0.133277
    121          1           0       -8.312881    0.403940    0.360225
    122          1           0       -9.708483    2.363944    0.804489
    123          1           0      -11.000374    1.394770    1.334616
    124          1           0      -10.388835    0.975514   -1.512678
    125          1           0      -10.136706    3.182783   -1.843640
    126          1           0      -11.113246    3.675959   -0.480341
    127          1           0      -11.893257    3.005847   -2.010962
    128          1           0      -12.189907   -0.257106   -0.525932
    129          1           0      -12.712767    0.888976   -1.811042
    130          1           0      -13.054170    2.472638    0.309922
    131          1           0      -13.296361    1.094585    1.192965
    132          1           0      -15.367629    1.242923    0.680022
    133          1           0      -15.014424    0.387932   -0.788821
    134          1           0      -14.415293    3.284027   -1.242666
    135          1           0      -14.947332    2.322469   -3.212106
    136          1           0      -16.596740    2.754493   -2.850228
    137          1           0      -15.931755    1.080314   -2.624236
    138          1           0      -15.711773    3.981468    0.371535
    139          1           0      -16.879855    2.725451    0.101086
    140          1           0      -16.803877    4.011232   -1.129527
 ---------------------------------------------------------------------

 SCF Done:  E(RZINDO/S) =  -474.490897643     A.U. after   21 cycles

 Excitation energies and oscillator strengths:

 Excited State   1:      Singlet-A      1.2024 eV 1031.13 nm  f=0.6225  <S**2>=0.000
     175 ->178         0.18744
     176 ->177         0.66237
 This state for optimization and/or second-order correction.
 Total Energy, E(CIS/TDA) =  -474.446709894
 Copying the excited state density for this state as the 1-particle RhoCI density.

 Excited State   2:      Singlet-A      1.9055 eV  650.65 nm  f=0.0507  <S**2>=0.000
     175 ->177         0.55222
     176 ->178        -0.41190

 Excited State   3:      Singlet-A      2.9191 eV  424.73 nm  f=0.6883  <S**2>=0.000
     175 ->177         0.30810
     176 ->178         0.47858
     176 ->179         0.27352

 Excited State   4:      Singlet-A      2.9828 eV  415.67 nm  f=0.0340  <S**2>=0.000
     168 ->177         0.16455
     168 ->179        -0.27801
     168 ->180         0.20227
     168 ->186        -0.12582
     168 ->187        -0.11654
     169 ->177         0.19281
     169 ->179        -0.21132
     169 ->180         0.22217
     169 ->187        -0.12368
     176 ->178         0.12342
     176 ->179         0.23256

 Excited State   5:      Singlet-A      3.0198 eV  410.57 nm  f=0.0297  <S**2>=0.000
     168 ->177         0.24836
     168 ->178         0.13005
     168 ->179         0.19762
     168 ->180         0.25463
     168 ->186         0.10682
     169 ->177        -0.19404
     169 ->178        -0.12113
     169 ->179        -0.25378
     169 ->180        -0.17970
     169 ->186        -0.13117

 The electronic state is 1-A.
 Alpha  occ. eigenvalues --   -1.85191  -1.81208  -1.77350  -1.72253  -1.71094
 Alpha  occ. eigenvalues --   -1.68681  -1.67110  -1.62022  -1.59271  -1.57678
 Alpha  occ. eigenvalues --   -1.55685  -1.52587  -1.48616  -1.47635  -1.46859
 Alpha  occ. eigenvalues --   -1.45187  -1.43821  -1.42059  -1.41130  -1.38767
 Alpha  occ. eigenvalues --   -1.36326  -1.35250  -1.33462  -1.31219  -1.29269
 Alpha  occ. eigenvalues --   -1.28893  -1.26029  -1.23261  -1.21438  -1.17935
 Alpha  occ. eigenvalues --   -1.16968  -1.16242  -1.15362  -1.14730  -1.13316
 Alpha  occ. eigenvalues --   -1.12156  -1.11419  -1.10475  -1.04283  -1.03644
 Alpha  occ. eigenvalues --   -1.01854  -1.00950  -0.99816  -0.97444  -0.97137
 Alpha  occ. eigenvalues --   -0.96665  -0.94995  -0.93652  -0.92905  -0.92192
 Alpha  occ. eigenvalues --   -0.90964  -0.90306  -0.89601  -0.87338  -0.85192
 Alpha  occ. eigenvalues --   -0.84801  -0.84289  -0.83386  -0.81067  -0.80478
 Alpha  occ. eigenvalues --   -0.78290  -0.77933  -0.76831  -0.76608  -0.76203
 Alpha  occ. eigenvalues --   -0.75632  -0.75181  -0.74955  -0.74691  -0.74156
 Alpha  occ. eigenvalues --   -0.73654  -0.72871  -0.71962  -0.71426  -0.70852
 Alpha  occ. eigenvalues --   -0.70365  -0.69490  -0.69049  -0.68691  -0.68208
 Alpha  occ. eigenvalues --   -0.67900  -0.67388  -0.66965  -0.66576  -0.65495
 Alpha  occ. eigenvalues --   -0.65349  -0.64971  -0.64632  -0.64131  -0.63621
 Alpha  occ. eigenvalues --   -0.63292  -0.62998  -0.62732  -0.62431  -0.61787
 Alpha  occ. eigenvalues --   -0.61493  -0.61039  -0.60810  -0.60317  -0.59765
 Alpha  occ. eigenvalues --   -0.59464  -0.59186  -0.59061  -0.58660  -0.58583
 Alpha  occ. eigenvalues --   -0.57695  -0.57620  -0.56992  -0.56969  -0.56354
 Alpha  occ. eigenvalues --   -0.55792  -0.55346  -0.54997  -0.54898  -0.54196
 Alpha  occ. eigenvalues --   -0.53872  -0.53487  -0.53301  -0.52838  -0.52815
 Alpha  occ. eigenvalues --   -0.52228  -0.52090  -0.51589  -0.51237  -0.50911
 Alpha  occ. eigenvalues --   -0.50625  -0.50510  -0.50209  -0.50004  -0.49925
 Alpha  occ. eigenvalues --   -0.49467  -0.49301  -0.49265  -0.49068  -0.48816
 Alpha  occ. eigenvalues --   -0.48512  -0.48116  -0.47996  -0.47574  -0.47498
 Alpha  occ. eigenvalues --   -0.47084  -0.46989  -0.46910  -0.46841  -0.46155
 Alpha  occ. eigenvalues --   -0.45912  -0.45836  -0.45350  -0.45086  -0.44778
 Alpha  occ. eigenvalues --   -0.44580  -0.44525  -0.44441  -0.44099  -0.43914
 Alpha  occ. eigenvalues --   -0.43124  -0.42786  -0.42554  -0.42037  -0.41990
 Alpha  occ. eigenvalues --   -0.41770  -0.41654  -0.41239  -0.38960  -0.38308
 Alpha  occ. eigenvalues --   -0.37852  -0.36822  -0.34907  -0.34825  -0.34147
 Alpha  occ. eigenvalues --   -0.33743  -0.32679  -0.32289  -0.31858  -0.26363
 Alpha  occ. eigenvalues --   -0.21273
 Alpha virt. eigenvalues --   -0.08440  -0.01638   0.00063   0.01480   0.02043
 Alpha virt. eigenvalues --    0.02576   0.02978   0.03037   0.05151   0.05180
 Alpha virt. eigenvalues --    0.06469   0.07159   0.07619   0.08127   0.08268

 Mulliken charges:
               1
     1  Mg   0.421023
     2  C   -0.044556
     3  C   -0.068386
     4  C   -0.076527
     5  C   -0.072286
     6  N   -0.276515
     7  C    0.101476
     8  C   -0.000277
     9  C   -0.005722
    10  C    0.131953
    11  C   -0.053002
    12  C   -0.016949
    13  C    0.008211
    14  C    0.470832
    15  O   -0.495989
    16  O   -0.277992
    17  N   -0.331826
    18  C    0.082350
    19  C    0.017179
    20  C   -0.059102
    21  C    0.156291
    22  C   -0.033875
    23  C    0.328788
    24  O   -0.537363
    25  C   -0.029758
    26  N   -0.287696
    27  C    0.149572
    28  C    0.004421
    29  C   -0.000173
    30  C    0.133983
    31  C   -0.044781
    32  C   -0.025304
    33  C   -0.060000
    34  N   -0.301439
    35  C    0.087030
    36  C    0.032795
    37  C   -0.066906
    38  C    0.122397
    39  C   -0.033299
    40  C    0.329059
    41  O   -0.518766
    42  C    0.062525
    43  C    0.497043
    44  O   -0.513851
    45  O   -0.271774
    46  C    0.071946
    47  C    0.113223
    48  C   -0.081434
    49  C   -0.004545
    50  C   -0.048496
    51  C   -0.028129
    52  C   -0.031428
    53  C   -0.039494
    54  C   -0.011220
    55  C   -0.062681
    56  C   -0.026230
    57  C   -0.028854
    58  C   -0.035518
    59  C   -0.016550
    60  C   -0.053571
    61  C   -0.028224
    62  C   -0.032485
    63  C   -0.033088
    64  C   -0.015329
    65  C   -0.057683
    66  C   -0.060573
    67  H    0.025292
    68  H    0.043966
    69  H    0.031490
    70  H    0.042505
    71  H    0.025326
    72  H    0.015639
    73  H    0.035523
    74  H    0.030747
    75  H    0.023293
    76  H    0.017753
    77  H    0.022676
    78  H    0.053110
    79  H    0.026253
    80  H    0.022842
    81  H    0.040151
    82  H    0.036948
    83  H    0.040493
    84  H    0.046521
    85  H    0.022237
    86  H    0.025512
    87  H    0.016701
    88  H    0.024513
    89  H    0.025667
    90  H    0.020500
    91  H    0.023990
    92  H    0.033580
    93  H    0.001928
    94  H    0.028291
    95  H    0.013959
    96  H    0.045607
    97  H    0.046943
    98  H    0.060483
    99  H    0.054269
   100  H    0.047584
   101  H    0.020217
   102  H    0.058338
   103  H    0.033136
   104  H    0.020564
   105  H    0.016441
   106  H    0.035001
   107  H    0.033117
   108  H    0.017416
   109  H    0.014755
   110  H    0.022126
   111  H    0.019181
   112  H    0.019399
   113  H    0.024982
   114  H    0.024568
   115  H    0.019692
   116  H    0.026665
   117  H    0.004573
   118  H    0.011641
   119  H    0.019311
   120  H    0.015746
   121  H    0.017587
   122  H    0.018818
   123  H    0.016513
   124  H    0.006575
   125  H    0.012181
   126  H    0.023852
   127  H    0.022790
   128  H    0.020529
   129  H    0.019038
   130  H    0.016383
   131  H    0.010271
   132  H    0.016332
   133  H    0.021009
   134  H    0.022164
   135  H    0.005907
   136  H    0.023682
   137  H    0.022106
   138  H    0.016957
   139  H    0.011245
   140  H    0.024445
 Sum of Mulliken charges =  -0.00000

 Dipole moment (field-independent basis, Debye):
    X=             -6.1590    Y=              3.6415    Z=              4.6530  Tot=              8.5349
 N-N= 4.316215911258D+03 E-N= 0.000000000000D+00  KE=-9.307365555353D+03
 Leave Link  601 at Wed May  4 04:19:15 2022, MaxMem=  6710886400 cpu:               0.8 elap:               0.0
 (Enter /sw/apps/gaussian-16.0/g16/l9999.exe)
 1\1\GINC-BP1-COMPUTE123\SP\RZINDO CIS\STO-3G\C55H74Mg1N4O6\OF15641\04-
 May-2022\0\\#p ZINDO=(nstates=5)\\step_1301_chromophore_6 ZINDO\\0,1\M
 g,0,17.514,-2.574,27.44\C,0,16.676,-0.413,30.15\C,0,19.297,-4.588,29.7
 51\C,0,18.736,-4.274,24.842\C,0,16.061,-0.247,25.305\N,0,17.924,-2.538
 ,29.748\C,0,17.528,-1.482,30.568\C,0,17.924,-1.837,32.037\C,0,18.86,-3
 .117,31.876\C,0,18.716,-3.438,30.37\C,0,20.334,-2.984,32.426\C,0,16.73
 6,-1.999,33.01\C,0,16.685,-1.225,34.294\C,0,18.03,-0.895,35.006\O,0,18

 Normal termination of Gaussian 16 at Wed May  4 04:19:15 2022.
