 Gaussian 16, Revision A.03,
 Gaussian 16:  ES64L-G16RevA.03 25-Dec-2016

 ------------------------------
 #p blyp/Def2SVP td=(nstates=5)
 ------------------------------

 ---------------------------------------------------
 step_1201_chromophore_17 TDDFT with blyp functional
 ---------------------------------------------------
 Symbolic Z-matrix:
 Charge =  0 Multiplicity = 1

                         Standard orientation:
 ---------------------------------------------------------------------
 Center     Atomic      Atomic             Coordinates (Angstroms)
 Number     Number       Type             X           Y           Z
 ---------------------------------------------------------------------
      1         12           0        4.940468    1.325010   -0.650689
      2          6           0        4.972489   -2.051117   -0.558957
      3          6           0        1.986202    1.079001   -2.624274
      4          6           0        3.979828    4.646757    0.071207
      5          6           0        7.116909    1.342545    2.042156
      6          7           0        3.664788   -0.267028   -1.424803
      7          6           0        3.881199   -1.568275   -1.223073
      8          6           0        2.689328   -2.446927   -1.690470
      9          6           0        2.019859   -1.481128   -2.762868
     10          6           0        2.571584   -0.147972   -2.253199
     11          6           0        2.376319   -1.740561   -4.188007
     12          6           0        1.745507   -2.771062   -0.437914
     13          6           0        0.946048   -4.098336   -0.636209
     14          6           0        0.113672   -4.516361    0.578164
     15          8           0        0.380319   -5.488116    1.278829
     16          8           0       -1.164256   -3.874644    0.680455
     17          7           0        3.301927    2.721463   -1.321085
     18          6           0        2.305370    2.393910   -2.209014
     19          6           0        1.603355    3.625018   -2.537643
     20          6           0        2.221872    4.700378   -1.823143
     21          6           0        3.273811    4.053087   -0.964651
     22          6           0        0.507085    3.610430   -3.553004
     23          6           0        1.917455    6.158392   -1.903606
     24          8           0        0.930270    6.487091   -2.531335
     25          6           0        2.790957    7.275341   -1.273360
     26          7           0        5.575275    2.886308    0.807781
     27          6           0        5.053078    4.105203    0.892412
     28          6           0        5.607601    4.834349    2.094236
     29          6           0        6.581773    3.773168    2.772108
     30          6           0        6.467740    2.590112    1.802310
     31          6           0        6.268054    6.205547    1.734281
     32          6           0        6.226691    3.260365    4.252917
     33          6           0        7.336882    3.572912    5.326106
     34          7           0        6.153502   -0.016336    0.277540
     35          6           0        6.992583    0.095324    1.366851
     36          6           0        7.571249   -1.215891    1.675284
     37          6           0        6.797424   -2.116300    0.952076
     38          6           0        5.915947   -1.355117    0.140927
     39          6           0        8.666719   -1.561049    2.586519
     40          6           0        6.498289   -3.516680    0.675346
     41          8           0        7.034243   -4.538134    1.035094
     42          6           0        5.323982   -3.521596   -0.313717
     43          6           0        5.784037   -4.118428   -1.600612
     44          8           0        6.627730   -3.669910   -2.364933
     45          8           0        5.222509   -5.340472   -1.787042
     46          6           0        5.514023   -6.068859   -2.977095
     47          6           0       -2.156207   -4.528335    1.539904
     48          6           0       -3.521119   -4.322275    0.914875
     49          6           0       -4.708554   -4.692185    1.427496
     50          6           0       -5.025238   -5.617010    2.543872
     51          6           0       -5.922476   -4.049602    0.700793
     52          6           0       -6.277908   -2.694236    1.363923
     53          6           0       -5.862419   -1.417892    0.518746
     54          6           0       -6.667291   -0.160263    0.960106
     55          6           0       -5.760496    0.769192    1.822633
     56          6           0       -7.194631    0.504556   -0.321960
     57          6           0       -8.686627    0.259823   -0.515639
     58          6           0       -9.347403    1.586516   -1.081831
     59          6           0      -10.763901    1.333445   -1.490535
     60          6           0      -11.198992    1.401830   -2.994514
     61          6           0      -11.643887    2.315716   -0.601480
     62          6           0      -13.099818    1.906513   -0.652518
     63          6           0      -13.777440    2.153210    0.704451
     64          6           0      -13.841047    0.917462    1.607942
     65          6           0      -15.180081    0.115093    1.368093
     66          6           0      -13.808440    1.169466    3.141445
     67          1           0        1.159739    0.953090   -3.326915
     68          1           0        3.793852    5.679002    0.371412
     69          1           0        7.746627    1.181545    2.919194
     70          1           0        3.067778   -3.439830   -1.934176
     71          1           0        0.939991   -1.415568   -2.628471
     72          1           0        3.150090   -2.506400   -4.247020
     73          1           0        2.725058   -0.877280   -4.753276
     74          1           0        1.463079   -2.121474   -4.644793
     75          1           0        1.053364   -1.955562   -0.225056
     76          1           0        2.342847   -2.770237    0.473506
     77          1           0        1.644882   -4.909849   -0.836725
     78          1           0        0.300177   -3.978362   -1.506467
     79          1           0       -0.519337    3.553248   -3.192811
     80          1           0        0.574401    2.817892   -4.297445
     81          1           0        0.629424    4.547610   -4.096467
     82          1           0        2.529507    7.311168   -0.215256
     83          1           0        2.331133    8.174298   -1.684874
     84          1           0        3.857469    7.103694   -1.416476
     85          1           0        4.727630    4.946814    2.727121
     86          1           0        7.612684    4.126543    2.805511
     87          1           0        7.319256    6.210575    1.446455
     88          1           0        5.971495    6.941482    2.482250
     89          1           0        5.825529    6.557108    0.802607
     90          1           0        6.270131    2.172298    4.210062
     91          1           0        5.198395    3.483000    4.536930
     92          1           0        7.850904    2.663389    5.635087
     93          1           0        6.717451    3.978882    6.126092
     94          1           0        7.989486    4.363718    4.958037
     95          1           0        8.715758   -2.640370    2.727800
     96          1           0        8.469233   -1.035099    3.520713
     97          1           0        9.599797   -1.102545    2.259648
     98          1           0        4.495444   -4.058577    0.148419
     99          1           0        6.527181   -6.470522   -2.947538
    100          1           0        5.241912   -5.483180   -3.855437
    101          1           0        4.842720   -6.926346   -3.031474
    102          1           0       -2.245666   -4.011976    2.495847
    103          1           0       -2.001332   -5.604313    1.620947
    104          1           0       -3.553855   -3.720997    0.006812
    105          1           0       -4.187629   -6.257519    2.818680
    106          1           0       -5.822455   -6.347935    2.404159
    107          1           0       -5.433570   -5.065762    3.390468
    108          1           0       -6.777527   -4.708248    0.852010
    109          1           0       -5.769753   -3.992128   -0.376560
    110          1           0       -5.779084   -2.623691    2.329639
    111          1           0       -7.346807   -2.645761    1.571381
    112          1           0       -5.896121   -1.660079   -0.543436
    113          1           0       -4.837101   -1.061682    0.610414
    114          1           0       -7.560543   -0.397659    1.537973
    115          1           0       -4.676499    0.655056    1.854904
    116          1           0       -6.197027    0.650966    2.814034
    117          1           0       -6.064843    1.788828    1.584062
    118          1           0       -6.818849    0.231869   -1.307589
    119          1           0       -6.974201    1.569328   -0.397932
    120          1           0       -9.266488   -0.003147    0.368745
    121          1           0       -8.901679   -0.560674   -1.199009
    122          1           0       -8.752699    1.857286   -1.954014
    123          1           0       -9.225004    2.392077   -0.357506
    124          1           0      -10.972509    0.328661   -1.123798
    125          1           0      -11.972393    2.105361   -3.300346
    126          1           0      -11.564115    0.415597   -3.281282
    127          1           0      -10.278214    1.591051   -3.545649
    128          1           0      -11.488218    3.320730   -0.994282
    129          1           0      -11.310068    2.453395    0.426486
    130          1           0      -13.131231    0.851415   -0.926015
    131          1           0      -13.647202    2.493198   -1.390142
    132          1           0      -14.757104    2.575361    0.477297
    133          1           0      -13.346472    2.974292    1.276822
    134          1           0      -12.976499    0.302958    1.356112
    135          1           0      -15.114443   -0.409284    0.413961
    136          1           0      -16.068631    0.698722    1.128339
    137          1           0      -15.503294   -0.489027    2.216112
    138          1           0      -14.519613    1.956317    3.394617
    139          1           0      -12.759277    1.348927    3.379864
    140          1           0      -14.153318    0.283599    3.674080
 ---------------------------------------------------------------------

 SCF Done:  E(RB-LYP) =  -3007.38419293     A.U. after   21 cycles

 Excitation energies and oscillator strengths:

 Excited State   1:      Singlet-A      1.8197 eV  681.36 nm  f=0.3025  <S**2>=0.000
     245 -> 248       -0.20611
     246 -> 247        0.68410
     246 <- 247       -0.14187
 This state for optimization and/or second-order correction.
 Total Energy, E(TD-HF/TD-DFT) =  -3007.31732138
 Copying the excited state density for this state as the 1-particle RhoCI density.

 Excited State   2:      Singlet-A      1.8561 eV  667.99 nm  f=0.0010  <S**2>=0.000
     244 -> 247        0.70329

 Excited State   3:      Singlet-A      2.0356 eV  609.09 nm  f=0.0380  <S**2>=0.000
     243 -> 247       -0.13771
     245 -> 247        0.62201
     246 -> 248        0.27794

 Excited State   4:      Singlet-A      2.1844 eV  567.58 nm  f=0.0024  <S**2>=0.000
     243 -> 247        0.69051
     245 -> 247        0.10317

 Excited State   5:      Singlet-A      2.2258 eV  557.04 nm  f=0.0000  <S**2>=0.000
     242 -> 247        0.70710

 The electronic state is 1-A.
 Alpha  occ. eigenvalues --  -46.28484 -18.82110 -18.81587 -18.77388 -18.76442
 Alpha  occ. eigenvalues --  -18.75981 -18.75001 -14.03682 -14.03634 -14.01177
 Alpha  occ. eigenvalues --  -14.00910 -10.04685 -10.03972  -9.99800  -9.99364
 Alpha  occ. eigenvalues --   -9.97769  -9.97593  -9.97073  -9.96843  -9.96729
 Alpha  occ. eigenvalues --   -9.96346  -9.96059  -9.96052  -9.95510  -9.95213
 Alpha  occ. eigenvalues --   -9.94815  -9.94810  -9.94542  -9.94506  -9.94326
 Alpha  occ. eigenvalues --   -9.94324  -9.93941  -9.93837  -9.93649  -9.93535
 Alpha  occ. eigenvalues --   -9.93332  -9.93084  -9.93018  -9.93016  -9.92820
 Alpha  occ. eigenvalues --   -9.92707  -9.92579  -9.92488  -9.92404  -9.92392
 Alpha  occ. eigenvalues --   -9.92348  -9.92184  -9.92061  -9.91906  -9.91682
 Alpha  occ. eigenvalues --   -9.91582  -9.91457  -9.91371  -9.91255  -9.91185
 Alpha  occ. eigenvalues --   -9.91073  -9.91035  -9.90947  -9.90736  -9.90725
 Alpha  occ. eigenvalues --   -9.90578  -9.90571  -9.90534  -9.90456  -9.90452
 Alpha  occ. eigenvalues --   -9.90412  -2.92918  -1.73337  -1.72798  -1.72638
 Alpha  occ. eigenvalues --   -0.98600  -0.96312  -0.92411  -0.91645  -0.89810
 Alpha  occ. eigenvalues --   -0.89271  -0.87238  -0.86645  -0.85849  -0.84215
 Alpha  occ. eigenvalues --   -0.76365  -0.73349  -0.73145  -0.72839  -0.72065
 Alpha  occ. eigenvalues --   -0.71885  -0.71540  -0.71381  -0.70770  -0.70522
 Alpha  occ. eigenvalues --   -0.69688  -0.68823  -0.67976  -0.67687  -0.67346
 Alpha  occ. eigenvalues --   -0.66400  -0.66105  -0.65257  -0.64935  -0.64689
 Alpha  occ. eigenvalues --   -0.64008  -0.63159  -0.62470  -0.61768  -0.61022
 Alpha  occ. eigenvalues --   -0.60217  -0.60100  -0.59818  -0.59367  -0.58623
 Alpha  occ. eigenvalues --   -0.58129  -0.57832  -0.57269  -0.56020  -0.54664
 Alpha  occ. eigenvalues --   -0.54092  -0.53549  -0.52885  -0.52039  -0.51871
 Alpha  occ. eigenvalues --   -0.51637  -0.51160  -0.51043  -0.50804  -0.50303
 Alpha  occ. eigenvalues --   -0.49441  -0.49320  -0.48954  -0.48626  -0.46834
 Alpha  occ. eigenvalues --   -0.46509  -0.45929  -0.45731  -0.45338  -0.45295
 Alpha  occ. eigenvalues --   -0.44124  -0.43530  -0.43393  -0.43146  -0.42430
 Alpha  occ. eigenvalues --   -0.42134  -0.41849  -0.41550  -0.41028  -0.40945
 Alpha  occ. eigenvalues --   -0.40893  -0.40737  -0.40615  -0.40526  -0.40284
 Alpha  occ. eigenvalues --   -0.40035  -0.39738  -0.39283  -0.39193  -0.39003
 Alpha  occ. eigenvalues --   -0.38677  -0.38605  -0.38557  -0.38311  -0.38132
 Alpha  occ. eigenvalues --   -0.37901  -0.37819  -0.37524  -0.37437  -0.37370
 Alpha  occ. eigenvalues --   -0.37169  -0.36985  -0.36758  -0.36670  -0.36592
 Alpha  occ. eigenvalues --   -0.36275  -0.36181  -0.35963  -0.35946  -0.35790
 Alpha  occ. eigenvalues --   -0.35527  -0.35152  -0.34831  -0.34783  -0.34667
 Alpha  occ. eigenvalues --   -0.34620  -0.34474  -0.34256  -0.34221  -0.33943
 Alpha  occ. eigenvalues --   -0.33824  -0.33665  -0.33614  -0.33301  -0.33274
 Alpha  occ. eigenvalues --   -0.33032  -0.32946  -0.32777  -0.32547  -0.32319
 Alpha  occ. eigenvalues --   -0.32227  -0.32122  -0.31952  -0.31866  -0.31772
 Alpha  occ. eigenvalues --   -0.31557  -0.31481  -0.31241  -0.31108  -0.30838
 Alpha  occ. eigenvalues --   -0.30676  -0.30481  -0.30174  -0.30093  -0.30003
 Alpha  occ. eigenvalues --   -0.29683  -0.29576  -0.29486  -0.29286  -0.29097
 Alpha  occ. eigenvalues --   -0.28777  -0.28601  -0.28572  -0.28276  -0.28161
 Alpha  occ. eigenvalues --   -0.27715  -0.27227  -0.27029  -0.26715  -0.26671
 Alpha  occ. eigenvalues --   -0.26362  -0.25971  -0.25686  -0.25342  -0.25267
 Alpha  occ. eigenvalues --   -0.25194  -0.24563  -0.24153  -0.24030  -0.23112
 Alpha  occ. eigenvalues --   -0.22282  -0.22265  -0.22021  -0.21787  -0.20938
 Alpha  occ. eigenvalues --   -0.20028  -0.19565  -0.19257  -0.18099  -0.17526
 Alpha  occ. eigenvalues --   -0.15776
 Alpha virt. eigenvalues --   -0.11386  -0.07458  -0.06136  -0.04606  -0.04320
 Alpha virt. eigenvalues --   -0.03335  -0.02450  -0.02000  -0.01342   0.00294
 Alpha virt. eigenvalues --    0.01038   0.01418   0.02243   0.02627   0.02743

 Mulliken charges:
               1
     1  Mg   0.700818
     2  C    0.004784
     3  C   -0.052355
     4  C   -0.040401
     5  C   -0.037765
     6  N   -0.202181
     7  C   -0.098060
     8  C    0.016492
     9  C    0.033994
    10  C   -0.009277
    11  C    0.165061
    12  C    0.057966
    13  C    0.156910
    14  C    0.109011
    15  O   -0.183146
    16  O   -0.318498
    17  N   -0.253758
    18  C    0.127672
    19  C   -0.114581
    20  C    0.050405
    21  C    0.147473
    22  C    0.163154
    23  C   -0.127334
    24  O   -0.165282
    25  C    0.139351
    26  N   -0.182429
    27  C   -0.066048
    28  C    0.041341
    29  C    0.038817
    30  C    0.021399
    31  C    0.139364
    32  C    0.054892
    33  C    0.058005
    34  N   -0.299040
    35  C    0.066343
    36  C   -0.190474
    37  C    0.108261
    38  C    0.085411
    39  C    0.191647
    40  C   -0.063531
    41  O   -0.111433
    42  C    0.104251
    43  C    0.098439
    44  O   -0.183129
    45  O   -0.249866
    46  C    0.227297
    47  C    0.335438
    48  C   -0.139219
    49  C   -0.145562
    50  C    0.153632
    51  C    0.143457
    52  C    0.081028
    53  C    0.100452
    54  C   -0.059011
    55  C    0.124676
    56  C    0.131097
    57  C   -0.006298
    58  C    0.099522
    59  C   -0.065138
    60  C    0.127126
    61  C    0.040631
    62  C    0.106121
    63  C    0.114795
    64  C   -0.073514
    65  C    0.085019
    66  C    0.100347
    67  H   -0.069627
    68  H   -0.080718
    69  H   -0.068204
    70  H   -0.041631
    71  H   -0.024733
    72  H   -0.003450
    73  H   -0.001691
    74  H   -0.008398
    75  H   -0.012604
    76  H   -0.012708
    77  H    0.005738
    78  H   -0.004393
    79  H    0.002657
    80  H   -0.021592
    81  H    0.004115
    82  H    0.014454
    83  H   -0.010705
    84  H    0.018770
    85  H   -0.020052
    86  H   -0.024403
    87  H   -0.005564
    88  H   -0.002589
    89  H   -0.025603
    90  H   -0.023221
    91  H   -0.019137
    92  H    0.009190
    93  H   -0.005527
    94  H   -0.000195
    95  H    0.017657
    96  H   -0.012944
    97  H   -0.000551
    98  H   -0.009842
    99  H    0.023243
   100  H    0.005754
   101  H    0.000578
   102  H    0.006867
   103  H    0.017987
   104  H   -0.031794
   105  H   -0.011839
   106  H   -0.013425
   107  H   -0.009186
   108  H   -0.053150
   109  H   -0.022540
   110  H   -0.026346
   111  H   -0.029467
   112  H   -0.037940
   113  H   -0.036700
   114  H   -0.028903
   115  H    0.005959
   116  H   -0.029484
   117  H   -0.030831
   118  H   -0.040803
   119  H   -0.043042
   120  H   -0.027619
   121  H   -0.028721
   122  H   -0.049111
   123  H   -0.026076
   124  H   -0.036206
   125  H   -0.004558
   126  H   -0.019144
   127  H   -0.022083
   128  H   -0.036671
   129  H   -0.033140
   130  H   -0.026390
   131  H   -0.036032
   132  H   -0.051157
   133  H   -0.046000
   134  H   -0.030788
   135  H   -0.027689
   136  H   -0.030074
   137  H   -0.014789
   138  H   -0.011496
   139  H   -0.014293
   140  H   -0.019968
 Sum of Mulliken charges =  -0.00000

 Dipole moment (field-independent basis, Debye):
    X=             -1.1021    Y=              1.7319    Z=              0.7015  Tot=              2.1694
 Quadrupole moment (field-independent basis, Debye-Ang):
   XX=           -405.7808   YY=           -425.3035   ZZ=           -393.5619
   XY=             46.3356   XZ=              6.6900   YZ=             31.7491

 Normal termination of Gaussian 16 at Wed Apr 27 14:35:03 2022.
