 Gaussian 16, Revision A.03,
 Gaussian 16:  ES64L-G16RevA.03 25-Dec-2016

 -----------------------------------
 #p cam-b3lyp/Def2SVP td=(nstates=5)
 -----------------------------------

 --------------------------------------------------------
 step_1201_chromophore_17 TDDFT with cam-b3lyp functional
 --------------------------------------------------------
 Symbolic Z-matrix:
 Charge =  0 Multiplicity = 1

                         Standard orientation:
 ---------------------------------------------------------------------
 Center     Atomic      Atomic             Coordinates (Angstroms)
 Number     Number       Type             X           Y           Z
 ---------------------------------------------------------------------
      1         12           0        4.940468    1.325010   -0.650689
      2          6           0        4.972489   -2.051117   -0.558957
      3          6           0        1.986202    1.079001   -2.624274
      4          6           0        3.979828    4.646757    0.071207
      5          6           0        7.116909    1.342545    2.042156
      6          7           0        3.664788   -0.267028   -1.424803
      7          6           0        3.881199   -1.568275   -1.223073
      8          6           0        2.689328   -2.446927   -1.690470
      9          6           0        2.019859   -1.481128   -2.762868
     10          6           0        2.571584   -0.147972   -2.253199
     11          6           0        2.376319   -1.740561   -4.188007
     12          6           0        1.745507   -2.771062   -0.437914
     13          6           0        0.946048   -4.098336   -0.636209
     14          6           0        0.113672   -4.516361    0.578164
     15          8           0        0.380319   -5.488116    1.278829
     16          8           0       -1.164256   -3.874644    0.680455
     17          7           0        3.301927    2.721463   -1.321085
     18          6           0        2.305370    2.393910   -2.209014
     19          6           0        1.603355    3.625018   -2.537643
     20          6           0        2.221872    4.700378   -1.823143
     21          6           0        3.273811    4.053087   -0.964651
     22          6           0        0.507085    3.610430   -3.553004
     23          6           0        1.917455    6.158392   -1.903606
     24          8           0        0.930270    6.487091   -2.531335
     25          6           0        2.790957    7.275341   -1.273360
     26          7           0        5.575275    2.886308    0.807781
     27          6           0        5.053078    4.105203    0.892412
     28          6           0        5.607601    4.834349    2.094236
     29          6           0        6.581773    3.773168    2.772108
     30          6           0        6.467740    2.590112    1.802310
     31          6           0        6.268054    6.205547    1.734281
     32          6           0        6.226691    3.260365    4.252917
     33          6           0        7.336882    3.572912    5.326106
     34          7           0        6.153502   -0.016336    0.277540
     35          6           0        6.992583    0.095324    1.366851
     36          6           0        7.571249   -1.215891    1.675284
     37          6           0        6.797424   -2.116300    0.952076
     38          6           0        5.915947   -1.355117    0.140927
     39          6           0        8.666719   -1.561049    2.586519
     40          6           0        6.498289   -3.516680    0.675346
     41          8           0        7.034243   -4.538134    1.035094
     42          6           0        5.323982   -3.521596   -0.313717
     43          6           0        5.784037   -4.118428   -1.600612
     44          8           0        6.627730   -3.669910   -2.364933
     45          8           0        5.222509   -5.340472   -1.787042
     46          6           0        5.514023   -6.068859   -2.977095
     47          6           0       -2.156207   -4.528335    1.539904
     48          6           0       -3.521119   -4.322275    0.914875
     49          6           0       -4.708554   -4.692185    1.427496
     50          6           0       -5.025238   -5.617010    2.543872
     51          6           0       -5.922476   -4.049602    0.700793
     52          6           0       -6.277908   -2.694236    1.363923
     53          6           0       -5.862419   -1.417892    0.518746
     54          6           0       -6.667291   -0.160263    0.960106
     55          6           0       -5.760496    0.769192    1.822633
     56          6           0       -7.194631    0.504556   -0.321960
     57          6           0       -8.686627    0.259823   -0.515639
     58          6           0       -9.347403    1.586516   -1.081831
     59          6           0      -10.763901    1.333445   -1.490535
     60          6           0      -11.198992    1.401830   -2.994514
     61          6           0      -11.643887    2.315716   -0.601480
     62          6           0      -13.099818    1.906513   -0.652518
     63          6           0      -13.777440    2.153210    0.704451
     64          6           0      -13.841047    0.917462    1.607942
     65          6           0      -15.180081    0.115093    1.368093
     66          6           0      -13.808440    1.169466    3.141445
     67          1           0        1.159739    0.953090   -3.326915
     68          1           0        3.793852    5.679002    0.371412
     69          1           0        7.746627    1.181545    2.919194
     70          1           0        3.067778   -3.439830   -1.934176
     71          1           0        0.939991   -1.415568   -2.628471
     72          1           0        3.150090   -2.506400   -4.247020
     73          1           0        2.725058   -0.877280   -4.753276
     74          1           0        1.463079   -2.121474   -4.644793
     75          1           0        1.053364   -1.955562   -0.225056
     76          1           0        2.342847   -2.770237    0.473506
     77          1           0        1.644882   -4.909849   -0.836725
     78          1           0        0.300177   -3.978362   -1.506467
     79          1           0       -0.519337    3.553248   -3.192811
     80          1           0        0.574401    2.817892   -4.297445
     81          1           0        0.629424    4.547610   -4.096467
     82          1           0        2.529507    7.311168   -0.215256
     83          1           0        2.331133    8.174298   -1.684874
     84          1           0        3.857469    7.103694   -1.416476
     85          1           0        4.727630    4.946814    2.727121
     86          1           0        7.612684    4.126543    2.805511
     87          1           0        7.319256    6.210575    1.446455
     88          1           0        5.971495    6.941482    2.482250
     89          1           0        5.825529    6.557108    0.802607
     90          1           0        6.270131    2.172298    4.210062
     91          1           0        5.198395    3.483000    4.536930
     92          1           0        7.850904    2.663389    5.635087
     93          1           0        6.717451    3.978882    6.126092
     94          1           0        7.989486    4.363718    4.958037
     95          1           0        8.715758   -2.640370    2.727800
     96          1           0        8.469233   -1.035099    3.520713
     97          1           0        9.599797   -1.102545    2.259648
     98          1           0        4.495444   -4.058577    0.148419
     99          1           0        6.527181   -6.470522   -2.947538
    100          1           0        5.241912   -5.483180   -3.855437
    101          1           0        4.842720   -6.926346   -3.031474
    102          1           0       -2.245666   -4.011976    2.495847
    103          1           0       -2.001332   -5.604313    1.620947
    104          1           0       -3.553855   -3.720997    0.006812
    105          1           0       -4.187629   -6.257519    2.818680
    106          1           0       -5.822455   -6.347935    2.404159
    107          1           0       -5.433570   -5.065762    3.390468
    108          1           0       -6.777527   -4.708248    0.852010
    109          1           0       -5.769753   -3.992128   -0.376560
    110          1           0       -5.779084   -2.623691    2.329639
    111          1           0       -7.346807   -2.645761    1.571381
    112          1           0       -5.896121   -1.660079   -0.543436
    113          1           0       -4.837101   -1.061682    0.610414
    114          1           0       -7.560543   -0.397659    1.537973
    115          1           0       -4.676499    0.655056    1.854904
    116          1           0       -6.197027    0.650966    2.814034
    117          1           0       -6.064843    1.788828    1.584062
    118          1           0       -6.818849    0.231869   -1.307589
    119          1           0       -6.974201    1.569328   -0.397932
    120          1           0       -9.266488   -0.003147    0.368745
    121          1           0       -8.901679   -0.560674   -1.199009
    122          1           0       -8.752699    1.857286   -1.954014
    123          1           0       -9.225004    2.392077   -0.357506
    124          1           0      -10.972509    0.328661   -1.123798
    125          1           0      -11.972393    2.105361   -3.300346
    126          1           0      -11.564115    0.415597   -3.281282
    127          1           0      -10.278214    1.591051   -3.545649
    128          1           0      -11.488218    3.320730   -0.994282
    129          1           0      -11.310068    2.453395    0.426486
    130          1           0      -13.131231    0.851415   -0.926015
    131          1           0      -13.647202    2.493198   -1.390142
    132          1           0      -14.757104    2.575361    0.477297
    133          1           0      -13.346472    2.974292    1.276822
    134          1           0      -12.976499    0.302958    1.356112
    135          1           0      -15.114443   -0.409284    0.413961
    136          1           0      -16.068631    0.698722    1.128339
    137          1           0      -15.503294   -0.489027    2.216112
    138          1           0      -14.519613    1.956317    3.394617
    139          1           0      -12.759277    1.348927    3.379864
    140          1           0      -14.153318    0.283599    3.674080
 ---------------------------------------------------------------------

 SCF Done:  E(RCAM-B3LYP) =  -3007.17627825     A.U. after   18 cycles

 Excitation energies and oscillator strengths:

 Excited State   1:      Singlet-A      1.7363 eV  714.07 nm  f=0.3765  <S**2>=0.000
     245 -> 248       -0.19205
     246 -> 247        0.68172
     245 <- 248       -0.10857
 This state for optimization and/or second-order correction.
 Total Energy, E(TD-HF/TD-DFT) =  -3007.11246997
 Copying the excited state density for this state as the 1-particle RhoCI density.

 Excited State   2:      Singlet-A      2.2738 eV  545.28 nm  f=0.0391  <S**2>=0.000
     245 -> 247        0.59543
     246 -> 248        0.36863

 Excited State   3:      Singlet-A      3.2784 eV  378.18 nm  f=0.0763  <S**2>=0.000
     243 -> 247        0.60897
     243 -> 249       -0.10607
     245 -> 247        0.11649
     246 -> 248       -0.27836

 Excited State   4:      Singlet-A      3.4357 eV  360.87 nm  f=0.6703  <S**2>=0.000
     241 -> 247        0.12680
     243 -> 247        0.25473
     245 -> 247       -0.33553
     246 -> 248        0.51719

 Excited State   5:      Singlet-A      3.5870 eV  345.65 nm  f=0.0131  <S**2>=0.000
     241 -> 247        0.48216
     241 -> 248        0.11399
     241 -> 249       -0.21648
     241 -> 251        0.19481
     242 -> 247       -0.28416
     243 -> 247       -0.16919

 The electronic state is 1-A.
 Alpha  occ. eigenvalues --  -46.90152 -19.25015 -19.24383 -19.20453 -19.19517
 Alpha  occ. eigenvalues --  -19.19095 -19.18417 -14.42548 -14.42519 -14.39522
 Alpha  occ. eigenvalues --  -14.39478 -10.40111 -10.39367 -10.34991 -10.34702
 Alpha  occ. eigenvalues --  -10.31655 -10.31523 -10.31457 -10.31389 -10.31308
 Alpha  occ. eigenvalues --  -10.30729 -10.30703 -10.30101 -10.30073 -10.29386
 Alpha  occ. eigenvalues --  -10.28851 -10.28817 -10.28645 -10.28528 -10.28493
 Alpha  occ. eigenvalues --  -10.28281 -10.28249 -10.28221 -10.28118 -10.27660
 Alpha  occ. eigenvalues --  -10.27617 -10.27129 -10.27075 -10.26888 -10.26872
 Alpha  occ. eigenvalues --  -10.26734 -10.26461 -10.26448 -10.26401 -10.26140
 Alpha  occ. eigenvalues --  -10.26000 -10.25951 -10.25782 -10.25611 -10.25378
 Alpha  occ. eigenvalues --  -10.25327 -10.25289 -10.25196 -10.25118 -10.25117
 Alpha  occ. eigenvalues --  -10.24695 -10.24692 -10.24613 -10.24331 -10.24303
 Alpha  occ. eigenvalues --  -10.24221 -10.24211 -10.24207 -10.24128 -10.24075
 Alpha  occ. eigenvalues --  -10.24032  -3.18475  -1.93373  -1.92918  -1.92774
 Alpha  occ. eigenvalues --   -1.17130  -1.14725  -1.10781  -1.10269  -1.07755
 Alpha  occ. eigenvalues --   -1.07053  -1.04981  -1.04347  -1.03322  -1.01899
 Alpha  occ. eigenvalues --   -0.93461  -0.90190  -0.89931  -0.89639  -0.88822
 Alpha  occ. eigenvalues --   -0.88580  -0.88113  -0.87986  -0.87222  -0.87089
 Alpha  occ. eigenvalues --   -0.86181  -0.85534  -0.84127  -0.83892  -0.83558
 Alpha  occ. eigenvalues --   -0.82376  -0.82068  -0.81122  -0.81046  -0.80600
 Alpha  occ. eigenvalues --   -0.79780  -0.78787  -0.78043  -0.77427  -0.76486
 Alpha  occ. eigenvalues --   -0.75550  -0.75424  -0.75136  -0.74671  -0.73837
 Alpha  occ. eigenvalues --   -0.73148  -0.72807  -0.72218  -0.70847  -0.69221
 Alpha  occ. eigenvalues --   -0.68675  -0.68122  -0.67377  -0.66206  -0.66137
 Alpha  occ. eigenvalues --   -0.65839  -0.65392  -0.65091  -0.64809  -0.64381
 Alpha  occ. eigenvalues --   -0.63311  -0.63150  -0.62637  -0.62537  -0.60465
 Alpha  occ. eigenvalues --   -0.60114  -0.59375  -0.59171  -0.58987  -0.58679
 Alpha  occ. eigenvalues --   -0.57524  -0.56881  -0.56541  -0.56422  -0.55824
 Alpha  occ. eigenvalues --   -0.55237  -0.54882  -0.54538  -0.53991  -0.53722
 Alpha  occ. eigenvalues --   -0.53631  -0.53497  -0.53383  -0.53245  -0.53135
 Alpha  occ. eigenvalues --   -0.52589  -0.52412  -0.51989  -0.51726  -0.51629
 Alpha  occ. eigenvalues --   -0.51573  -0.51274  -0.50994  -0.50887  -0.50412
 Alpha  occ. eigenvalues --   -0.50184  -0.50098  -0.49866  -0.49780  -0.49714
 Alpha  occ. eigenvalues --   -0.49542  -0.49399  -0.49116  -0.49053  -0.48826
 Alpha  occ. eigenvalues --   -0.48664  -0.48591  -0.48295  -0.48172  -0.47917
 Alpha  occ. eigenvalues --   -0.47362  -0.47264  -0.46913  -0.46676  -0.46562
 Alpha  occ. eigenvalues --   -0.46520  -0.46405  -0.46232  -0.46047  -0.45917
 Alpha  occ. eigenvalues --   -0.45742  -0.45449  -0.45385  -0.45123  -0.44954
 Alpha  occ. eigenvalues --   -0.44793  -0.44633  -0.44501  -0.44056  -0.43969
 Alpha  occ. eigenvalues --   -0.43941  -0.43819  -0.43556  -0.43522  -0.43177
 Alpha  occ. eigenvalues --   -0.43130  -0.43006  -0.42728  -0.42401  -0.42172
 Alpha  occ. eigenvalues --   -0.42042  -0.41904  -0.41542  -0.41410  -0.41292
 Alpha  occ. eigenvalues --   -0.41191  -0.40903  -0.40826  -0.40600  -0.40558
 Alpha  occ. eigenvalues --   -0.40054  -0.39615  -0.39493  -0.39240  -0.39085
 Alpha  occ. eigenvalues --   -0.38608  -0.38189  -0.37873  -0.37690  -0.37578
 Alpha  occ. eigenvalues --   -0.37187  -0.36842  -0.36679  -0.36625  -0.36024
 Alpha  occ. eigenvalues --   -0.35976  -0.35583  -0.34552  -0.34428  -0.34299
 Alpha  occ. eigenvalues --   -0.34115  -0.33428  -0.32528  -0.31476  -0.31158
 Alpha  occ. eigenvalues --   -0.30805  -0.30153  -0.29253  -0.29140  -0.24408
 Alpha  occ. eigenvalues --   -0.20943
 Alpha virt. eigenvalues --   -0.08305  -0.02545   0.00347   0.01574   0.02508
 Alpha virt. eigenvalues --    0.03455   0.04946   0.05284   0.06169   0.06578
 Alpha virt. eigenvalues --    0.08036   0.08195   0.08713   0.08843   0.08872

 Mulliken charges:
               1
     1  Mg   0.828982
     2  C   -0.040263
     3  C   -0.070299
     4  C   -0.061988
     5  C   -0.047110
     6  N   -0.273233
     7  C   -0.050284
     8  C   -0.032981
     9  C   -0.023150
    10  C    0.010996
    11  C    0.105100
    12  C    0.010864
    13  C    0.085627
    14  C    0.192361
    15  O   -0.223103
    16  O   -0.384695
    17  N   -0.338640
    18  C    0.138829
    19  C   -0.116742
    20  C   -0.018202
    21  C    0.176591
    22  C    0.106530
    23  C   -0.050823
    24  O   -0.204694
    25  C    0.057479
    26  N   -0.253769
    27  C   -0.033812
    28  C   -0.022703
    29  C   -0.010921
    30  C    0.039579
    31  C    0.079301
    32  C   -0.001290
    33  C   -0.001416
    34  N   -0.386568
    35  C    0.071446
    36  C   -0.181876
    37  C    0.023983
    38  C    0.129469
    39  C    0.134779
    40  C    0.037128
    41  O   -0.150493
    42  C    0.026155
    43  C    0.189750
    44  O   -0.219195
    45  O   -0.313187
    46  C    0.186331
    47  C    0.305462
    48  C   -0.156222
    49  C   -0.172848
    50  C    0.091113
    51  C    0.079512
    52  C    0.030182
    53  C    0.054248
    54  C   -0.120886
    55  C    0.065707
    56  C    0.071587
    57  C   -0.050422
    58  C    0.047596
    59  C   -0.122454
    60  C    0.066787
    61  C   -0.004703
    62  C    0.048268
    63  C    0.055438
    64  C   -0.133409
    65  C    0.026658
    66  C    0.042394
    67  H   -0.033654
    68  H   -0.045091
    69  H   -0.034034
    70  H   -0.008244
    71  H    0.011391
    72  H    0.020442
    73  H    0.025364
    74  H    0.016413
    75  H    0.018508
    76  H    0.018543
    77  H    0.037431
    78  H    0.027625
    79  H    0.031909
    80  H    0.005420
    81  H    0.032908
    82  H    0.042089
    83  H    0.026862
    84  H    0.046237
    85  H    0.015118
    86  H    0.009353
    87  H    0.021161
    88  H    0.022888
    89  H   -0.003427
    90  H    0.007964
    91  H    0.008952
    92  H    0.030471
    93  H    0.017856
    94  H    0.021017
    95  H    0.044966
    96  H    0.009995
    97  H    0.026288
    98  H    0.033700
    99  H    0.046329
   100  H    0.027460
   101  H    0.024059
   102  H    0.032232
   103  H    0.046337
   104  H    0.001991
   105  H    0.012891
   106  H    0.013220
   107  H    0.015213
   108  H   -0.020635
   109  H    0.007719
   110  H    0.000506
   111  H   -0.001830
   112  H   -0.010803
   113  H   -0.009784
   114  H    0.002629
   115  H    0.029331
   116  H   -0.004441
   117  H   -0.005459
   118  H   -0.011041
   119  H   -0.013135
   120  H   -0.002980
   121  H   -0.001453
   122  H   -0.020752
   123  H    0.002447
   124  H   -0.006029
   125  H    0.019257
   126  H    0.005280
   127  H    0.002393
   128  H   -0.007945
   129  H   -0.005976
   130  H   -0.000267
   131  H   -0.006043
   132  H   -0.020273
   133  H   -0.015079
   134  H   -0.001908
   135  H   -0.003055
   136  H   -0.005350
   137  H    0.009296
   138  H    0.011566
   139  H    0.009467
   140  H    0.004347
 Sum of Mulliken charges =  -0.00000

 Dipole moment (field-independent basis, Debye):
    X=             -1.4709    Y=              2.3877    Z=              0.4204  Tot=              2.8358
 Quadrupole moment (field-independent basis, Debye-Ang):
   XX=           -407.9123   YY=           -420.7890   ZZ=           -392.1211
   XY=             49.2916   XZ=              6.6273   YZ=             32.3344

 Normal termination of Gaussian 16 at Wed Apr 27 13:32:35 2022.
