 Gaussian 16, Revision A.03,
 Gaussian 16:  ES64L-G16RevA.03 25-Dec-2016

 ---------------------------------
 #p PBE1PBE/Def2SVP td=(nstates=5)
 ---------------------------------

 ------------------------------------------------------
 step_1201_chromophore_17 TDDFT with PBE1PBE functional
 ------------------------------------------------------
 Symbolic Z-matrix:
 Charge =  0 Multiplicity = 1

                         Standard orientation:
 ---------------------------------------------------------------------
 Center     Atomic      Atomic             Coordinates (Angstroms)
 Number     Number       Type             X           Y           Z
 ---------------------------------------------------------------------
      1         12           0        4.940468    1.325010   -0.650689
      2          6           0        4.972489   -2.051117   -0.558957
      3          6           0        1.986202    1.079001   -2.624274
      4          6           0        3.979828    4.646757    0.071207
      5          6           0        7.116909    1.342545    2.042156
      6          7           0        3.664788   -0.267028   -1.424803
      7          6           0        3.881199   -1.568275   -1.223073
      8          6           0        2.689328   -2.446927   -1.690470
      9          6           0        2.019859   -1.481128   -2.762868
     10          6           0        2.571584   -0.147972   -2.253199
     11          6           0        2.376319   -1.740561   -4.188007
     12          6           0        1.745507   -2.771062   -0.437914
     13          6           0        0.946048   -4.098336   -0.636209
     14          6           0        0.113672   -4.516361    0.578164
     15          8           0        0.380319   -5.488116    1.278829
     16          8           0       -1.164256   -3.874644    0.680455
     17          7           0        3.301927    2.721463   -1.321085
     18          6           0        2.305370    2.393910   -2.209014
     19          6           0        1.603355    3.625018   -2.537643
     20          6           0        2.221872    4.700378   -1.823143
     21          6           0        3.273811    4.053087   -0.964651
     22          6           0        0.507085    3.610430   -3.553004
     23          6           0        1.917455    6.158392   -1.903606
     24          8           0        0.930270    6.487091   -2.531335
     25          6           0        2.790957    7.275341   -1.273360
     26          7           0        5.575275    2.886308    0.807781
     27          6           0        5.053078    4.105203    0.892412
     28          6           0        5.607601    4.834349    2.094236
     29          6           0        6.581773    3.773168    2.772108
     30          6           0        6.467740    2.590112    1.802310
     31          6           0        6.268054    6.205547    1.734281
     32          6           0        6.226691    3.260365    4.252917
     33          6           0        7.336882    3.572912    5.326106
     34          7           0        6.153502   -0.016336    0.277540
     35          6           0        6.992583    0.095324    1.366851
     36          6           0        7.571249   -1.215891    1.675284
     37          6           0        6.797424   -2.116300    0.952076
     38          6           0        5.915947   -1.355117    0.140927
     39          6           0        8.666719   -1.561049    2.586519
     40          6           0        6.498289   -3.516680    0.675346
     41          8           0        7.034243   -4.538134    1.035094
     42          6           0        5.323982   -3.521596   -0.313717
     43          6           0        5.784037   -4.118428   -1.600612
     44          8           0        6.627730   -3.669910   -2.364933
     45          8           0        5.222509   -5.340472   -1.787042
     46          6           0        5.514023   -6.068859   -2.977095
     47          6           0       -2.156207   -4.528335    1.539904
     48          6           0       -3.521119   -4.322275    0.914875
     49          6           0       -4.708554   -4.692185    1.427496
     50          6           0       -5.025238   -5.617010    2.543872
     51          6           0       -5.922476   -4.049602    0.700793
     52          6           0       -6.277908   -2.694236    1.363923
     53          6           0       -5.862419   -1.417892    0.518746
     54          6           0       -6.667291   -0.160263    0.960106
     55          6           0       -5.760496    0.769192    1.822633
     56          6           0       -7.194631    0.504556   -0.321960
     57          6           0       -8.686627    0.259823   -0.515639
     58          6           0       -9.347403    1.586516   -1.081831
     59          6           0      -10.763901    1.333445   -1.490535
     60          6           0      -11.198992    1.401830   -2.994514
     61          6           0      -11.643887    2.315716   -0.601480
     62          6           0      -13.099818    1.906513   -0.652518
     63          6           0      -13.777440    2.153210    0.704451
     64          6           0      -13.841047    0.917462    1.607942
     65          6           0      -15.180081    0.115093    1.368093
     66          6           0      -13.808440    1.169466    3.141445
     67          1           0        1.159739    0.953090   -3.326915
     68          1           0        3.793852    5.679002    0.371412
     69          1           0        7.746627    1.181545    2.919194
     70          1           0        3.067778   -3.439830   -1.934176
     71          1           0        0.939991   -1.415568   -2.628471
     72          1           0        3.150090   -2.506400   -4.247020
     73          1           0        2.725058   -0.877280   -4.753276
     74          1           0        1.463079   -2.121474   -4.644793
     75          1           0        1.053364   -1.955562   -0.225056
     76          1           0        2.342847   -2.770237    0.473506
     77          1           0        1.644882   -4.909849   -0.836725
     78          1           0        0.300177   -3.978362   -1.506467
     79          1           0       -0.519337    3.553248   -3.192811
     80          1           0        0.574401    2.817892   -4.297445
     81          1           0        0.629424    4.547610   -4.096467
     82          1           0        2.529507    7.311168   -0.215256
     83          1           0        2.331133    8.174298   -1.684874
     84          1           0        3.857469    7.103694   -1.416476
     85          1           0        4.727630    4.946814    2.727121
     86          1           0        7.612684    4.126543    2.805511
     87          1           0        7.319256    6.210575    1.446455
     88          1           0        5.971495    6.941482    2.482250
     89          1           0        5.825529    6.557108    0.802607
     90          1           0        6.270131    2.172298    4.210062
     91          1           0        5.198395    3.483000    4.536930
     92          1           0        7.850904    2.663389    5.635087
     93          1           0        6.717451    3.978882    6.126092
     94          1           0        7.989486    4.363718    4.958037
     95          1           0        8.715758   -2.640370    2.727800
     96          1           0        8.469233   -1.035099    3.520713
     97          1           0        9.599797   -1.102545    2.259648
     98          1           0        4.495444   -4.058577    0.148419
     99          1           0        6.527181   -6.470522   -2.947538
    100          1           0        5.241912   -5.483180   -3.855437
    101          1           0        4.842720   -6.926346   -3.031474
    102          1           0       -2.245666   -4.011976    2.495847
    103          1           0       -2.001332   -5.604313    1.620947
    104          1           0       -3.553855   -3.720997    0.006812
    105          1           0       -4.187629   -6.257519    2.818680
    106          1           0       -5.822455   -6.347935    2.404159
    107          1           0       -5.433570   -5.065762    3.390468
    108          1           0       -6.777527   -4.708248    0.852010
    109          1           0       -5.769753   -3.992128   -0.376560
    110          1           0       -5.779084   -2.623691    2.329639
    111          1           0       -7.346807   -2.645761    1.571381
    112          1           0       -5.896121   -1.660079   -0.543436
    113          1           0       -4.837101   -1.061682    0.610414
    114          1           0       -7.560543   -0.397659    1.537973
    115          1           0       -4.676499    0.655056    1.854904
    116          1           0       -6.197027    0.650966    2.814034
    117          1           0       -6.064843    1.788828    1.584062
    118          1           0       -6.818849    0.231869   -1.307589
    119          1           0       -6.974201    1.569328   -0.397932
    120          1           0       -9.266488   -0.003147    0.368745
    121          1           0       -8.901679   -0.560674   -1.199009
    122          1           0       -8.752699    1.857286   -1.954014
    123          1           0       -9.225004    2.392077   -0.357506
    124          1           0      -10.972509    0.328661   -1.123798
    125          1           0      -11.972393    2.105361   -3.300346
    126          1           0      -11.564115    0.415597   -3.281282
    127          1           0      -10.278214    1.591051   -3.545649
    128          1           0      -11.488218    3.320730   -0.994282
    129          1           0      -11.310068    2.453395    0.426486
    130          1           0      -13.131231    0.851415   -0.926015
    131          1           0      -13.647202    2.493198   -1.390142
    132          1           0      -14.757104    2.575361    0.477297
    133          1           0      -13.346472    2.974292    1.276822
    134          1           0      -12.976499    0.302958    1.356112
    135          1           0      -15.114443   -0.409284    0.413961
    136          1           0      -16.068631    0.698722    1.128339
    137          1           0      -15.503294   -0.489027    2.216112
    138          1           0      -14.519613    1.956317    3.394617
    139          1           0      -12.759277    1.348927    3.379864
    140          1           0      -14.153318    0.283599    3.674080
 ---------------------------------------------------------------------

 SCF Done:  E(RPBE1PBE) =  -3005.36512185     A.U. after   15 cycles

 Excitation energies and oscillator strengths:

 Excited State   1:      Singlet-A      1.8786 eV  659.99 nm  f=0.3680  <S**2>=0.000
     245 -> 248       -0.18533
     246 -> 247        0.68857
 This state for optimization and/or second-order correction.
 Total Energy, E(TD-HF/TD-DFT) =  -3005.29608544
 Copying the excited state density for this state as the 1-particle RhoCI density.

 Excited State   2:      Singlet-A      2.2780 eV  544.28 nm  f=0.0471  <S**2>=0.000
     245 -> 247        0.61841
     246 -> 248        0.32847

 Excited State   3:      Singlet-A      2.8878 eV  429.34 nm  f=0.0016  <S**2>=0.000
     242 -> 247        0.12239
     243 -> 247        0.67144

 Excited State   4:      Singlet-A      3.1380 eV  395.11 nm  f=0.0182  <S**2>=0.000
     242 -> 247        0.63559
     243 -> 247       -0.13734
     246 -> 248        0.16988

 Excited State   5:      Singlet-A      3.2137 eV  385.80 nm  f=0.1419  <S**2>=0.000
     240 -> 247        0.52366
     240 -> 249       -0.15733
     241 -> 247        0.18814
     245 -> 247       -0.16204
     246 -> 248        0.32449

 The electronic state is 1-A.
 Alpha  occ. eigenvalues --  -46.93531 -19.25677 -19.25114 -19.20736 -19.19763
 Alpha  occ. eigenvalues --  -19.19401 -19.18484 -14.42045 -14.41996 -14.39243
 Alpha  occ. eigenvalues --  -14.39046 -10.37192 -10.36411 -10.32218 -10.31725
 Alpha  occ. eigenvalues --  -10.29214 -10.29083 -10.29009 -10.28934 -10.28881
 Alpha  occ. eigenvalues --  -10.28494 -10.28248 -10.28005 -10.27589 -10.27236
 Alpha  occ. eigenvalues --  -10.26600 -10.26437 -10.26326 -10.26319 -10.26157
 Alpha  occ. eigenvalues --  -10.26024 -10.25973 -10.25926 -10.25804 -10.25335
 Alpha  occ. eigenvalues --  -10.25198 -10.24772 -10.24756 -10.24639 -10.24469
 Alpha  occ. eigenvalues --  -10.24341 -10.24120 -10.23816 -10.23681 -10.23659
 Alpha  occ. eigenvalues --  -10.23493 -10.23441 -10.23337 -10.23317 -10.23062
 Alpha  occ. eigenvalues --  -10.22885 -10.22857 -10.22824 -10.22701 -10.22664
 Alpha  occ. eigenvalues --  -10.22280 -10.22169 -10.22084 -10.21773 -10.21766
 Alpha  occ. eigenvalues --  -10.21725 -10.21713 -10.21713 -10.21686 -10.21615
 Alpha  occ. eigenvalues --  -10.21480  -3.15438  -1.88274  -1.87799  -1.87659
 Alpha  occ. eigenvalues --   -1.11939  -1.09527  -1.05618  -1.04880  -1.02586
 Alpha  occ. eigenvalues --   -1.01948  -0.99604  -0.98958  -0.98082  -0.96429
 Alpha  occ. eigenvalues --   -0.87906  -0.84314  -0.84118  -0.83769  -0.83094
 Alpha  occ. eigenvalues --   -0.82694  -0.82430  -0.82277  -0.81609  -0.81199
 Alpha  occ. eigenvalues --   -0.80411  -0.79709  -0.78450  -0.78106  -0.77748
 Alpha  occ. eigenvalues --   -0.76595  -0.76316  -0.75470  -0.75158  -0.74829
 Alpha  occ. eigenvalues --   -0.73937  -0.73078  -0.72391  -0.71696  -0.70811
 Alpha  occ. eigenvalues --   -0.69857  -0.69615  -0.69262  -0.68752  -0.68015
 Alpha  occ. eigenvalues --   -0.67569  -0.67202  -0.66593  -0.65138  -0.63604
 Alpha  occ. eigenvalues --   -0.63168  -0.62336  -0.61779  -0.60652  -0.60379
 Alpha  occ. eigenvalues --   -0.60245  -0.59652  -0.59535  -0.59362  -0.58557
 Alpha  occ. eigenvalues --   -0.57663  -0.57430  -0.57246  -0.56747  -0.54916
 Alpha  occ. eigenvalues --   -0.54666  -0.53967  -0.53657  -0.53415  -0.53282
 Alpha  occ. eigenvalues --   -0.52149  -0.51340  -0.51165  -0.50866  -0.50298
 Alpha  occ. eigenvalues --   -0.49802  -0.49367  -0.49079  -0.48641  -0.48322
 Alpha  occ. eigenvalues --   -0.48070  -0.47983  -0.47913  -0.47696  -0.47606
 Alpha  occ. eigenvalues --   -0.47156  -0.46966  -0.46612  -0.46289  -0.46117
 Alpha  occ. eigenvalues --   -0.45893  -0.45815  -0.45525  -0.45443  -0.44961
 Alpha  occ. eigenvalues --   -0.44825  -0.44607  -0.44506  -0.44357  -0.44236
 Alpha  occ. eigenvalues --   -0.44136  -0.44009  -0.43708  -0.43647  -0.43437
 Alpha  occ. eigenvalues --   -0.43293  -0.43140  -0.42879  -0.42807  -0.42485
 Alpha  occ. eigenvalues --   -0.41982  -0.41928  -0.41592  -0.41295  -0.41223
 Alpha  occ. eigenvalues --   -0.41188  -0.41131  -0.41013  -0.40757  -0.40618
 Alpha  occ. eigenvalues --   -0.40530  -0.40140  -0.40067  -0.39850  -0.39539
 Alpha  occ. eigenvalues --   -0.39521  -0.39433  -0.39249  -0.38826  -0.38779
 Alpha  occ. eigenvalues --   -0.38711  -0.38526  -0.38323  -0.38245  -0.38001
 Alpha  occ. eigenvalues --   -0.37895  -0.37852  -0.37461  -0.37212  -0.36990
 Alpha  occ. eigenvalues --   -0.36859  -0.36749  -0.36349  -0.36216  -0.36066
 Alpha  occ. eigenvalues --   -0.35975  -0.35734  -0.35604  -0.35447  -0.35325
 Alpha  occ. eigenvalues --   -0.34982  -0.34510  -0.34376  -0.34087  -0.33965
 Alpha  occ. eigenvalues --   -0.33382  -0.33035  -0.32752  -0.32626  -0.32389
 Alpha  occ. eigenvalues --   -0.32216  -0.31835  -0.31625  -0.31474  -0.30940
 Alpha  occ. eigenvalues --   -0.30817  -0.30483  -0.29566  -0.29459  -0.29090
 Alpha  occ. eigenvalues --   -0.29019  -0.28925  -0.27516  -0.27051  -0.26226
 Alpha  occ. eigenvalues --   -0.25875  -0.25563  -0.24566  -0.24416  -0.21287
 Alpha  occ. eigenvalues --   -0.18644
 Alpha virt. eigenvalues --   -0.10883  -0.05939  -0.03864  -0.02013  -0.01282
 Alpha virt. eigenvalues --   -0.00901   0.00631   0.00757   0.01732   0.03105
 Alpha virt. eigenvalues --    0.03895   0.04369   0.05106   0.05524   0.05585

 Mulliken charges:
               1
     1  Mg   0.964104
     2  C   -0.077442
     3  C   -0.062741
     4  C   -0.057636
     5  C   -0.051438
     6  N   -0.376559
     7  C    0.037057
     8  C   -0.109093
     9  C   -0.101948
    10  C    0.044224
    11  C    0.052720
    12  C   -0.029317
    13  C    0.004764
    14  C    0.258290
    15  O   -0.255149
    16  O   -0.414217
    17  N   -0.448255
    18  C    0.165325
    19  C   -0.145802
    20  C   -0.068553
    21  C    0.204492
    22  C    0.052349
    23  C    0.002300
    24  O   -0.239190
    25  C   -0.022955
    26  N   -0.361120
    27  C    0.016263
    28  C   -0.106503
    29  C   -0.078394
    30  C    0.080146
    31  C    0.019707
    32  C   -0.060655
    33  C   -0.073983
    34  N   -0.508438
    35  C    0.100041
    36  C   -0.201598
    37  C   -0.027095
    38  C    0.194211
    39  C    0.079821
    40  C    0.139409
    41  O   -0.197449
    42  C   -0.089800
    43  C    0.285605
    44  O   -0.254448
    45  O   -0.348188
    46  C    0.131726
    47  C    0.267869
    48  C   -0.161011
    49  C   -0.226209
    50  C    0.031698
    51  C    0.013568
    52  C   -0.032237
    53  C    0.009385
    54  C   -0.213431
    55  C    0.006419
    56  C    0.021116
    57  C   -0.112620
    58  C   -0.004715
    59  C   -0.210950
    60  C    0.008055
    61  C   -0.054019
    62  C   -0.019324
    63  C    0.004060
    64  C   -0.228990
    65  C   -0.031470
    66  C   -0.021731
    67  H   -0.002112
    68  H   -0.010638
    69  H   -0.000362
    70  H    0.033257
    71  H    0.046490
    72  H    0.047860
    73  H    0.052291
    74  H    0.043737
    75  H    0.050595
    76  H    0.051620
    77  H    0.068414
    78  H    0.059834
    79  H    0.058674
    80  H    0.031147
    81  H    0.060455
    82  H    0.068261
    83  H    0.054544
    84  H    0.073427
    85  H    0.052506
    86  H    0.046312
    87  H    0.047524
    88  H    0.050696
    89  H    0.025627
    90  H    0.043414
    91  H    0.040508
    92  H    0.056653
    93  H    0.046405
    94  H    0.048392
    95  H    0.072180
    96  H    0.038316
    97  H    0.055298
    98  H    0.071360
    99  H    0.068126
   100  H    0.049264
   101  H    0.046360
   102  H    0.059840
   103  H    0.071734
   104  H    0.031402
   105  H    0.039895
   106  H    0.039750
   107  H    0.042606
   108  H    0.013576
   109  H    0.038344
   110  H    0.034561
   111  H    0.030465
   112  H    0.020217
   113  H    0.022049
   114  H    0.038894
   115  H    0.054389
   116  H    0.024413
   117  H    0.022988
   118  H    0.021582
   119  H    0.018083
   120  H    0.029346
   121  H    0.031800
   122  H    0.013259
   123  H    0.034154
   124  H    0.032487
   125  H    0.045065
   126  H    0.032641
   127  H    0.030172
   128  H    0.026226
   129  H    0.025854
   130  H    0.032487
   131  H    0.026684
   132  H    0.012199
   133  H    0.017381
   134  H    0.036715
   135  H    0.025203
   136  H    0.021846
   137  H    0.035832
   138  H    0.039300
   139  H    0.037785
   140  H    0.032290
 Sum of Mulliken charges =  -0.00000

 Dipole moment (field-independent basis, Debye):
    X=             -1.3327    Y=              2.2067    Z=              0.6198  Tot=              2.6514
 Quadrupole moment (field-independent basis, Debye-Ang):
   XX=           -401.8769   YY=           -418.6070   ZZ=           -388.4467
   XY=             49.1163   XZ=              8.3379   YZ=             33.2292

 Normal termination of Gaussian 16 at Wed Apr 27 13:54:31 2022.
