 Gaussian 16, Revision A.03,
 Gaussian 16:  ES64L-G16RevA.03 25-Dec-2016

 --------------------------------
 #p wB97XD/Def2SVP td=(nstates=5)
 --------------------------------

 -----------------------------------------------------
 step_1201_chromophore_17 TDDFT with wB97XD functional
 -----------------------------------------------------
 Symbolic Z-matrix:
 Charge =  0 Multiplicity = 1

                         Standard orientation:
 ---------------------------------------------------------------------
 Center     Atomic      Atomic             Coordinates (Angstroms)
 Number     Number       Type             X           Y           Z
 ---------------------------------------------------------------------
      1         12           0        4.940468    1.325010   -0.650689
      2          6           0        4.972489   -2.051117   -0.558957
      3          6           0        1.986202    1.079001   -2.624274
      4          6           0        3.979828    4.646757    0.071207
      5          6           0        7.116909    1.342545    2.042156
      6          7           0        3.664788   -0.267028   -1.424803
      7          6           0        3.881199   -1.568275   -1.223073
      8          6           0        2.689328   -2.446927   -1.690470
      9          6           0        2.019859   -1.481128   -2.762868
     10          6           0        2.571584   -0.147972   -2.253199
     11          6           0        2.376319   -1.740561   -4.188007
     12          6           0        1.745507   -2.771062   -0.437914
     13          6           0        0.946048   -4.098336   -0.636209
     14          6           0        0.113672   -4.516361    0.578164
     15          8           0        0.380319   -5.488116    1.278829
     16          8           0       -1.164256   -3.874644    0.680455
     17          7           0        3.301927    2.721463   -1.321085
     18          6           0        2.305370    2.393910   -2.209014
     19          6           0        1.603355    3.625018   -2.537643
     20          6           0        2.221872    4.700378   -1.823143
     21          6           0        3.273811    4.053087   -0.964651
     22          6           0        0.507085    3.610430   -3.553004
     23          6           0        1.917455    6.158392   -1.903606
     24          8           0        0.930270    6.487091   -2.531335
     25          6           0        2.790957    7.275341   -1.273360
     26          7           0        5.575275    2.886308    0.807781
     27          6           0        5.053078    4.105203    0.892412
     28          6           0        5.607601    4.834349    2.094236
     29          6           0        6.581773    3.773168    2.772108
     30          6           0        6.467740    2.590112    1.802310
     31          6           0        6.268054    6.205547    1.734281
     32          6           0        6.226691    3.260365    4.252917
     33          6           0        7.336882    3.572912    5.326106
     34          7           0        6.153502   -0.016336    0.277540
     35          6           0        6.992583    0.095324    1.366851
     36          6           0        7.571249   -1.215891    1.675284
     37          6           0        6.797424   -2.116300    0.952076
     38          6           0        5.915947   -1.355117    0.140927
     39          6           0        8.666719   -1.561049    2.586519
     40          6           0        6.498289   -3.516680    0.675346
     41          8           0        7.034243   -4.538134    1.035094
     42          6           0        5.323982   -3.521596   -0.313717
     43          6           0        5.784037   -4.118428   -1.600612
     44          8           0        6.627730   -3.669910   -2.364933
     45          8           0        5.222509   -5.340472   -1.787042
     46          6           0        5.514023   -6.068859   -2.977095
     47          6           0       -2.156207   -4.528335    1.539904
     48          6           0       -3.521119   -4.322275    0.914875
     49          6           0       -4.708554   -4.692185    1.427496
     50          6           0       -5.025238   -5.617010    2.543872
     51          6           0       -5.922476   -4.049602    0.700793
     52          6           0       -6.277908   -2.694236    1.363923
     53          6           0       -5.862419   -1.417892    0.518746
     54          6           0       -6.667291   -0.160263    0.960106
     55          6           0       -5.760496    0.769192    1.822633
     56          6           0       -7.194631    0.504556   -0.321960
     57          6           0       -8.686627    0.259823   -0.515639
     58          6           0       -9.347403    1.586516   -1.081831
     59          6           0      -10.763901    1.333445   -1.490535
     60          6           0      -11.198992    1.401830   -2.994514
     61          6           0      -11.643887    2.315716   -0.601480
     62          6           0      -13.099818    1.906513   -0.652518
     63          6           0      -13.777440    2.153210    0.704451
     64          6           0      -13.841047    0.917462    1.607942
     65          6           0      -15.180081    0.115093    1.368093
     66          6           0      -13.808440    1.169466    3.141445
     67          1           0        1.159739    0.953090   -3.326915
     68          1           0        3.793852    5.679002    0.371412
     69          1           0        7.746627    1.181545    2.919194
     70          1           0        3.067778   -3.439830   -1.934176
     71          1           0        0.939991   -1.415568   -2.628471
     72          1           0        3.150090   -2.506400   -4.247020
     73          1           0        2.725058   -0.877280   -4.753276
     74          1           0        1.463079   -2.121474   -4.644793
     75          1           0        1.053364   -1.955562   -0.225056
     76          1           0        2.342847   -2.770237    0.473506
     77          1           0        1.644882   -4.909849   -0.836725
     78          1           0        0.300177   -3.978362   -1.506467
     79          1           0       -0.519337    3.553248   -3.192811
     80          1           0        0.574401    2.817892   -4.297445
     81          1           0        0.629424    4.547610   -4.096467
     82          1           0        2.529507    7.311168   -0.215256
     83          1           0        2.331133    8.174298   -1.684874
     84          1           0        3.857469    7.103694   -1.416476
     85          1           0        4.727630    4.946814    2.727121
     86          1           0        7.612684    4.126543    2.805511
     87          1           0        7.319256    6.210575    1.446455
     88          1           0        5.971495    6.941482    2.482250
     89          1           0        5.825529    6.557108    0.802607
     90          1           0        6.270131    2.172298    4.210062
     91          1           0        5.198395    3.483000    4.536930
     92          1           0        7.850904    2.663389    5.635087
     93          1           0        6.717451    3.978882    6.126092
     94          1           0        7.989486    4.363718    4.958037
     95          1           0        8.715758   -2.640370    2.727800
     96          1           0        8.469233   -1.035099    3.520713
     97          1           0        9.599797   -1.102545    2.259648
     98          1           0        4.495444   -4.058577    0.148419
     99          1           0        6.527181   -6.470522   -2.947538
    100          1           0        5.241912   -5.483180   -3.855437
    101          1           0        4.842720   -6.926346   -3.031474
    102          1           0       -2.245666   -4.011976    2.495847
    103          1           0       -2.001332   -5.604313    1.620947
    104          1           0       -3.553855   -3.720997    0.006812
    105          1           0       -4.187629   -6.257519    2.818680
    106          1           0       -5.822455   -6.347935    2.404159
    107          1           0       -5.433570   -5.065762    3.390468
    108          1           0       -6.777527   -4.708248    0.852010
    109          1           0       -5.769753   -3.992128   -0.376560
    110          1           0       -5.779084   -2.623691    2.329639
    111          1           0       -7.346807   -2.645761    1.571381
    112          1           0       -5.896121   -1.660079   -0.543436
    113          1           0       -4.837101   -1.061682    0.610414
    114          1           0       -7.560543   -0.397659    1.537973
    115          1           0       -4.676499    0.655056    1.854904
    116          1           0       -6.197027    0.650966    2.814034
    117          1           0       -6.064843    1.788828    1.584062
    118          1           0       -6.818849    0.231869   -1.307589
    119          1           0       -6.974201    1.569328   -0.397932
    120          1           0       -9.266488   -0.003147    0.368745
    121          1           0       -8.901679   -0.560674   -1.199009
    122          1           0       -8.752699    1.857286   -1.954014
    123          1           0       -9.225004    2.392077   -0.357506
    124          1           0      -10.972509    0.328661   -1.123798
    125          1           0      -11.972393    2.105361   -3.300346
    126          1           0      -11.564115    0.415597   -3.281282
    127          1           0      -10.278214    1.591051   -3.545649
    128          1           0      -11.488218    3.320730   -0.994282
    129          1           0      -11.310068    2.453395    0.426486
    130          1           0      -13.131231    0.851415   -0.926015
    131          1           0      -13.647202    2.493198   -1.390142
    132          1           0      -14.757104    2.575361    0.477297
    133          1           0      -13.346472    2.974292    1.276822
    134          1           0      -12.976499    0.302958    1.356112
    135          1           0      -15.114443   -0.409284    0.413961
    136          1           0      -16.068631    0.698722    1.128339
    137          1           0      -15.503294   -0.489027    2.216112
    138          1           0      -14.519613    1.956317    3.394617
    139          1           0      -12.759277    1.348927    3.379864
    140          1           0      -14.153318    0.283599    3.674080
 ---------------------------------------------------------------------

 SCF Done:  E(RwB97XD) =  -3007.87266837     A.U. after   19 cycles

 Excitation energies and oscillator strengths:

 Excited State   1:      Singlet-A      1.6829 eV  736.72 nm  f=0.3748  <S**2>=0.000
     245 -> 248       -0.19730
     246 -> 247        0.67968
     245 <- 248       -0.11784
 This state for optimization and/or second-order correction.
 Total Energy, E(TD-HF/TD-DFT) =  -3007.81082184
 Copying the excited state density for this state as the 1-particle RhoCI density.

 Excited State   2:      Singlet-A      2.2193 eV  558.67 nm  f=0.0387  <S**2>=0.000
     245 -> 247        0.59482
     246 -> 248        0.36842

 Excited State   3:      Singlet-A      3.2849 eV  377.43 nm  f=0.0854  <S**2>=0.000
     243 -> 247        0.59715
     243 -> 249       -0.13063
     245 -> 247        0.11744
     246 -> 248       -0.28715

 Excited State   4:      Singlet-A      3.4491 eV  359.47 nm  f=0.6515  <S**2>=0.000
     241 -> 247        0.15259
     243 -> 247        0.25291
     245 -> 247       -0.32905
     246 -> 248        0.50740
     245 <- 247        0.10059

 Excited State   5:      Singlet-A      3.5950 eV  344.88 nm  f=0.0242  <S**2>=0.000
     241 -> 247        0.46558
     241 -> 248        0.11257
     241 -> 249       -0.22771
     241 -> 250       -0.16273
     242 -> 247       -0.30422
     243 -> 247       -0.17117

 The electronic state is 1-A.
 Alpha  occ. eigenvalues --  -46.96474 -19.30228 -19.29645 -19.25392 -19.24451
 Alpha  occ. eigenvalues --  -19.24107 -19.23460 -14.47112 -14.47095 -14.44101
 Alpha  occ. eigenvalues --  -14.44094 -10.43950 -10.43207 -10.38974 -10.38693
 Alpha  occ. eigenvalues --  -10.35486 -10.35463 -10.35397 -10.35369 -10.35288
 Alpha  occ. eigenvalues --  -10.34826 -10.34679 -10.34190 -10.34047 -10.33470
 Alpha  occ. eigenvalues --  -10.32895 -10.32732 -10.32685 -10.32596 -10.32564
 Alpha  occ. eigenvalues --  -10.32298 -10.32287 -10.32251 -10.32151 -10.31723
 Alpha  occ. eigenvalues --  -10.31707 -10.31225 -10.31187 -10.30959 -10.30753
 Alpha  occ. eigenvalues --  -10.30673 -10.30444 -10.30369 -10.30247 -10.29973
 Alpha  occ. eigenvalues --  -10.29814 -10.29769 -10.29727 -10.29608 -10.29327
 Alpha  occ. eigenvalues --  -10.29255 -10.29227 -10.29201 -10.29104 -10.29039
 Alpha  occ. eigenvalues --  -10.28639 -10.28527 -10.28523 -10.28147 -10.28136
 Alpha  occ. eigenvalues --  -10.28135 -10.28132 -10.28112 -10.28056 -10.27964
 Alpha  occ. eigenvalues --  -10.27906  -3.22280  -1.95859  -1.95381  -1.95239
 Alpha  occ. eigenvalues --   -1.19303  -1.16889  -1.12988  -1.12509  -1.09933
 Alpha  occ. eigenvalues --   -1.09273  -1.06965  -1.06332  -1.05333  -1.03972
 Alpha  occ. eigenvalues --   -0.95425  -0.91976  -0.91756  -0.91434  -0.90749
 Alpha  occ. eigenvalues --   -0.90356  -0.89992  -0.89862  -0.89128  -0.88864
 Alpha  occ. eigenvalues --   -0.88099  -0.87519  -0.86054  -0.85748  -0.85408
 Alpha  occ. eigenvalues --   -0.84227  -0.83962  -0.83081  -0.82967  -0.82473
 Alpha  occ. eigenvalues --   -0.81601  -0.80683  -0.79984  -0.79381  -0.78421
 Alpha  occ. eigenvalues --   -0.77477  -0.77280  -0.76950  -0.76458  -0.75672
 Alpha  occ. eigenvalues --   -0.75100  -0.74763  -0.74170  -0.72764  -0.71140
 Alpha  occ. eigenvalues --   -0.70659  -0.69981  -0.69374  -0.68143  -0.68009
 Alpha  occ. eigenvalues --   -0.67779  -0.67209  -0.67090  -0.66803  -0.66212
 Alpha  occ. eigenvalues --   -0.65161  -0.65075  -0.64616  -0.64375  -0.62385
 Alpha  occ. eigenvalues --   -0.62086  -0.61364  -0.61139  -0.60927  -0.60648
 Alpha  occ. eigenvalues --   -0.59529  -0.58795  -0.58518  -0.58295  -0.57812
 Alpha  occ. eigenvalues --   -0.57159  -0.56786  -0.56463  -0.55945  -0.55650
 Alpha  occ. eigenvalues --   -0.55483  -0.55391  -0.55304  -0.55120  -0.55027
 Alpha  occ. eigenvalues --   -0.54541  -0.54290  -0.53919  -0.53659  -0.53530
 Alpha  occ. eigenvalues --   -0.53484  -0.53175  -0.52873  -0.52786  -0.52288
 Alpha  occ. eigenvalues --   -0.52108  -0.51963  -0.51810  -0.51694  -0.51661
 Alpha  occ. eigenvalues --   -0.51437  -0.51297  -0.51049  -0.50947  -0.50745
 Alpha  occ. eigenvalues --   -0.50576  -0.50534  -0.50172  -0.50084  -0.49795
 Alpha  occ. eigenvalues --   -0.49222  -0.49170  -0.48853  -0.48557  -0.48491
 Alpha  occ. eigenvalues --   -0.48425  -0.48324  -0.48129  -0.47948  -0.47840
 Alpha  occ. eigenvalues --   -0.47686  -0.47416  -0.47266  -0.47050  -0.46789
 Alpha  occ. eigenvalues --   -0.46729  -0.46590  -0.46393  -0.45914  -0.45900
 Alpha  occ. eigenvalues --   -0.45861  -0.45756  -0.45484  -0.45398  -0.45085
 Alpha  occ. eigenvalues --   -0.45017  -0.44935  -0.44603  -0.44302  -0.44078
 Alpha  occ. eigenvalues --   -0.43991  -0.43824  -0.43503  -0.43285  -0.43171
 Alpha  occ. eigenvalues --   -0.43081  -0.42779  -0.42677  -0.42491  -0.42422
 Alpha  occ. eigenvalues --   -0.41952  -0.41453  -0.41404  -0.41065  -0.40983
 Alpha  occ. eigenvalues --   -0.40455  -0.40077  -0.39711  -0.39639  -0.39438
 Alpha  occ. eigenvalues --   -0.39265  -0.38767  -0.38681  -0.38510  -0.37947
 Alpha  occ. eigenvalues --   -0.37813  -0.37447  -0.36432  -0.36390  -0.36213
 Alpha  occ. eigenvalues --   -0.36059  -0.35651  -0.34361  -0.33635  -0.33176
 Alpha  occ. eigenvalues --   -0.32803  -0.32277  -0.31438  -0.31160  -0.26339
 Alpha  occ. eigenvalues --   -0.22741
 Alpha virt. eigenvalues --   -0.06646  -0.00636   0.02415   0.04464   0.04966
 Alpha virt. eigenvalues --    0.05751   0.07448   0.07466   0.08445   0.09410
 Alpha virt. eigenvalues --    0.10613   0.11185   0.11837   0.12196   0.12397

 Mulliken charges:
               1
     1  Mg   0.959230
     2  C   -0.065248
     3  C   -0.082489
     4  C   -0.071061
     5  C   -0.059628
     6  N   -0.344094
     7  C   -0.004849
     8  C   -0.075219
     9  C   -0.074718
    10  C    0.033860
    11  C    0.057164
    12  C   -0.025233
    13  C    0.022662
    14  C    0.249249
    15  O   -0.253584
    16  O   -0.414040
    17  N   -0.415516
    18  C    0.158793
    19  C   -0.135534
    20  C   -0.060366
    21  C    0.200299
    22  C    0.062500
    23  C   -0.004482
    24  O   -0.234452
    25  C   -0.006434
    26  N   -0.324379
    27  C    0.000200
    28  C   -0.080752
    29  C   -0.057151
    30  C    0.065207
    31  C    0.031360
    32  C   -0.045011
    33  C   -0.056955
    34  N   -0.474319
    35  C    0.086332
    36  C   -0.194889
    37  C   -0.023356
    38  C    0.170046
    39  C    0.088840
    40  C    0.118101
    41  O   -0.188311
    42  C   -0.047696
    43  C    0.259433
    44  O   -0.248795
    45  O   -0.345494
    46  C    0.145830
    47  C    0.280081
    48  C   -0.172060
    49  C   -0.208145
    50  C    0.042529
    51  C    0.032631
    52  C   -0.014487
    53  C    0.021540
    54  C   -0.180014
    55  C    0.018427
    56  C    0.034683
    57  C   -0.091831
    58  C    0.009612
    59  C   -0.176327
    60  C    0.018129
    61  C   -0.039885
    62  C    0.000239
    63  C    0.016384
    64  C   -0.198736
    65  C   -0.019340
    66  C   -0.007121
    67  H   -0.008337
    68  H   -0.024755
    69  H   -0.008878
    70  H    0.015063
    71  H    0.037654
    72  H    0.042594
    73  H    0.047099
    74  H    0.039110
    75  H    0.043706
    76  H    0.042905
    77  H    0.063486
    78  H    0.054050
    79  H    0.056503
    80  H    0.026732
    81  H    0.055641
    82  H    0.064193
    83  H    0.053529
    84  H    0.067626
    85  H    0.042442
    86  H    0.034209
    87  H    0.043749
    88  H    0.046075
    89  H    0.015873
    90  H    0.031227
    91  H    0.033890
    92  H    0.051667
    93  H    0.039996
    94  H    0.041320
    95  H    0.069488
    96  H    0.031213
    97  H    0.049870
    98  H    0.064229
    99  H    0.064710
   100  H    0.044841
   101  H    0.042550
   102  H    0.054484
   103  H    0.066650
   104  H    0.027374
   105  H    0.035099
   106  H    0.034943
   107  H    0.036872
   108  H    0.005905
   109  H    0.031157
   110  H    0.023387
   111  H    0.022285
   112  H    0.009858
   113  H    0.011813
   114  H    0.024776
   115  H    0.050000
   116  H    0.018214
   117  H    0.015968
   118  H    0.012573
   119  H    0.007621
   120  H    0.017397
   121  H    0.022627
   122  H    0.001945
   123  H    0.024793
   124  H    0.015369
   125  H    0.039761
   126  H    0.027343
   127  H    0.023726
   128  H    0.016887
   129  H    0.014255
   130  H    0.019959
   131  H    0.019695
   132  H    0.004014
   133  H    0.008625
   134  H    0.023996
   135  H    0.018784
   136  H    0.014979
   137  H    0.029941
   138  H    0.032756
   139  H    0.032071
   140  H    0.025468
 Sum of Mulliken charges =  -0.00000

 Dipole moment (field-independent basis, Debye):
    X=             -1.5670    Y=              2.5322    Z=              0.3580  Tot=              2.9993
 Quadrupole moment (field-independent basis, Debye-Ang):
   XX=           -404.0525   YY=           -416.6400   ZZ=           -388.0711
   XY=             49.8665   XZ=              7.0194   YZ=             32.5035

 Normal termination of Gaussian 16 at Wed Apr 27 14:22:20 2022.
