 Gaussian 16, Revision A.03,
 Gaussian 16:  ES64L-G16RevA.03 25-Dec-2016

 --------------------
 #p ZINDO=(nstates=5)
 --------------------

 ------------------------------
 step_1201_chromophore_17 ZINDO
 ------------------------------
 Symbolic Z-matrix:
 Charge =  0 Multiplicity = 1

                         Standard orientation:
 ---------------------------------------------------------------------
 Center     Atomic      Atomic             Coordinates (Angstroms)
 Number     Number       Type             X           Y           Z
 ---------------------------------------------------------------------
      1         12           0        4.940468    1.325010   -0.650689
      2          6           0        4.972489   -2.051117   -0.558957
      3          6           0        1.986202    1.079001   -2.624274
      4          6           0        3.979828    4.646757    0.071207
      5          6           0        7.116909    1.342545    2.042156
      6          7           0        3.664788   -0.267028   -1.424803
      7          6           0        3.881199   -1.568275   -1.223073
      8          6           0        2.689328   -2.446927   -1.690470
      9          6           0        2.019859   -1.481128   -2.762868
     10          6           0        2.571584   -0.147972   -2.253199
     11          6           0        2.376319   -1.740561   -4.188007
     12          6           0        1.745507   -2.771062   -0.437914
     13          6           0        0.946048   -4.098336   -0.636209
     14          6           0        0.113672   -4.516361    0.578164
     15          8           0        0.380319   -5.488116    1.278829
     16          8           0       -1.164256   -3.874644    0.680455
     17          7           0        3.301927    2.721463   -1.321085
     18          6           0        2.305370    2.393910   -2.209014
     19          6           0        1.603355    3.625018   -2.537643
     20          6           0        2.221872    4.700378   -1.823143
     21          6           0        3.273811    4.053087   -0.964651
     22          6           0        0.507085    3.610430   -3.553004
     23          6           0        1.917455    6.158392   -1.903606
     24          8           0        0.930270    6.487091   -2.531335
     25          6           0        2.790957    7.275341   -1.273360
     26          7           0        5.575275    2.886308    0.807781
     27          6           0        5.053078    4.105203    0.892412
     28          6           0        5.607601    4.834349    2.094236
     29          6           0        6.581773    3.773168    2.772108
     30          6           0        6.467740    2.590112    1.802310
     31          6           0        6.268054    6.205547    1.734281
     32          6           0        6.226691    3.260365    4.252917
     33          6           0        7.336882    3.572912    5.326106
     34          7           0        6.153502   -0.016336    0.277540
     35          6           0        6.992583    0.095324    1.366851
     36          6           0        7.571249   -1.215891    1.675284
     37          6           0        6.797424   -2.116300    0.952076
     38          6           0        5.915947   -1.355117    0.140927
     39          6           0        8.666719   -1.561049    2.586519
     40          6           0        6.498289   -3.516680    0.675346
     41          8           0        7.034243   -4.538134    1.035094
     42          6           0        5.323982   -3.521596   -0.313717
     43          6           0        5.784037   -4.118428   -1.600612
     44          8           0        6.627730   -3.669910   -2.364933
     45          8           0        5.222509   -5.340472   -1.787042
     46          6           0        5.514023   -6.068859   -2.977095
     47          6           0       -2.156207   -4.528335    1.539904
     48          6           0       -3.521119   -4.322275    0.914875
     49          6           0       -4.708554   -4.692185    1.427496
     50          6           0       -5.025238   -5.617010    2.543872
     51          6           0       -5.922476   -4.049602    0.700793
     52          6           0       -6.277908   -2.694236    1.363923
     53          6           0       -5.862419   -1.417892    0.518746
     54          6           0       -6.667291   -0.160263    0.960106
     55          6           0       -5.760496    0.769192    1.822633
     56          6           0       -7.194631    0.504556   -0.321960
     57          6           0       -8.686627    0.259823   -0.515639
     58          6           0       -9.347403    1.586516   -1.081831
     59          6           0      -10.763901    1.333445   -1.490535
     60          6           0      -11.198992    1.401830   -2.994514
     61          6           0      -11.643887    2.315716   -0.601480
     62          6           0      -13.099818    1.906513   -0.652518
     63          6           0      -13.777440    2.153210    0.704451
     64          6           0      -13.841047    0.917462    1.607942
     65          6           0      -15.180081    0.115093    1.368093
     66          6           0      -13.808440    1.169466    3.141445
     67          1           0        1.159739    0.953090   -3.326915
     68          1           0        3.793852    5.679002    0.371412
     69          1           0        7.746627    1.181545    2.919194
     70          1           0        3.067778   -3.439830   -1.934176
     71          1           0        0.939991   -1.415568   -2.628471
     72          1           0        3.150090   -2.506400   -4.247020
     73          1           0        2.725058   -0.877280   -4.753276
     74          1           0        1.463079   -2.121474   -4.644793
     75          1           0        1.053364   -1.955562   -0.225056
     76          1           0        2.342847   -2.770237    0.473506
     77          1           0        1.644882   -4.909849   -0.836725
     78          1           0        0.300177   -3.978362   -1.506467
     79          1           0       -0.519337    3.553248   -3.192811
     80          1           0        0.574401    2.817892   -4.297445
     81          1           0        0.629424    4.547610   -4.096467
     82          1           0        2.529507    7.311168   -0.215256
     83          1           0        2.331133    8.174298   -1.684874
     84          1           0        3.857469    7.103694   -1.416476
     85          1           0        4.727630    4.946814    2.727121
     86          1           0        7.612684    4.126543    2.805511
     87          1           0        7.319256    6.210575    1.446455
     88          1           0        5.971495    6.941482    2.482250
     89          1           0        5.825529    6.557108    0.802607
     90          1           0        6.270131    2.172298    4.210062
     91          1           0        5.198395    3.483000    4.536930
     92          1           0        7.850904    2.663389    5.635087
     93          1           0        6.717451    3.978882    6.126092
     94          1           0        7.989486    4.363718    4.958037
     95          1           0        8.715758   -2.640370    2.727800
     96          1           0        8.469233   -1.035099    3.520713
     97          1           0        9.599797   -1.102545    2.259648
     98          1           0        4.495444   -4.058577    0.148419
     99          1           0        6.527181   -6.470522   -2.947538
    100          1           0        5.241912   -5.483180   -3.855437
    101          1           0        4.842720   -6.926346   -3.031474
    102          1           0       -2.245666   -4.011976    2.495847
    103          1           0       -2.001332   -5.604313    1.620947
    104          1           0       -3.553855   -3.720997    0.006812
    105          1           0       -4.187629   -6.257519    2.818680
    106          1           0       -5.822455   -6.347935    2.404159
    107          1           0       -5.433570   -5.065762    3.390468
    108          1           0       -6.777527   -4.708248    0.852010
    109          1           0       -5.769753   -3.992128   -0.376560
    110          1           0       -5.779084   -2.623691    2.329639
    111          1           0       -7.346807   -2.645761    1.571381
    112          1           0       -5.896121   -1.660079   -0.543436
    113          1           0       -4.837101   -1.061682    0.610414
    114          1           0       -7.560543   -0.397659    1.537973
    115          1           0       -4.676499    0.655056    1.854904
    116          1           0       -6.197027    0.650966    2.814034
    117          1           0       -6.064843    1.788828    1.584062
    118          1           0       -6.818849    0.231869   -1.307589
    119          1           0       -6.974201    1.569328   -0.397932
    120          1           0       -9.266488   -0.003147    0.368745
    121          1           0       -8.901679   -0.560674   -1.199009
    122          1           0       -8.752699    1.857286   -1.954014
    123          1           0       -9.225004    2.392077   -0.357506
    124          1           0      -10.972509    0.328661   -1.123798
    125          1           0      -11.972393    2.105361   -3.300346
    126          1           0      -11.564115    0.415597   -3.281282
    127          1           0      -10.278214    1.591051   -3.545649
    128          1           0      -11.488218    3.320730   -0.994282
    129          1           0      -11.310068    2.453395    0.426486
    130          1           0      -13.131231    0.851415   -0.926015
    131          1           0      -13.647202    2.493198   -1.390142
    132          1           0      -14.757104    2.575361    0.477297
    133          1           0      -13.346472    2.974292    1.276822
    134          1           0      -12.976499    0.302958    1.356112
    135          1           0      -15.114443   -0.409284    0.413961
    136          1           0      -16.068631    0.698722    1.128339
    137          1           0      -15.503294   -0.489027    2.216112
    138          1           0      -14.519613    1.956317    3.394617
    139          1           0      -12.759277    1.348927    3.379864
    140          1           0      -14.153318    0.283599    3.674080
 ---------------------------------------------------------------------

 SCF Done:  E(RZINDO/S) =  -474.301175696     A.U. after   20 cycles

 Excitation energies and oscillator strengths:

 Excited State   1:      Singlet-A      1.2703 eV  976.03 nm  f=0.5855  <S**2>=0.000
     175 ->178         0.19817
     176 ->177         0.66146
 This state for optimization and/or second-order correction.
 Total Energy, E(CIS/TDA) =  -474.254493469
 Copying the excited state density for this state as the 1-particle RhoCI density.

 Excited State   2:      Singlet-A      1.8955 eV  654.09 nm  f=0.0025  <S**2>=0.000
     175 ->177        -0.46600
     176 ->178         0.51100

 Excited State   3:      Singlet-A      2.8319 eV  437.81 nm  f=0.0046  <S**2>=0.000
     176 ->180         0.68346
     176 ->182        -0.12736

 Excited State   4:      Singlet-A      2.9320 eV  422.87 nm  f=0.0054  <S**2>=0.000
     168 ->177         0.28725
     168 ->178         0.12577
     168 ->179        -0.29572
     168 ->182        -0.31259
     168 ->184         0.10291
     168 ->186        -0.21097
     168 ->195         0.10093
     171 ->177        -0.16981

 Excited State   5:      Singlet-A      2.9452 eV  420.97 nm  f=0.1399  <S**2>=0.000
     176 ->178        -0.13614
     176 ->179         0.62121

 The electronic state is 1-A.
 Alpha  occ. eigenvalues --   -1.85860  -1.80113  -1.79025  -1.73974  -1.71013
 Alpha  occ. eigenvalues --   -1.69550  -1.65675  -1.60854  -1.60528  -1.59836
 Alpha  occ. eigenvalues --   -1.55241  -1.51379  -1.49630  -1.47485  -1.45646
 Alpha  occ. eigenvalues --   -1.44078  -1.43518  -1.40146  -1.39169  -1.39063
 Alpha  occ. eigenvalues --   -1.36457  -1.34997  -1.31637  -1.30928  -1.27681
 Alpha  occ. eigenvalues --   -1.27311  -1.26691  -1.22414  -1.20909  -1.19030
 Alpha  occ. eigenvalues --   -1.18026  -1.15415  -1.15287  -1.13901  -1.12979
 Alpha  occ. eigenvalues --   -1.12428  -1.10436  -1.09885  -1.05351  -1.03727
 Alpha  occ. eigenvalues --   -1.02492  -1.01917  -0.99327  -0.98179  -0.97519
 Alpha  occ. eigenvalues --   -0.95350  -0.94878  -0.93964  -0.92965  -0.92456
 Alpha  occ. eigenvalues --   -0.91556  -0.90625  -0.88650  -0.88597  -0.86467
 Alpha  occ. eigenvalues --   -0.85902  -0.84834  -0.83731  -0.82838  -0.81082
 Alpha  occ. eigenvalues --   -0.80007  -0.79614  -0.77530  -0.76463  -0.76194
 Alpha  occ. eigenvalues --   -0.75786  -0.75332  -0.74797  -0.73247  -0.72772
 Alpha  occ. eigenvalues --   -0.72526  -0.71869  -0.71434  -0.70806  -0.70532
 Alpha  occ. eigenvalues --   -0.70417  -0.70189  -0.68800  -0.68662  -0.68111
 Alpha  occ. eigenvalues --   -0.67562  -0.67324  -0.66812  -0.66439  -0.66147
 Alpha  occ. eigenvalues --   -0.66068  -0.65045  -0.64457  -0.64261  -0.63778
 Alpha  occ. eigenvalues --   -0.63259  -0.63091  -0.62522  -0.62419  -0.61780
 Alpha  occ. eigenvalues --   -0.61667  -0.61404  -0.61220  -0.60776  -0.60332
 Alpha  occ. eigenvalues --   -0.60126  -0.59742  -0.59311  -0.58874  -0.58341
 Alpha  occ. eigenvalues --   -0.57692  -0.57056  -0.56880  -0.56298  -0.56129
 Alpha  occ. eigenvalues --   -0.56034  -0.55802  -0.55452  -0.55250  -0.55058
 Alpha  occ. eigenvalues --   -0.54416  -0.54191  -0.53672  -0.53487  -0.53038
 Alpha  occ. eigenvalues --   -0.52707  -0.52360  -0.52070  -0.51956  -0.51805
 Alpha  occ. eigenvalues --   -0.51475  -0.51105  -0.50978  -0.50687  -0.50626
 Alpha  occ. eigenvalues --   -0.50119  -0.50031  -0.49809  -0.49536  -0.49349
 Alpha  occ. eigenvalues --   -0.48930  -0.48890  -0.48699  -0.48337  -0.47767
 Alpha  occ. eigenvalues --   -0.47626  -0.47490  -0.47033  -0.46891  -0.46622
 Alpha  occ. eigenvalues --   -0.46297  -0.46262  -0.45984  -0.45446  -0.45440
 Alpha  occ. eigenvalues --   -0.45376  -0.45084  -0.44979  -0.44632  -0.44276
 Alpha  occ. eigenvalues --   -0.44044  -0.43442  -0.42894  -0.42356  -0.41874
 Alpha  occ. eigenvalues --   -0.41691  -0.41438  -0.39620  -0.39344  -0.38768
 Alpha  occ. eigenvalues --   -0.38357  -0.37431  -0.35376  -0.34940  -0.34795
 Alpha  occ. eigenvalues --   -0.32938  -0.32532  -0.32389  -0.31606  -0.26936
 Alpha  occ. eigenvalues --   -0.21358
 Alpha virt. eigenvalues --   -0.07958  -0.02703  -0.00468   0.00607   0.00805
 Alpha virt. eigenvalues --    0.01380   0.02580   0.03047   0.04942   0.04953
 Alpha virt. eigenvalues --    0.06357   0.06952   0.07180   0.07527   0.07973

 Mulliken charges:
               1
     1  Mg   0.431702
     2  C   -0.042732
     3  C   -0.087841
     4  C   -0.089379
     5  C   -0.064487
     6  N   -0.280658
     7  C    0.121580
     8  C   -0.009650
     9  C    0.018666
    10  C    0.139313
    11  C   -0.040178
    12  C   -0.026543
    13  C    0.013593
    14  C    0.455132
    15  O   -0.499519
    16  O   -0.288501
    17  N   -0.340846
    18  C    0.124831
    19  C    0.051481
    20  C   -0.046004
    21  C    0.125967
    22  C   -0.037827
    23  C    0.320878
    24  O   -0.521042
    25  C   -0.034167
    26  N   -0.252270
    27  C    0.142501
    28  C    0.007732
    29  C   -0.005760
    30  C    0.092867
    31  C   -0.053866
    32  C   -0.045881
    33  C   -0.061894
    34  N   -0.325304
    35  C    0.078768
    36  C    0.040532
    37  C   -0.060983
    38  C    0.115487
    39  C   -0.034137
    40  C    0.342658
    41  O   -0.516965
    42  C    0.054075
    43  C    0.495334
    44  O   -0.530313
    45  O   -0.269776
    46  C    0.081643
    47  C    0.106205
    48  C   -0.093251
    49  C   -0.011272
    50  C   -0.036412
    51  C   -0.027198
    52  C   -0.029540
    53  C   -0.041366
    54  C   -0.007171
    55  C   -0.064692
    56  C   -0.038083
    57  C   -0.042515
    58  C   -0.035125
    59  C   -0.015197
    60  C   -0.056083
    61  C   -0.039946
    62  C   -0.033085
    63  C   -0.030652
    64  C   -0.009538
    65  C   -0.066991
    66  C   -0.059048
    67  H    0.023651
    68  H    0.030041
    69  H    0.025965
    70  H    0.037139
    71  H    0.030509
    72  H    0.025110
    73  H    0.030312
    74  H    0.016430
    75  H    0.024729
    76  H    0.028755
    77  H    0.042363
    78  H    0.040152
    79  H    0.040249
    80  H    0.019727
    81  H    0.034411
    82  H    0.037264
    83  H    0.042787
    84  H    0.043062
    85  H    0.035694
    86  H    0.033597
    87  H    0.034878
    88  H    0.024236
    89  H    0.011726
    90  H    0.019076
    91  H    0.029551
    92  H    0.032461
    93  H    0.017535
    94  H    0.025307
    95  H    0.041968
    96  H    0.022604
    97  H    0.034759
    98  H    0.051935
    99  H    0.053070
   100  H    0.040362
   101  H    0.021325
   102  H    0.051773
   103  H    0.062327
   104  H    0.033149
   105  H    0.021117
   106  H    0.024172
   107  H    0.029619
   108  H    0.008692
   109  H    0.029109
   110  H    0.020806
   111  H    0.019879
   112  H    0.019403
   113  H    0.020768
   114  H    0.029613
   115  H    0.037107
   116  H    0.009984
   117  H    0.014766
   118  H    0.017925
   119  H    0.014009
   120  H    0.016568
   121  H    0.017373
   122  H    0.010681
   123  H    0.024233
   124  H    0.017353
   125  H    0.029276
   126  H    0.014925
   127  H    0.017626
   128  H    0.011524
   129  H    0.020000
   130  H    0.023525
   131  H    0.017113
   132  H    0.009278
   133  H    0.014190
   134  H    0.022270
   135  H    0.011595
   136  H    0.014847
   137  H    0.023748
   138  H    0.024826
   139  H    0.018122
   140  H    0.016707
 Sum of Mulliken charges =  -0.00000

 Dipole moment (field-independent basis, Debye):
    X=             -3.5396    Y=              4.3150    Z=              1.2850  Tot=              5.7270
 N-N= 4.325467388718D+03 E-N= 0.000000000000D+00  KE=-9.324942984579D+03
 Leave Link  601 at Wed Apr 27 14:35:10 2022, MaxMem=  6710886400 cpu:               0.7 elap:               0.0
 (Enter /sw/apps/gaussian-16.0/g16/l9999.exe)
 1\1\GINC-BP1-COMPUTE175\SP\RZINDO CIS\STO-3G\C55H74Mg1N4O6\OF15641\27-
 Apr-2022\0\\#p ZINDO=(nstates=5)\\step_1201_chromophore_17 ZINDO\\0,1\
 Mg,0,29.045,59.297,41.315\C,0,26.281,57.723,40.179\C,0,30.951,56.732,3
 9.743\C,0,31.981,61.261,41.291\C,0,27.124,62.13,41.837\N,0,28.647,57.5
 24,40.107\C,0,27.427,57.111,39.758\C,0,27.466,55.965,38.711\C,0,28.915
 ,55.369,38.987\C,0,29.552,56.597,39.641\C,0,28.969,54.162,39.862\C,0,2
 7.292,56.581,37.243\C,0,26.688,55.545,36.242\C,0,26.394,56.114,34.852\

 Normal termination of Gaussian 16 at Wed Apr 27 14:35:10 2022.
