 Gaussian 16, Revision A.03,
 Gaussian 16:  ES64L-G16RevA.03 25-Dec-2016

 ------------------------------
 #p blyp/Def2SVP td=(nstates=5)
 ------------------------------

 -------------------------------------------------
 step_951_chromophore_8 TDDFT with blyp functional
 -------------------------------------------------
 Symbolic Z-matrix:
 Charge =  0 Multiplicity = 1

                         Standard orientation:
 ---------------------------------------------------------------------
 Center     Atomic      Atomic             Coordinates (Angstroms)
 Number     Number       Type             X           Y           Z
 ---------------------------------------------------------------------
      1         12           0       -4.531264   -1.094844    0.112514
      2          6           0       -3.757198    2.085536    0.843679
      3          6           0       -4.512190   -0.393718   -3.236510
      4          6           0       -4.876358   -4.493419   -0.575965
      5          6           0       -4.325747   -1.889276    3.475345
      6          7           0       -4.054902    0.608772   -1.078757
      7          6           0       -3.787543    1.897645   -0.560949
      8          6           0       -3.658466    2.959375   -1.725909
      9          6           0       -4.249542    2.170151   -2.897543
     10          6           0       -4.228676    0.722635   -2.392664
     11          6           0       -5.583759    2.666434   -3.505927
     12          6           0       -2.233014    3.401332   -1.867990
     13          6           0       -1.974645    4.897486   -1.764822
     14          6           0       -0.567911    5.426677   -1.650347
     15          8           0       -0.142151    6.416214   -2.246304
     16          8           0        0.149539    4.624071   -0.849208
     17          7           0       -4.773843   -2.258193   -1.667117
     18          6           0       -4.824738   -1.713158   -2.942374
     19          6           0       -5.036860   -2.696901   -3.868101
     20          6           0       -5.043236   -4.003257   -3.185237
     21          6           0       -4.873573   -3.662938   -1.727825
     22          6           0       -5.183854   -2.402006   -5.372130
     23          6           0       -5.187346   -5.329111   -3.783467
     24          8           0       -5.029368   -5.476555   -5.009329
     25          6           0       -5.465894   -6.547775   -2.997562
     26          7           0       -4.670102   -2.959596    1.246274
     27          6           0       -4.798342   -4.165568    0.771709
     28          6           0       -5.173200   -5.090268    1.929805
     29          6           0       -4.408322   -4.360228    3.126739
     30          6           0       -4.433274   -2.955200    2.595955
     31          6           0       -6.744668   -5.233637    2.043290
     32          6           0       -3.061003   -5.049276    3.606796
     33          6           0       -3.138718   -5.446264    5.109859
     34          7           0       -3.874310   -0.187782    1.891371
     35          6           0       -4.021448   -0.604890    3.168088
     36          6           0       -3.652033    0.581342    3.979083
     37          6           0       -3.568848    1.633020    3.139374
     38          6           0       -3.862446    1.141805    1.864541
     39          6           0       -3.506723    0.531415    5.565554
     40          6           0       -3.396323    3.032431    3.075593
     41          8           0       -3.225681    3.901729    3.926700
     42          6           0       -3.678719    3.393136    1.594652
     43          6           0       -4.867775    4.309965    1.609108
     44          8           0       -5.933380    4.099501    2.132386
     45          8           0       -4.603076    5.377316    0.746792
     46          6           0       -5.647856    6.266732    0.314120
     47          6           0        1.571349    5.041772   -0.837400
     48          6           0        2.358874    4.096672   -0.003952
     49          6           0        3.717684    4.110045    0.171165
     50          6           0        4.699860    5.178062   -0.207270
     51          6           0        4.341934    2.868580    0.856887
     52          6           0        5.483920    2.065247    0.170788
     53          6           0        5.187429    0.607474    0.194663
     54          6           0        5.826246   -0.123508   -1.038742
     55          6           0        4.732456   -0.595276   -2.082905
     56          6           0        6.721722   -1.308946   -0.437629
     57          6           0        8.259404   -1.120258   -0.741173
     58          6           0        9.136627   -1.384370    0.520402
     59          6           0       10.544954   -1.864841    0.144434
     60          6           0       10.795103   -3.143335    0.891339
     61          6           0       11.621301   -0.756453    0.318437
     62          6           0       12.826371   -1.119497   -0.605522
     63          6           0       14.186520   -0.664622   -0.028360
     64          6           0       15.296164   -1.805686    0.006973
     65          6           0       16.273770   -1.614424   -1.105015
     66          6           0       15.953137   -1.959536    1.333909
     67          1           0       -4.501512   -0.106225   -4.290310
     68          1           0       -4.938510   -5.578176   -0.684894
     69          1           0       -4.268295   -2.053950    4.553281
     70          1           0       -4.215494    3.826868   -1.373543
     71          1           0       -3.601545    2.190477   -3.773376
     72          1           0       -6.402180    1.963654   -3.352134
     73          1           0       -5.502608    2.727645   -4.591523
     74          1           0       -5.876606    3.630835   -3.089633
     75          1           0       -2.043265    3.265359   -2.932000
     76          1           0       -1.514354    2.846739   -1.264825
     77          1           0       -2.431982    5.290149   -0.856337
     78          1           0       -2.481078    5.375494   -2.603240
     79          1           0       -4.407911   -2.817012   -6.015399
     80          1           0       -5.242218   -1.369846   -5.716348
     81          1           0       -6.081699   -2.913659   -5.717548
     82          1           0       -6.101404   -6.428969   -2.120974
     83          1           0       -4.512369   -6.879999   -2.585394
     84          1           0       -5.851192   -7.326227   -3.656921
     85          1           0       -4.757553   -6.068564    1.686742
     86          1           0       -5.046959   -4.336116    4.009973
     87          1           0       -7.158310   -6.237723    2.135817
     88          1           0       -7.366488   -4.692072    1.330758
     89          1           0       -7.057558   -4.793676    2.989922
     90          1           0       -2.338069   -4.251408    3.440615
     91          1           0       -2.849250   -5.936366    3.007894
     92          1           0       -4.156833   -5.674703    5.423743
     93          1           0       -2.876938   -4.596785    5.740417
     94          1           0       -2.524298   -6.301078    5.393539
     95          1           0       -4.239457   -0.189460    5.926903
     96          1           0       -3.708934    1.477845    6.068907
     97          1           0       -2.516643    0.288641    5.950435
     98          1           0       -2.883663    3.992609    1.149596
     99          1           0       -6.289742    5.723340   -0.379933
    100          1           0       -5.236157    7.005325   -0.374691
    101          1           0       -6.349718    6.718779    1.015043
    102          1           0        1.604579    6.013413   -0.344172
    103          1           0        1.876943    4.991893   -1.882623
    104          1           0        1.766567    3.273132    0.394925
    105          1           0        4.290127    6.176770   -0.357315
    106          1           0        5.013214    4.710003   -1.141164
    107          1           0        5.649776    5.220979    0.324441
    108          1           0        3.632567    2.126425    1.223355
    109          1           0        4.681806    3.195874    1.839868
    110          1           0        6.299114    2.120209    0.892570
    111          1           0        5.741524    2.332569   -0.854867
    112          1           0        4.139282    0.307841    0.175316
    113          1           0        5.435785    0.263885    1.199588
    114          1           0        6.401298    0.559276   -1.665532
    115          1           0        3.893233    0.097051   -2.027526
    116          1           0        4.438197   -1.643578   -2.133409
    117          1           0        5.174574   -0.368784   -3.053523
    118          1           0        6.348866   -2.213720   -0.918244
    119          1           0        6.531470   -1.518112    0.614156
    120          1           0        8.331807   -0.074172   -1.036986
    121          1           0        8.490799   -1.792751   -1.566906
    122          1           0        8.665488   -2.146205    1.140323
    123          1           0        9.055425   -0.466244    1.103086
    124          1           0       10.520492   -2.107790   -0.918822
    125          1           0       11.848010   -3.354313    1.075574
    126          1           0       10.631790   -3.932468    0.157929
    127          1           0       10.244508   -3.194456    1.831192
    128          1           0       11.918649   -0.508026    1.337035
    129          1           0       11.277955    0.150705   -0.177931
    130          1           0       12.615545   -0.573286   -1.525344
    131          1           0       12.810137   -2.198727   -0.757474
    132          1           0       14.152220   -0.310689    1.002223
    133          1           0       14.456084    0.189671   -0.647999
    134          1           0       14.717474   -2.715209   -0.158341
    135          1           0       16.173567   -2.302276   -1.943583
    136          1           0       17.248055   -1.762043   -0.637928
    137          1           0       16.193817   -0.609357   -1.519361
    138          1           0       15.415037   -1.433200    2.122399
    139          1           0       17.002851   -1.664918    1.341664
    140          1           0       15.674919   -2.957563    1.674001
 ---------------------------------------------------------------------

 SCF Done:  E(RB-LYP) =  -3007.31453285     A.U. after   22 cycles

 Excitation energies and oscillator strengths:

 Excited State   1:      Singlet-A      1.6089 eV  770.64 nm  f=0.0003  <S**2>=0.000
     244 -> 247       -0.23610
     245 -> 247        0.66526
 This state for optimization and/or second-order correction.
 Total Energy, E(TD-HF/TD-DFT) =  -3007.25540848
 Copying the excited state density for this state as the 1-particle RhoCI density.

 Excited State   2:      Singlet-A      1.8056 eV  686.65 nm  f=0.2653  <S**2>=0.000
     244 -> 248        0.18748
     246 -> 247        0.67999
     246 <- 247       -0.14024

 Excited State   3:      Singlet-A      1.9471 eV  636.76 nm  f=0.0478  <S**2>=0.000
     243 -> 247       -0.45899
     244 -> 247        0.46792
     245 -> 247        0.16044
     246 -> 248       -0.16207

 Excited State   4:      Singlet-A      1.9644 eV  631.17 nm  f=0.0001  <S**2>=0.000
     242 -> 247        0.70512

 Excited State   5:      Singlet-A      2.0672 eV  599.76 nm  f=0.0227  <S**2>=0.000
     241 -> 247        0.10567
     243 -> 247        0.52339
     244 -> 247        0.37235
     245 -> 247        0.12686
     246 -> 248       -0.22456

 The electronic state is 1-A.
 Alpha  occ. eigenvalues --  -46.27719 -18.82847 -18.82613 -18.77723 -18.76247
 Alpha  occ. eigenvalues --  -18.75888 -18.74253 -14.04305 -14.03125 -14.01121
 Alpha  occ. eigenvalues --  -14.00875 -10.04703 -10.03764  -9.99452  -9.98732
 Alpha  occ. eigenvalues --   -9.98336  -9.97772  -9.97695  -9.97154  -9.96861
 Alpha  occ. eigenvalues --   -9.96812  -9.96262  -9.95597  -9.94952  -9.94861
 Alpha  occ. eigenvalues --   -9.94837  -9.94815  -9.94666  -9.94444  -9.94181
 Alpha  occ. eigenvalues --   -9.93951  -9.93747  -9.93746  -9.93731  -9.93507
 Alpha  occ. eigenvalues --   -9.93278  -9.93160  -9.93041  -9.93040  -9.92971
 Alpha  occ. eigenvalues --   -9.92955  -9.92954  -9.92854  -9.92832  -9.92724
 Alpha  occ. eigenvalues --   -9.92502  -9.92365  -9.91861  -9.91691  -9.91560
 Alpha  occ. eigenvalues --   -9.91541  -9.91450  -9.91351  -9.91137  -9.91048
 Alpha  occ. eigenvalues --   -9.91021  -9.90928  -9.90906  -9.90758  -9.90693
 Alpha  occ. eigenvalues --   -9.90680  -9.90608  -9.90570  -9.90428  -9.90352
 Alpha  occ. eigenvalues --   -9.90146  -2.92256  -1.72692  -1.72114  -1.71982
 Alpha  occ. eigenvalues --   -0.98709  -0.98224  -0.91538  -0.90955  -0.89668
 Alpha  occ. eigenvalues --   -0.89470  -0.88298  -0.87527  -0.86598  -0.83965
 Alpha  occ. eigenvalues --   -0.76960  -0.74349  -0.73441  -0.72988  -0.72927
 Alpha  occ. eigenvalues --   -0.71891  -0.71627  -0.71384  -0.71296  -0.70236
 Alpha  occ. eigenvalues --   -0.69896  -0.68626  -0.68507  -0.68128  -0.67503
 Alpha  occ. eigenvalues --   -0.66853  -0.66426  -0.65914  -0.65721  -0.64767
 Alpha  occ. eigenvalues --   -0.64235  -0.63183  -0.62702  -0.61714  -0.61057
 Alpha  occ. eigenvalues --   -0.60545  -0.60395  -0.60231  -0.59473  -0.58725
 Alpha  occ. eigenvalues --   -0.58509  -0.58067  -0.57575  -0.56081  -0.55574
 Alpha  occ. eigenvalues --   -0.55022  -0.53512  -0.53061  -0.52442  -0.52234
 Alpha  occ. eigenvalues --   -0.51558  -0.51532  -0.51103  -0.50537  -0.50144
 Alpha  occ. eigenvalues --   -0.49581  -0.49522  -0.49430  -0.48639  -0.47189
 Alpha  occ. eigenvalues --   -0.46661  -0.46394  -0.45852  -0.45761  -0.44892
 Alpha  occ. eigenvalues --   -0.44501  -0.44095  -0.43372  -0.43077  -0.42610
 Alpha  occ. eigenvalues --   -0.42385  -0.41878  -0.41779  -0.41728  -0.41509
 Alpha  occ. eigenvalues --   -0.41351  -0.41239  -0.40891  -0.40708  -0.40571
 Alpha  occ. eigenvalues --   -0.40247  -0.40143  -0.39888  -0.39584  -0.39364
 Alpha  occ. eigenvalues --   -0.39235  -0.39036  -0.38777  -0.38500  -0.38304
 Alpha  occ. eigenvalues --   -0.38214  -0.37979  -0.37963  -0.37788  -0.37441
 Alpha  occ. eigenvalues --   -0.37346  -0.36886  -0.36737  -0.36661  -0.36473
 Alpha  occ. eigenvalues --   -0.36156  -0.36018  -0.35815  -0.35556  -0.35451
 Alpha  occ. eigenvalues --   -0.35252  -0.35214  -0.35024  -0.34847  -0.34775
 Alpha  occ. eigenvalues --   -0.34713  -0.34249  -0.34035  -0.33952  -0.33792
 Alpha  occ. eigenvalues --   -0.33763  -0.33720  -0.33659  -0.33532  -0.33468
 Alpha  occ. eigenvalues --   -0.33295  -0.33045  -0.32746  -0.32606  -0.32246
 Alpha  occ. eigenvalues --   -0.32189  -0.31858  -0.31705  -0.31564  -0.31389
 Alpha  occ. eigenvalues --   -0.31285  -0.31212  -0.31062  -0.30928  -0.30853
 Alpha  occ. eigenvalues --   -0.30599  -0.30310  -0.30110  -0.30093  -0.29788
 Alpha  occ. eigenvalues --   -0.29674  -0.29422  -0.29285  -0.29243  -0.28879
 Alpha  occ. eigenvalues --   -0.28831  -0.28564  -0.28502  -0.28323  -0.28238
 Alpha  occ. eigenvalues --   -0.28079  -0.27539  -0.27279  -0.27264  -0.26407
 Alpha  occ. eigenvalues --   -0.26286  -0.26055  -0.26002  -0.25780  -0.25682
 Alpha  occ. eigenvalues --   -0.25646  -0.24998  -0.24762  -0.23931  -0.23561
 Alpha  occ. eigenvalues --   -0.23289  -0.22514  -0.22120  -0.21382  -0.21230
 Alpha  occ. eigenvalues --   -0.19701  -0.19140  -0.19124  -0.17837  -0.17715
 Alpha  occ. eigenvalues --   -0.16287
 Alpha virt. eigenvalues --   -0.11921  -0.07746  -0.06664  -0.04958  -0.03621
 Alpha virt. eigenvalues --   -0.03379  -0.02305  -0.01607  -0.01333   0.00033
 Alpha virt. eigenvalues --    0.00956   0.01126   0.01781   0.02392   0.02468

 Mulliken charges:
               1
     1  Mg   0.659446
     2  C    0.009194
     3  C   -0.071423
     4  C   -0.032793
     5  C   -0.093538
     6  N   -0.231195
     7  C   -0.061035
     8  C    0.039030
     9  C    0.027200
    10  C    0.002079
    11  C    0.133435
    12  C    0.153281
    13  C    0.094335
    14  C    0.062706
    15  O   -0.203737
    16  O   -0.267907
    17  N   -0.305827
    18  C    0.193678
    19  C   -0.110347
    20  C    0.067143
    21  C    0.142489
    22  C    0.173222
    23  C   -0.120751
    24  O   -0.199986
    25  C    0.148534
    26  N   -0.162501
    27  C   -0.047735
    28  C   -0.000926
    29  C   -0.004275
    30  C    0.085673
    31  C    0.132229
    32  C    0.145451
    33  C    0.039220
    34  N   -0.272207
    35  C    0.103409
    36  C   -0.177398
    37  C    0.145099
    38  C    0.093143
    39  C    0.129683
    40  C   -0.057572
    41  O   -0.127381
    42  C    0.045582
    43  C    0.119544
    44  O   -0.144946
    45  O   -0.281852
    46  C    0.225468
    47  C    0.323568
    48  C   -0.147445
    49  C   -0.117368
    50  C    0.165029
    51  C    0.114551
    52  C    0.105549
    53  C    0.059716
    54  C   -0.100960
    55  C    0.099801
    56  C    0.105145
    57  C    0.053069
    58  C    0.104886
    59  C   -0.075367
    60  C    0.139438
    61  C    0.108718
    62  C    0.041407
    63  C    0.102523
    64  C   -0.124301
    65  C    0.138057
    66  C    0.141151
    67  H   -0.071663
    68  H   -0.079645
    69  H   -0.063130
    70  H   -0.025725
    71  H   -0.026933
    72  H   -0.007175
    73  H   -0.008294
    74  H   -0.005315
    75  H   -0.032648
    76  H    0.006524
    77  H    0.012762
    78  H   -0.018344
    79  H    0.001407
    80  H   -0.025005
    81  H   -0.000971
    82  H   -0.002816
    83  H    0.010080
    84  H   -0.003665
    85  H   -0.039750
    86  H   -0.030565
    87  H   -0.004973
    88  H   -0.001130
    89  H   -0.024744
    90  H   -0.015444
    91  H   -0.011219
    92  H   -0.010598
    93  H   -0.005087
    94  H   -0.003967
    95  H   -0.002986
    96  H    0.002730
    97  H    0.004861
    98  H   -0.016482
    99  H   -0.014439
   100  H    0.010185
   101  H    0.028005
   102  H    0.013838
   103  H    0.012797
   104  H   -0.024650
   105  H    0.006332
   106  H   -0.000744
   107  H   -0.007593
   108  H   -0.045517
   109  H   -0.037078
   110  H   -0.030127
   111  H   -0.015147
   112  H   -0.035835
   113  H   -0.037956
   114  H   -0.022568
   115  H   -0.017743
   116  H   -0.001806
   117  H   -0.029072
   118  H   -0.050134
   119  H   -0.028812
   120  H   -0.023569
   121  H   -0.024048
   122  H   -0.038282
   123  H   -0.034543
   124  H   -0.040260
   125  H   -0.041101
   126  H   -0.025307
   127  H   -0.002140
   128  H   -0.028407
   129  H   -0.045917
   130  H   -0.027247
   131  H   -0.021738
   132  H   -0.040164
   133  H   -0.037595
   134  H   -0.037794
   135  H   -0.017267
   136  H   -0.030636
   137  H   -0.019423
   138  H   -0.040176
   139  H   -0.003431
   140  H   -0.025091
 Sum of Mulliken charges =  -0.00000

 Dipole moment (field-independent basis, Debye):
    X=              0.3420    Y=             -2.2123    Z=              1.0522  Tot=              2.4735
 Quadrupole moment (field-independent basis, Debye-Ang):
   XX=           -390.1962   YY=           -418.1031   ZZ=           -424.4321
   XY=              3.7574   XZ=             -1.2288   YZ=            -46.2635

 Normal termination of Gaussian 16 at Thu May  5 15:45:38 2022.
