 Gaussian 16, Revision A.03,
 Gaussian 16:  ES64L-G16RevA.03 25-Dec-2016

 -----------------------------------
 #p cam-b3lyp/Def2SVP td=(nstates=5)
 -----------------------------------

 ------------------------------------------------------
 step_951_chromophore_8 TDDFT with cam-b3lyp functional
 ------------------------------------------------------
 Symbolic Z-matrix:
 Charge =  0 Multiplicity = 1

                         Standard orientation:
 ---------------------------------------------------------------------
 Center     Atomic      Atomic             Coordinates (Angstroms)
 Number     Number       Type             X           Y           Z
 ---------------------------------------------------------------------
      1         12           0       -4.531264   -1.094844    0.112514
      2          6           0       -3.757198    2.085536    0.843679
      3          6           0       -4.512190   -0.393718   -3.236510
      4          6           0       -4.876358   -4.493419   -0.575965
      5          6           0       -4.325747   -1.889276    3.475345
      6          7           0       -4.054902    0.608772   -1.078757
      7          6           0       -3.787543    1.897645   -0.560949
      8          6           0       -3.658466    2.959375   -1.725909
      9          6           0       -4.249542    2.170151   -2.897543
     10          6           0       -4.228676    0.722635   -2.392664
     11          6           0       -5.583759    2.666434   -3.505927
     12          6           0       -2.233014    3.401332   -1.867990
     13          6           0       -1.974645    4.897486   -1.764822
     14          6           0       -0.567911    5.426677   -1.650347
     15          8           0       -0.142151    6.416214   -2.246304
     16          8           0        0.149539    4.624071   -0.849208
     17          7           0       -4.773843   -2.258193   -1.667117
     18          6           0       -4.824738   -1.713158   -2.942374
     19          6           0       -5.036860   -2.696901   -3.868101
     20          6           0       -5.043236   -4.003257   -3.185237
     21          6           0       -4.873573   -3.662938   -1.727825
     22          6           0       -5.183854   -2.402006   -5.372130
     23          6           0       -5.187346   -5.329111   -3.783467
     24          8           0       -5.029368   -5.476555   -5.009329
     25          6           0       -5.465894   -6.547775   -2.997562
     26          7           0       -4.670102   -2.959596    1.246274
     27          6           0       -4.798342   -4.165568    0.771709
     28          6           0       -5.173200   -5.090268    1.929805
     29          6           0       -4.408322   -4.360228    3.126739
     30          6           0       -4.433274   -2.955200    2.595955
     31          6           0       -6.744668   -5.233637    2.043290
     32          6           0       -3.061003   -5.049276    3.606796
     33          6           0       -3.138718   -5.446264    5.109859
     34          7           0       -3.874310   -0.187782    1.891371
     35          6           0       -4.021448   -0.604890    3.168088
     36          6           0       -3.652033    0.581342    3.979083
     37          6           0       -3.568848    1.633020    3.139374
     38          6           0       -3.862446    1.141805    1.864541
     39          6           0       -3.506723    0.531415    5.565554
     40          6           0       -3.396323    3.032431    3.075593
     41          8           0       -3.225681    3.901729    3.926700
     42          6           0       -3.678719    3.393136    1.594652
     43          6           0       -4.867775    4.309965    1.609108
     44          8           0       -5.933380    4.099501    2.132386
     45          8           0       -4.603076    5.377316    0.746792
     46          6           0       -5.647856    6.266732    0.314120
     47          6           0        1.571349    5.041772   -0.837400
     48          6           0        2.358874    4.096672   -0.003952
     49          6           0        3.717684    4.110045    0.171165
     50          6           0        4.699860    5.178062   -0.207270
     51          6           0        4.341934    2.868580    0.856887
     52          6           0        5.483920    2.065247    0.170788
     53          6           0        5.187429    0.607474    0.194663
     54          6           0        5.826246   -0.123508   -1.038742
     55          6           0        4.732456   -0.595276   -2.082905
     56          6           0        6.721722   -1.308946   -0.437629
     57          6           0        8.259404   -1.120258   -0.741173
     58          6           0        9.136627   -1.384370    0.520402
     59          6           0       10.544954   -1.864841    0.144434
     60          6           0       10.795103   -3.143335    0.891339
     61          6           0       11.621301   -0.756453    0.318437
     62          6           0       12.826371   -1.119497   -0.605522
     63          6           0       14.186520   -0.664622   -0.028360
     64          6           0       15.296164   -1.805686    0.006973
     65          6           0       16.273770   -1.614424   -1.105015
     66          6           0       15.953137   -1.959536    1.333909
     67          1           0       -4.501512   -0.106225   -4.290310
     68          1           0       -4.938510   -5.578176   -0.684894
     69          1           0       -4.268295   -2.053950    4.553281
     70          1           0       -4.215494    3.826868   -1.373543
     71          1           0       -3.601545    2.190477   -3.773376
     72          1           0       -6.402180    1.963654   -3.352134
     73          1           0       -5.502608    2.727645   -4.591523
     74          1           0       -5.876606    3.630835   -3.089633
     75          1           0       -2.043265    3.265359   -2.932000
     76          1           0       -1.514354    2.846739   -1.264825
     77          1           0       -2.431982    5.290149   -0.856337
     78          1           0       -2.481078    5.375494   -2.603240
     79          1           0       -4.407911   -2.817012   -6.015399
     80          1           0       -5.242218   -1.369846   -5.716348
     81          1           0       -6.081699   -2.913659   -5.717548
     82          1           0       -6.101404   -6.428969   -2.120974
     83          1           0       -4.512369   -6.879999   -2.585394
     84          1           0       -5.851192   -7.326227   -3.656921
     85          1           0       -4.757553   -6.068564    1.686742
     86          1           0       -5.046959   -4.336116    4.009973
     87          1           0       -7.158310   -6.237723    2.135817
     88          1           0       -7.366488   -4.692072    1.330758
     89          1           0       -7.057558   -4.793676    2.989922
     90          1           0       -2.338069   -4.251408    3.440615
     91          1           0       -2.849250   -5.936366    3.007894
     92          1           0       -4.156833   -5.674703    5.423743
     93          1           0       -2.876938   -4.596785    5.740417
     94          1           0       -2.524298   -6.301078    5.393539
     95          1           0       -4.239457   -0.189460    5.926903
     96          1           0       -3.708934    1.477845    6.068907
     97          1           0       -2.516643    0.288641    5.950435
     98          1           0       -2.883663    3.992609    1.149596
     99          1           0       -6.289742    5.723340   -0.379933
    100          1           0       -5.236157    7.005325   -0.374691
    101          1           0       -6.349718    6.718779    1.015043
    102          1           0        1.604579    6.013413   -0.344172
    103          1           0        1.876943    4.991893   -1.882623
    104          1           0        1.766567    3.273132    0.394925
    105          1           0        4.290127    6.176770   -0.357315
    106          1           0        5.013214    4.710003   -1.141164
    107          1           0        5.649776    5.220979    0.324441
    108          1           0        3.632567    2.126425    1.223355
    109          1           0        4.681806    3.195874    1.839868
    110          1           0        6.299114    2.120209    0.892570
    111          1           0        5.741524    2.332569   -0.854867
    112          1           0        4.139282    0.307841    0.175316
    113          1           0        5.435785    0.263885    1.199588
    114          1           0        6.401298    0.559276   -1.665532
    115          1           0        3.893233    0.097051   -2.027526
    116          1           0        4.438197   -1.643578   -2.133409
    117          1           0        5.174574   -0.368784   -3.053523
    118          1           0        6.348866   -2.213720   -0.918244
    119          1           0        6.531470   -1.518112    0.614156
    120          1           0        8.331807   -0.074172   -1.036986
    121          1           0        8.490799   -1.792751   -1.566906
    122          1           0        8.665488   -2.146205    1.140323
    123          1           0        9.055425   -0.466244    1.103086
    124          1           0       10.520492   -2.107790   -0.918822
    125          1           0       11.848010   -3.354313    1.075574
    126          1           0       10.631790   -3.932468    0.157929
    127          1           0       10.244508   -3.194456    1.831192
    128          1           0       11.918649   -0.508026    1.337035
    129          1           0       11.277955    0.150705   -0.177931
    130          1           0       12.615545   -0.573286   -1.525344
    131          1           0       12.810137   -2.198727   -0.757474
    132          1           0       14.152220   -0.310689    1.002223
    133          1           0       14.456084    0.189671   -0.647999
    134          1           0       14.717474   -2.715209   -0.158341
    135          1           0       16.173567   -2.302276   -1.943583
    136          1           0       17.248055   -1.762043   -0.637928
    137          1           0       16.193817   -0.609357   -1.519361
    138          1           0       15.415037   -1.433200    2.122399
    139          1           0       17.002851   -1.664918    1.341664
    140          1           0       15.674919   -2.957563    1.674001
 ---------------------------------------------------------------------

 SCF Done:  E(RCAM-B3LYP) =  -3007.11129804     A.U. after   18 cycles

 Excitation energies and oscillator strengths:

 Excited State   1:      Singlet-A      1.7143 eV  723.24 nm  f=0.3563  <S**2>=0.000
     245 -> 248       -0.19061
     246 -> 247        0.68237
     245 <- 248       -0.10968
 This state for optimization and/or second-order correction.
 Total Energy, E(TD-HF/TD-DFT) =  -3007.04829867
 Copying the excited state density for this state as the 1-particle RhoCI density.

 Excited State   2:      Singlet-A      2.2499 eV  551.07 nm  f=0.0601  <S**2>=0.000
     245 -> 247        0.61038
     246 -> 248        0.33946

 Excited State   3:      Singlet-A      3.0658 eV  404.41 nm  f=0.0022  <S**2>=0.000
     243 -> 247        0.67711
     246 -> 248       -0.12586

 Excited State   4:      Singlet-A      3.3593 eV  369.08 nm  f=0.0159  <S**2>=0.000
     242 -> 247        0.55993
     242 -> 248       -0.13227
     242 -> 249        0.23701
     242 -> 250       -0.17645
     242 -> 251        0.19135
     246 -> 248       -0.11050

 Excited State   5:      Singlet-A      3.4489 eV  359.49 nm  f=0.7140  <S**2>=0.000
     239 -> 247        0.10577
     240 -> 247        0.12530
     240 -> 249       -0.10145
     241 -> 247       -0.12495
     245 -> 247       -0.32141
     246 -> 248        0.55804
     245 <- 247        0.10545

 The electronic state is 1-A.
 Alpha  occ. eigenvalues --  -46.89334 -19.25767 -19.25522 -19.20836 -19.19204
 Alpha  occ. eigenvalues --  -19.19113 -19.17446 -14.43403 -14.41872 -14.39540
 Alpha  occ. eigenvalues --  -14.39344 -10.40142 -10.39021 -10.34759 -10.33898
 Alpha  occ. eigenvalues --  -10.32298 -10.32247 -10.31806 -10.31733 -10.31575
 Alpha  occ. eigenvalues --  -10.31201 -10.30752 -10.29760 -10.29273 -10.28977
 Alpha  occ. eigenvalues --  -10.28944 -10.28877 -10.28819 -10.28667 -10.28593
 Alpha  occ. eigenvalues --  -10.28531 -10.28113 -10.27889 -10.27727 -10.27484
 Alpha  occ. eigenvalues --  -10.27456 -10.27362 -10.27056 -10.27050 -10.26984
 Alpha  occ. eigenvalues --  -10.26826 -10.26795 -10.26651 -10.26606 -10.26326
 Alpha  occ. eigenvalues --  -10.26156 -10.26130 -10.25770 -10.25593 -10.25431
 Alpha  occ. eigenvalues --  -10.25429 -10.25174 -10.25021 -10.24940 -10.24792
 Alpha  occ. eigenvalues --  -10.24680 -10.24625 -10.24610 -10.24418 -10.24345
 Alpha  occ. eigenvalues --  -10.24311 -10.24192 -10.24146 -10.24102 -10.23896
 Alpha  occ. eigenvalues --  -10.23676  -3.17771  -1.92685  -1.92208  -1.92081
 Alpha  occ. eigenvalues --   -1.17177  -1.16769  -1.09835  -1.09023  -1.08028
 Alpha  occ. eigenvalues --   -1.07353  -1.06048  -1.05222  -1.04361  -1.01548
 Alpha  occ. eigenvalues --   -0.94183  -0.91223  -0.90279  -0.89781  -0.89654
 Alpha  occ. eigenvalues --   -0.88563  -0.88296  -0.87969  -0.87869  -0.86758
 Alpha  occ. eigenvalues --   -0.86356  -0.85198  -0.84772  -0.84369  -0.83715
 Alpha  occ. eigenvalues --   -0.82852  -0.82506  -0.81807  -0.81673  -0.80749
 Alpha  occ. eigenvalues --   -0.80037  -0.78855  -0.78239  -0.77345  -0.76535
 Alpha  occ. eigenvalues --   -0.75886  -0.75770  -0.75607  -0.74760  -0.73912
 Alpha  occ. eigenvalues --   -0.73618  -0.73081  -0.72563  -0.70947  -0.70187
 Alpha  occ. eigenvalues --   -0.69739  -0.68028  -0.67545  -0.66587  -0.66408
 Alpha  occ. eigenvalues --   -0.65849  -0.65541  -0.65252  -0.64690  -0.64161
 Alpha  occ. eigenvalues --   -0.63534  -0.63397  -0.63228  -0.62537  -0.60908
 Alpha  occ. eigenvalues --   -0.60203  -0.59856  -0.59320  -0.59210  -0.58569
 Alpha  occ. eigenvalues --   -0.57957  -0.57513  -0.56568  -0.56344  -0.55928
 Alpha  occ. eigenvalues --   -0.55528  -0.55091  -0.54932  -0.54582  -0.54235
 Alpha  occ. eigenvalues --   -0.54153  -0.53964  -0.53664  -0.53481  -0.53153
 Alpha  occ. eigenvalues --   -0.52866  -0.52717  -0.52498  -0.52326  -0.52113
 Alpha  occ. eigenvalues --   -0.51809  -0.51793  -0.51689  -0.51153  -0.50638
 Alpha  occ. eigenvalues --   -0.50616  -0.50260  -0.50196  -0.49963  -0.49931
 Alpha  occ. eigenvalues --   -0.49685  -0.49379  -0.49235  -0.48918  -0.48720
 Alpha  occ. eigenvalues --   -0.48686  -0.48330  -0.47961  -0.47573  -0.47468
 Alpha  occ. eigenvalues --   -0.47344  -0.47134  -0.46934  -0.46780  -0.46726
 Alpha  occ. eigenvalues --   -0.46538  -0.46419  -0.46189  -0.45784  -0.45638
 Alpha  occ. eigenvalues --   -0.45436  -0.45425  -0.45373  -0.45313  -0.45223
 Alpha  occ. eigenvalues --   -0.45025  -0.44710  -0.44557  -0.44237  -0.43866
 Alpha  occ. eigenvalues --   -0.43733  -0.43396  -0.43260  -0.43177  -0.43012
 Alpha  occ. eigenvalues --   -0.42945  -0.42743  -0.42655  -0.42496  -0.42381
 Alpha  occ. eigenvalues --   -0.42207  -0.41836  -0.41330  -0.41273  -0.41067
 Alpha  occ. eigenvalues --   -0.40820  -0.40632  -0.40417  -0.40327  -0.40244
 Alpha  occ. eigenvalues --   -0.39889  -0.39705  -0.39622  -0.39209  -0.39181
 Alpha  occ. eigenvalues --   -0.38988  -0.38461  -0.38100  -0.38090  -0.37495
 Alpha  occ. eigenvalues --   -0.37342  -0.37285  -0.37088  -0.37027  -0.36747
 Alpha  occ. eigenvalues --   -0.36377  -0.35580  -0.35373  -0.34749  -0.34117
 Alpha  occ. eigenvalues --   -0.34018  -0.33564  -0.32764  -0.32047  -0.31014
 Alpha  occ. eigenvalues --   -0.30771  -0.30407  -0.28911  -0.28678  -0.24727
 Alpha  occ. eigenvalues --   -0.21570
 Alpha virt. eigenvalues --   -0.08966  -0.02818  -0.00170   0.01848   0.02017
 Alpha virt. eigenvalues --    0.04237   0.04878   0.05567   0.06193   0.06364
 Alpha virt. eigenvalues --    0.07689   0.08000   0.08471   0.08620   0.08701

 Mulliken charges:
               1
     1  Mg   0.792622
     2  C   -0.021014
     3  C   -0.084627
     4  C   -0.063204
     5  C   -0.100230
     6  N   -0.300204
     7  C   -0.028362
     8  C   -0.005029
     9  C   -0.031383
    10  C    0.022810
    11  C    0.076870
    12  C    0.098092
    13  C    0.026794
    14  C    0.147433
    15  O   -0.246488
    16  O   -0.330865
    17  N   -0.393407
    18  C    0.200418
    19  C   -0.114805
    20  C   -0.005839
    21  C    0.176920
    22  C    0.119602
    23  C   -0.042901
    24  O   -0.240226
    25  C    0.061200
    26  N   -0.236008
    27  C   -0.018532
    28  C   -0.053769
    29  C   -0.061768
    30  C    0.101769
    31  C    0.072531
    32  C    0.089899
    33  C   -0.022328
    34  N   -0.354396
    35  C    0.102235
    36  C   -0.166853
    37  C    0.060293
    38  C    0.129016
    39  C    0.087030
    40  C    0.041241
    41  O   -0.166436
    42  C   -0.030912
    43  C    0.214717
    44  O   -0.181601
    45  O   -0.350029
    46  C    0.185602
    47  C    0.288898
    48  C   -0.166429
    49  C   -0.139727
    50  C    0.096569
    51  C    0.062208
    52  C    0.042364
    53  C    0.010156
    54  C   -0.158058
    55  C    0.043851
    56  C    0.053806
    57  C    0.003632
    58  C    0.051077
    59  C   -0.137159
    60  C    0.076528
    61  C    0.058948
    62  C   -0.008410
    63  C    0.050470
    64  C   -0.184109
    65  C    0.077768
    66  C    0.075861
    67  H   -0.034770
    68  H   -0.044011
    69  H   -0.028960
    70  H    0.007584
    71  H    0.009778
    72  H    0.019597
    73  H    0.016010
    74  H    0.018341
    75  H   -0.001713
    76  H    0.039337
    77  H    0.039418
    78  H    0.014698
    79  H    0.031622
    80  H    0.001934
    81  H    0.026597
    82  H    0.026250
    83  H    0.038375
    84  H    0.032467
    85  H   -0.005467
    86  H    0.004495
    87  H    0.020027
    88  H    0.024772
    89  H    0.000393
    90  H    0.014511
    91  H    0.016063
    92  H    0.011918
    93  H    0.016914
    94  H    0.021006
    95  H    0.018229
    96  H    0.030230
    97  H    0.030097
    98  H    0.027659
    99  H    0.006226
   100  H    0.033089
   101  H    0.052054
   102  H    0.041811
   103  H    0.041394
   104  H    0.010506
   105  H    0.031267
   106  H    0.022453
   107  H    0.020357
   108  H   -0.013577
   109  H   -0.006182
   110  H   -0.000219
   111  H    0.010262
   112  H   -0.006961
   113  H   -0.009150
   114  H    0.006984
   115  H    0.006532
   116  H    0.021276
   117  H   -0.004664
   118  H   -0.020312
   119  H   -0.001417
   120  H    0.001999
   121  H    0.003122
   122  H   -0.008823
   123  H   -0.006109
   124  H   -0.006845
   125  H   -0.016457
   126  H    0.000641
   127  H    0.021783
   128  H   -0.000784
   129  H   -0.016123
   130  H    0.001161
   131  H    0.001768
   132  H   -0.012570
   133  H   -0.008767
   134  H   -0.005925
   135  H    0.007585
   136  H   -0.006393
   137  H    0.004081
   138  H   -0.013564
   139  H    0.020528
   140  H    0.000440
 Sum of Mulliken charges =  -0.00000

 Dipole moment (field-independent basis, Debye):
    X=              0.0888    Y=             -2.5515    Z=              0.8231  Tot=              2.6825
 Quadrupole moment (field-independent basis, Debye-Ang):
   XX=           -388.7076   YY=           -415.6018   ZZ=           -422.6317
   XY=              5.4491   XZ=              0.9436   YZ=            -47.2436

 Normal termination of Gaussian 16 at Thu May  5 14:51:49 2022.
