 Gaussian 16, Revision A.03,
 Gaussian 16:  ES64L-G16RevA.03 25-Dec-2016

 ---------------------------------
 #p PBE1PBE/Def2SVP td=(nstates=5)
 ---------------------------------

 ----------------------------------------------------
 step_951_chromophore_8 TDDFT with PBE1PBE functional
 ----------------------------------------------------
 Symbolic Z-matrix:
 Charge =  0 Multiplicity = 1

                         Standard orientation:
 ---------------------------------------------------------------------
 Center     Atomic      Atomic             Coordinates (Angstroms)
 Number     Number       Type             X           Y           Z
 ---------------------------------------------------------------------
      1         12           0       -4.531264   -1.094844    0.112514
      2          6           0       -3.757198    2.085536    0.843679
      3          6           0       -4.512190   -0.393718   -3.236510
      4          6           0       -4.876358   -4.493419   -0.575965
      5          6           0       -4.325747   -1.889276    3.475345
      6          7           0       -4.054902    0.608772   -1.078757
      7          6           0       -3.787543    1.897645   -0.560949
      8          6           0       -3.658466    2.959375   -1.725909
      9          6           0       -4.249542    2.170151   -2.897543
     10          6           0       -4.228676    0.722635   -2.392664
     11          6           0       -5.583759    2.666434   -3.505927
     12          6           0       -2.233014    3.401332   -1.867990
     13          6           0       -1.974645    4.897486   -1.764822
     14          6           0       -0.567911    5.426677   -1.650347
     15          8           0       -0.142151    6.416214   -2.246304
     16          8           0        0.149539    4.624071   -0.849208
     17          7           0       -4.773843   -2.258193   -1.667117
     18          6           0       -4.824738   -1.713158   -2.942374
     19          6           0       -5.036860   -2.696901   -3.868101
     20          6           0       -5.043236   -4.003257   -3.185237
     21          6           0       -4.873573   -3.662938   -1.727825
     22          6           0       -5.183854   -2.402006   -5.372130
     23          6           0       -5.187346   -5.329111   -3.783467
     24          8           0       -5.029368   -5.476555   -5.009329
     25          6           0       -5.465894   -6.547775   -2.997562
     26          7           0       -4.670102   -2.959596    1.246274
     27          6           0       -4.798342   -4.165568    0.771709
     28          6           0       -5.173200   -5.090268    1.929805
     29          6           0       -4.408322   -4.360228    3.126739
     30          6           0       -4.433274   -2.955200    2.595955
     31          6           0       -6.744668   -5.233637    2.043290
     32          6           0       -3.061003   -5.049276    3.606796
     33          6           0       -3.138718   -5.446264    5.109859
     34          7           0       -3.874310   -0.187782    1.891371
     35          6           0       -4.021448   -0.604890    3.168088
     36          6           0       -3.652033    0.581342    3.979083
     37          6           0       -3.568848    1.633020    3.139374
     38          6           0       -3.862446    1.141805    1.864541
     39          6           0       -3.506723    0.531415    5.565554
     40          6           0       -3.396323    3.032431    3.075593
     41          8           0       -3.225681    3.901729    3.926700
     42          6           0       -3.678719    3.393136    1.594652
     43          6           0       -4.867775    4.309965    1.609108
     44          8           0       -5.933380    4.099501    2.132386
     45          8           0       -4.603076    5.377316    0.746792
     46          6           0       -5.647856    6.266732    0.314120
     47          6           0        1.571349    5.041772   -0.837400
     48          6           0        2.358874    4.096672   -0.003952
     49          6           0        3.717684    4.110045    0.171165
     50          6           0        4.699860    5.178062   -0.207270
     51          6           0        4.341934    2.868580    0.856887
     52          6           0        5.483920    2.065247    0.170788
     53          6           0        5.187429    0.607474    0.194663
     54          6           0        5.826246   -0.123508   -1.038742
     55          6           0        4.732456   -0.595276   -2.082905
     56          6           0        6.721722   -1.308946   -0.437629
     57          6           0        8.259404   -1.120258   -0.741173
     58          6           0        9.136627   -1.384370    0.520402
     59          6           0       10.544954   -1.864841    0.144434
     60          6           0       10.795103   -3.143335    0.891339
     61          6           0       11.621301   -0.756453    0.318437
     62          6           0       12.826371   -1.119497   -0.605522
     63          6           0       14.186520   -0.664622   -0.028360
     64          6           0       15.296164   -1.805686    0.006973
     65          6           0       16.273770   -1.614424   -1.105015
     66          6           0       15.953137   -1.959536    1.333909
     67          1           0       -4.501512   -0.106225   -4.290310
     68          1           0       -4.938510   -5.578176   -0.684894
     69          1           0       -4.268295   -2.053950    4.553281
     70          1           0       -4.215494    3.826868   -1.373543
     71          1           0       -3.601545    2.190477   -3.773376
     72          1           0       -6.402180    1.963654   -3.352134
     73          1           0       -5.502608    2.727645   -4.591523
     74          1           0       -5.876606    3.630835   -3.089633
     75          1           0       -2.043265    3.265359   -2.932000
     76          1           0       -1.514354    2.846739   -1.264825
     77          1           0       -2.431982    5.290149   -0.856337
     78          1           0       -2.481078    5.375494   -2.603240
     79          1           0       -4.407911   -2.817012   -6.015399
     80          1           0       -5.242218   -1.369846   -5.716348
     81          1           0       -6.081699   -2.913659   -5.717548
     82          1           0       -6.101404   -6.428969   -2.120974
     83          1           0       -4.512369   -6.879999   -2.585394
     84          1           0       -5.851192   -7.326227   -3.656921
     85          1           0       -4.757553   -6.068564    1.686742
     86          1           0       -5.046959   -4.336116    4.009973
     87          1           0       -7.158310   -6.237723    2.135817
     88          1           0       -7.366488   -4.692072    1.330758
     89          1           0       -7.057558   -4.793676    2.989922
     90          1           0       -2.338069   -4.251408    3.440615
     91          1           0       -2.849250   -5.936366    3.007894
     92          1           0       -4.156833   -5.674703    5.423743
     93          1           0       -2.876938   -4.596785    5.740417
     94          1           0       -2.524298   -6.301078    5.393539
     95          1           0       -4.239457   -0.189460    5.926903
     96          1           0       -3.708934    1.477845    6.068907
     97          1           0       -2.516643    0.288641    5.950435
     98          1           0       -2.883663    3.992609    1.149596
     99          1           0       -6.289742    5.723340   -0.379933
    100          1           0       -5.236157    7.005325   -0.374691
    101          1           0       -6.349718    6.718779    1.015043
    102          1           0        1.604579    6.013413   -0.344172
    103          1           0        1.876943    4.991893   -1.882623
    104          1           0        1.766567    3.273132    0.394925
    105          1           0        4.290127    6.176770   -0.357315
    106          1           0        5.013214    4.710003   -1.141164
    107          1           0        5.649776    5.220979    0.324441
    108          1           0        3.632567    2.126425    1.223355
    109          1           0        4.681806    3.195874    1.839868
    110          1           0        6.299114    2.120209    0.892570
    111          1           0        5.741524    2.332569   -0.854867
    112          1           0        4.139282    0.307841    0.175316
    113          1           0        5.435785    0.263885    1.199588
    114          1           0        6.401298    0.559276   -1.665532
    115          1           0        3.893233    0.097051   -2.027526
    116          1           0        4.438197   -1.643578   -2.133409
    117          1           0        5.174574   -0.368784   -3.053523
    118          1           0        6.348866   -2.213720   -0.918244
    119          1           0        6.531470   -1.518112    0.614156
    120          1           0        8.331807   -0.074172   -1.036986
    121          1           0        8.490799   -1.792751   -1.566906
    122          1           0        8.665488   -2.146205    1.140323
    123          1           0        9.055425   -0.466244    1.103086
    124          1           0       10.520492   -2.107790   -0.918822
    125          1           0       11.848010   -3.354313    1.075574
    126          1           0       10.631790   -3.932468    0.157929
    127          1           0       10.244508   -3.194456    1.831192
    128          1           0       11.918649   -0.508026    1.337035
    129          1           0       11.277955    0.150705   -0.177931
    130          1           0       12.615545   -0.573286   -1.525344
    131          1           0       12.810137   -2.198727   -0.757474
    132          1           0       14.152220   -0.310689    1.002223
    133          1           0       14.456084    0.189671   -0.647999
    134          1           0       14.717474   -2.715209   -0.158341
    135          1           0       16.173567   -2.302276   -1.943583
    136          1           0       17.248055   -1.762043   -0.637928
    137          1           0       16.193817   -0.609357   -1.519361
    138          1           0       15.415037   -1.433200    2.122399
    139          1           0       17.002851   -1.664918    1.341664
    140          1           0       15.674919   -2.957563    1.674001
 ---------------------------------------------------------------------

 SCF Done:  E(RPBE1PBE) =  -3005.30072154     A.U. after   16 cycles

 Excitation energies and oscillator strengths:

 Excited State   1:      Singlet-A      1.8643 eV  665.06 nm  f=0.3419  <S**2>=0.000
     245 -> 248       -0.18465
     246 -> 247        0.68900
     246 <- 247       -0.10028
 This state for optimization and/or second-order correction.
 Total Energy, E(TD-HF/TD-DFT) =  -3005.23221149
 Copying the excited state density for this state as the 1-particle RhoCI density.

 Excited State   2:      Singlet-A      2.2510 eV  550.79 nm  f=0.0674  <S**2>=0.000
     245 -> 247        0.62717
     246 -> 248        0.30388

 Excited State   3:      Singlet-A      2.7033 eV  458.63 nm  f=0.0048  <S**2>=0.000
     242 -> 247       -0.17674
     243 -> 247        0.66172

 Excited State   4:      Singlet-A      2.8513 eV  434.83 nm  f=0.0016  <S**2>=0.000
     242 -> 247        0.65079
     243 -> 247        0.19131

 Excited State   5:      Singlet-A      3.0096 eV  411.97 nm  f=0.0000  <S**2>=0.000
     244 -> 247        0.70693

 The electronic state is 1-A.
 Alpha  occ. eigenvalues --  -46.92691 -19.26431 -19.26204 -19.21020 -19.19548
 Alpha  occ. eigenvalues --  -19.19364 -19.17648 -14.42842 -14.41409 -14.39184
 Alpha  occ. eigenvalues --  -14.39019 -10.37150 -10.36075 -10.31903 -10.30968
 Alpha  occ. eigenvalues --  -10.30131 -10.29520 -10.29381 -10.29189 -10.29169
 Alpha  occ. eigenvalues --  -10.28962 -10.28362 -10.27517 -10.26825 -10.26764
 Alpha  occ. eigenvalues --  -10.26748 -10.26660 -10.26580 -10.26509 -10.26394
 Alpha  occ. eigenvalues --  -10.26054 -10.25771 -10.25728 -10.25369 -10.25104
 Alpha  occ. eigenvalues --  -10.25068 -10.25018 -10.24748 -10.24513 -10.24507
 Alpha  occ. eigenvalues --  -10.24477 -10.24439 -10.24146 -10.24099 -10.23927
 Alpha  occ. eigenvalues --  -10.23697 -10.23583 -10.23150 -10.22992 -10.22956
 Alpha  occ. eigenvalues --  -10.22858 -10.22709 -10.22707 -10.22638 -10.22342
 Alpha  occ. eigenvalues --  -10.22333 -10.22224 -10.22019 -10.21967 -10.21896
 Alpha  occ. eigenvalues --  -10.21875 -10.21764 -10.21691 -10.21527 -10.21289
 Alpha  occ. eigenvalues --  -10.21041  -3.14714  -1.87568  -1.87069  -1.86945
 Alpha  occ. eigenvalues --   -1.12017  -1.11521  -1.04588  -1.03843  -1.02711
 Alpha  occ. eigenvalues --   -1.02243  -1.00767  -0.99901  -0.98947  -0.96125
 Alpha  occ. eigenvalues --   -0.88588  -0.85487  -0.84394  -0.83997  -0.83878
 Alpha  occ. eigenvalues --   -0.82697  -0.82586  -0.82193  -0.82088  -0.81096
 Alpha  occ. eigenvalues --   -0.80654  -0.79438  -0.79053  -0.78569  -0.77933
 Alpha  occ. eigenvalues --   -0.77076  -0.76700  -0.76134  -0.75873  -0.75010
 Alpha  occ. eigenvalues --   -0.74181  -0.73123  -0.72597  -0.71621  -0.70819
 Alpha  occ. eigenvalues --   -0.70063  -0.69890  -0.69875  -0.68888  -0.68166
 Alpha  occ. eigenvalues --   -0.67973  -0.67458  -0.66963  -0.65255  -0.64564
 Alpha  occ. eigenvalues --   -0.64181  -0.62480  -0.61789  -0.61018  -0.60873
 Alpha  occ. eigenvalues --   -0.60132  -0.60069  -0.59788  -0.58891  -0.58350
 Alpha  occ. eigenvalues --   -0.57913  -0.57807  -0.57589  -0.56729  -0.55378
 Alpha  occ. eigenvalues --   -0.54799  -0.54402  -0.53869  -0.53800  -0.52999
 Alpha  occ. eigenvalues --   -0.52531  -0.51839  -0.51178  -0.50856  -0.50508
 Alpha  occ. eigenvalues --   -0.50080  -0.49539  -0.49528  -0.48988  -0.48735
 Alpha  occ. eigenvalues --   -0.48573  -0.48512  -0.48311  -0.47941  -0.47794
 Alpha  occ. eigenvalues --   -0.47412  -0.47245  -0.46981  -0.46897  -0.46637
 Alpha  occ. eigenvalues --   -0.46412  -0.46301  -0.46248  -0.45508  -0.45237
 Alpha  occ. eigenvalues --   -0.45165  -0.44886  -0.44730  -0.44499  -0.44492
 Alpha  occ. eigenvalues --   -0.44293  -0.44035  -0.43801  -0.43550  -0.43397
 Alpha  occ. eigenvalues --   -0.43263  -0.42865  -0.42558  -0.42243  -0.42106
 Alpha  occ. eigenvalues --   -0.42040  -0.41786  -0.41649  -0.41500  -0.41397
 Alpha  occ. eigenvalues --   -0.41155  -0.41095  -0.40870  -0.40507  -0.40361
 Alpha  occ. eigenvalues --   -0.40200  -0.40135  -0.40012  -0.39986  -0.39919
 Alpha  occ. eigenvalues --   -0.39765  -0.39504  -0.39314  -0.39017  -0.38638
 Alpha  occ. eigenvalues --   -0.38511  -0.38093  -0.37995  -0.37967  -0.37780
 Alpha  occ. eigenvalues --   -0.37730  -0.37562  -0.37492  -0.37313  -0.37234
 Alpha  occ. eigenvalues --   -0.37127  -0.36602  -0.36113  -0.36040  -0.35905
 Alpha  occ. eigenvalues --   -0.35569  -0.35537  -0.35300  -0.35108  -0.35103
 Alpha  occ. eigenvalues --   -0.34688  -0.34609  -0.34427  -0.34185  -0.33954
 Alpha  occ. eigenvalues --   -0.33746  -0.33207  -0.33138  -0.32842  -0.32498
 Alpha  occ. eigenvalues --   -0.32369  -0.32275  -0.32022  -0.31872  -0.31523
 Alpha  occ. eigenvalues --   -0.31179  -0.30416  -0.30356  -0.29958  -0.29565
 Alpha  occ. eigenvalues --   -0.28945  -0.28427  -0.27785  -0.27467  -0.26403
 Alpha  occ. eigenvalues --   -0.26030  -0.25131  -0.24393  -0.23954  -0.21622
 Alpha  occ. eigenvalues --   -0.19234
 Alpha virt. eigenvalues --   -0.11491  -0.06242  -0.04412  -0.02443  -0.01064
 Alpha virt. eigenvalues --   -0.00433   0.00686   0.01168   0.01795   0.02860
 Alpha virt. eigenvalues --    0.03721   0.04173   0.04524   0.05312   0.05398

 Mulliken charges:
               1
     1  Mg   0.938477
     2  C   -0.042480
     3  C   -0.079170
     4  C   -0.069125
     5  C   -0.093916
     6  N   -0.405269
     7  C    0.037345
     8  C   -0.086139
     9  C   -0.107747
    10  C    0.065176
    11  C    0.021700
    12  C    0.053493
    13  C   -0.055511
    14  C    0.216883
    15  O   -0.280370
    16  O   -0.361522
    17  N   -0.503914
    18  C    0.222113
    19  C   -0.140845
    20  C   -0.058980
    21  C    0.214101
    22  C    0.067126
    23  C    0.004053
    24  O   -0.274232
    25  C   -0.013160
    26  N   -0.337701
    27  C    0.026382
    28  C   -0.135232
    29  C   -0.132904
    30  C    0.133382
    31  C    0.019107
    32  C    0.030120
    33  C   -0.096402
    34  N   -0.468117
    35  C    0.118982
    36  C   -0.167816
    37  C   -0.001280
    38  C    0.183238
    39  C    0.038708
    40  C    0.136013
    41  O   -0.213273
    42  C   -0.142779
    43  C    0.311823
    44  O   -0.218612
    45  O   -0.384803
    46  C    0.130338
    47  C    0.249483
    48  C   -0.175500
    49  C   -0.191856
    50  C    0.034125
    51  C    0.009983
    52  C   -0.030586
    53  C   -0.036358
    54  C   -0.242292
    55  C   -0.016494
    56  C    0.005806
    57  C   -0.062138
    58  C   -0.000329
    59  C   -0.229893
    60  C    0.016659
    61  C    0.006791
    62  C   -0.073455
    63  C    0.000478
    64  C   -0.278495
    65  C    0.019148
    66  C    0.015118
    67  H   -0.002364
    68  H   -0.010580
    69  H    0.003098
    70  H    0.052334
    71  H    0.046306
    72  H    0.047583
    73  H    0.042327
    74  H    0.045317
    75  H    0.034579
    76  H    0.070016
    77  H    0.074789
    78  H    0.047389
    79  H    0.058217
    80  H    0.027199
    81  H    0.054057
    82  H    0.052005
    83  H    0.065759
    84  H    0.059969
    85  H    0.030849
    86  H    0.041786
    87  H    0.047207
    88  H    0.051968
    89  H    0.028162
    90  H    0.048663
    91  H    0.047876
    92  H    0.039237
    93  H    0.044741
    94  H    0.048930
    95  H    0.044110
    96  H    0.057639
    97  H    0.057392
    98  H    0.069248
    99  H    0.028538
   100  H    0.054662
   101  H    0.073477
   102  H    0.068236
   103  H    0.067905
   104  H    0.040141
   105  H    0.057687
   106  H    0.051629
   107  H    0.046945
   108  H    0.017068
   109  H    0.027478
   110  H    0.035016
   111  H    0.041678
   112  H    0.024507
   113  H    0.022042
   114  H    0.041617
   115  H    0.034880
   116  H    0.047201
   117  H    0.023953
   118  H    0.013514
   119  H    0.028831
   120  H    0.035614
   121  H    0.034944
   122  H    0.023880
   123  H    0.026613
   124  H    0.031553
   125  H    0.012513
   126  H    0.029178
   127  H    0.048003
   128  H    0.029743
   129  H    0.019147
   130  H    0.034363
   131  H    0.033629
   132  H    0.018621
   133  H    0.023409
   134  H    0.032895
   135  H    0.035157
   136  H    0.020990
   137  H    0.031008
   138  H    0.013997
   139  H    0.046174
   140  H    0.028301
 Sum of Mulliken charges =  -0.00000

 Dipole moment (field-independent basis, Debye):
    X=              0.0785    Y=             -2.5540    Z=              0.9631  Tot=              2.7307
 Quadrupole moment (field-independent basis, Debye-Ang):
   XX=           -386.3641   YY=           -412.1227   ZZ=           -418.4380
   XY=              5.4885   XZ=              0.2426   YZ=            -48.9262

 Normal termination of Gaussian 16 at Thu May  5 15:06:05 2022.
