 Gaussian 16, Revision A.03,
 Gaussian 16:  ES64L-G16RevA.03 25-Dec-2016

 --------------------------------
 #p wB97XD/Def2SVP td=(nstates=5)
 --------------------------------

 ---------------------------------------------------
 step_951_chromophore_8 TDDFT with wB97XD functional
 ---------------------------------------------------
 Symbolic Z-matrix:
 Charge =  0 Multiplicity = 1

                         Standard orientation:
 ---------------------------------------------------------------------
 Center     Atomic      Atomic             Coordinates (Angstroms)
 Number     Number       Type             X           Y           Z
 ---------------------------------------------------------------------
      1         12           0       -4.531264   -1.094844    0.112514
      2          6           0       -3.757198    2.085536    0.843679
      3          6           0       -4.512190   -0.393718   -3.236510
      4          6           0       -4.876358   -4.493419   -0.575965
      5          6           0       -4.325747   -1.889276    3.475345
      6          7           0       -4.054902    0.608772   -1.078757
      7          6           0       -3.787543    1.897645   -0.560949
      8          6           0       -3.658466    2.959375   -1.725909
      9          6           0       -4.249542    2.170151   -2.897543
     10          6           0       -4.228676    0.722635   -2.392664
     11          6           0       -5.583759    2.666434   -3.505927
     12          6           0       -2.233014    3.401332   -1.867990
     13          6           0       -1.974645    4.897486   -1.764822
     14          6           0       -0.567911    5.426677   -1.650347
     15          8           0       -0.142151    6.416214   -2.246304
     16          8           0        0.149539    4.624071   -0.849208
     17          7           0       -4.773843   -2.258193   -1.667117
     18          6           0       -4.824738   -1.713158   -2.942374
     19          6           0       -5.036860   -2.696901   -3.868101
     20          6           0       -5.043236   -4.003257   -3.185237
     21          6           0       -4.873573   -3.662938   -1.727825
     22          6           0       -5.183854   -2.402006   -5.372130
     23          6           0       -5.187346   -5.329111   -3.783467
     24          8           0       -5.029368   -5.476555   -5.009329
     25          6           0       -5.465894   -6.547775   -2.997562
     26          7           0       -4.670102   -2.959596    1.246274
     27          6           0       -4.798342   -4.165568    0.771709
     28          6           0       -5.173200   -5.090268    1.929805
     29          6           0       -4.408322   -4.360228    3.126739
     30          6           0       -4.433274   -2.955200    2.595955
     31          6           0       -6.744668   -5.233637    2.043290
     32          6           0       -3.061003   -5.049276    3.606796
     33          6           0       -3.138718   -5.446264    5.109859
     34          7           0       -3.874310   -0.187782    1.891371
     35          6           0       -4.021448   -0.604890    3.168088
     36          6           0       -3.652033    0.581342    3.979083
     37          6           0       -3.568848    1.633020    3.139374
     38          6           0       -3.862446    1.141805    1.864541
     39          6           0       -3.506723    0.531415    5.565554
     40          6           0       -3.396323    3.032431    3.075593
     41          8           0       -3.225681    3.901729    3.926700
     42          6           0       -3.678719    3.393136    1.594652
     43          6           0       -4.867775    4.309965    1.609108
     44          8           0       -5.933380    4.099501    2.132386
     45          8           0       -4.603076    5.377316    0.746792
     46          6           0       -5.647856    6.266732    0.314120
     47          6           0        1.571349    5.041772   -0.837400
     48          6           0        2.358874    4.096672   -0.003952
     49          6           0        3.717684    4.110045    0.171165
     50          6           0        4.699860    5.178062   -0.207270
     51          6           0        4.341934    2.868580    0.856887
     52          6           0        5.483920    2.065247    0.170788
     53          6           0        5.187429    0.607474    0.194663
     54          6           0        5.826246   -0.123508   -1.038742
     55          6           0        4.732456   -0.595276   -2.082905
     56          6           0        6.721722   -1.308946   -0.437629
     57          6           0        8.259404   -1.120258   -0.741173
     58          6           0        9.136627   -1.384370    0.520402
     59          6           0       10.544954   -1.864841    0.144434
     60          6           0       10.795103   -3.143335    0.891339
     61          6           0       11.621301   -0.756453    0.318437
     62          6           0       12.826371   -1.119497   -0.605522
     63          6           0       14.186520   -0.664622   -0.028360
     64          6           0       15.296164   -1.805686    0.006973
     65          6           0       16.273770   -1.614424   -1.105015
     66          6           0       15.953137   -1.959536    1.333909
     67          1           0       -4.501512   -0.106225   -4.290310
     68          1           0       -4.938510   -5.578176   -0.684894
     69          1           0       -4.268295   -2.053950    4.553281
     70          1           0       -4.215494    3.826868   -1.373543
     71          1           0       -3.601545    2.190477   -3.773376
     72          1           0       -6.402180    1.963654   -3.352134
     73          1           0       -5.502608    2.727645   -4.591523
     74          1           0       -5.876606    3.630835   -3.089633
     75          1           0       -2.043265    3.265359   -2.932000
     76          1           0       -1.514354    2.846739   -1.264825
     77          1           0       -2.431982    5.290149   -0.856337
     78          1           0       -2.481078    5.375494   -2.603240
     79          1           0       -4.407911   -2.817012   -6.015399
     80          1           0       -5.242218   -1.369846   -5.716348
     81          1           0       -6.081699   -2.913659   -5.717548
     82          1           0       -6.101404   -6.428969   -2.120974
     83          1           0       -4.512369   -6.879999   -2.585394
     84          1           0       -5.851192   -7.326227   -3.656921
     85          1           0       -4.757553   -6.068564    1.686742
     86          1           0       -5.046959   -4.336116    4.009973
     87          1           0       -7.158310   -6.237723    2.135817
     88          1           0       -7.366488   -4.692072    1.330758
     89          1           0       -7.057558   -4.793676    2.989922
     90          1           0       -2.338069   -4.251408    3.440615
     91          1           0       -2.849250   -5.936366    3.007894
     92          1           0       -4.156833   -5.674703    5.423743
     93          1           0       -2.876938   -4.596785    5.740417
     94          1           0       -2.524298   -6.301078    5.393539
     95          1           0       -4.239457   -0.189460    5.926903
     96          1           0       -3.708934    1.477845    6.068907
     97          1           0       -2.516643    0.288641    5.950435
     98          1           0       -2.883663    3.992609    1.149596
     99          1           0       -6.289742    5.723340   -0.379933
    100          1           0       -5.236157    7.005325   -0.374691
    101          1           0       -6.349718    6.718779    1.015043
    102          1           0        1.604579    6.013413   -0.344172
    103          1           0        1.876943    4.991893   -1.882623
    104          1           0        1.766567    3.273132    0.394925
    105          1           0        4.290127    6.176770   -0.357315
    106          1           0        5.013214    4.710003   -1.141164
    107          1           0        5.649776    5.220979    0.324441
    108          1           0        3.632567    2.126425    1.223355
    109          1           0        4.681806    3.195874    1.839868
    110          1           0        6.299114    2.120209    0.892570
    111          1           0        5.741524    2.332569   -0.854867
    112          1           0        4.139282    0.307841    0.175316
    113          1           0        5.435785    0.263885    1.199588
    114          1           0        6.401298    0.559276   -1.665532
    115          1           0        3.893233    0.097051   -2.027526
    116          1           0        4.438197   -1.643578   -2.133409
    117          1           0        5.174574   -0.368784   -3.053523
    118          1           0        6.348866   -2.213720   -0.918244
    119          1           0        6.531470   -1.518112    0.614156
    120          1           0        8.331807   -0.074172   -1.036986
    121          1           0        8.490799   -1.792751   -1.566906
    122          1           0        8.665488   -2.146205    1.140323
    123          1           0        9.055425   -0.466244    1.103086
    124          1           0       10.520492   -2.107790   -0.918822
    125          1           0       11.848010   -3.354313    1.075574
    126          1           0       10.631790   -3.932468    0.157929
    127          1           0       10.244508   -3.194456    1.831192
    128          1           0       11.918649   -0.508026    1.337035
    129          1           0       11.277955    0.150705   -0.177931
    130          1           0       12.615545   -0.573286   -1.525344
    131          1           0       12.810137   -2.198727   -0.757474
    132          1           0       14.152220   -0.310689    1.002223
    133          1           0       14.456084    0.189671   -0.647999
    134          1           0       14.717474   -2.715209   -0.158341
    135          1           0       16.173567   -2.302276   -1.943583
    136          1           0       17.248055   -1.762043   -0.637928
    137          1           0       16.193817   -0.609357   -1.519361
    138          1           0       15.415037   -1.433200    2.122399
    139          1           0       17.002851   -1.664918    1.341664
    140          1           0       15.674919   -2.957563    1.674001
 ---------------------------------------------------------------------

 SCF Done:  E(RwB97XD) =  -3007.80431384     A.U. after   20 cycles

 Excitation energies and oscillator strengths:

 Excited State   1:      Singlet-A      1.6589 eV  747.40 nm  f=0.3545  <S**2>=0.000
     245 -> 248        0.19636
     246 -> 247        0.68020
     245 <- 248        0.11918
 This state for optimization and/or second-order correction.
 Total Energy, E(TD-HF/TD-DFT) =  -3007.74335160
 Copying the excited state density for this state as the 1-particle RhoCI density.

 Excited State   2:      Singlet-A      2.1934 eV  565.26 nm  f=0.0582  <S**2>=0.000
     245 -> 247        0.60878
     246 -> 248       -0.34000

 Excited State   3:      Singlet-A      3.0802 eV  402.53 nm  f=0.0023  <S**2>=0.000
     243 -> 247        0.66677
     243 -> 249        0.10800
     246 -> 248        0.14438

 Excited State   4:      Singlet-A      3.3689 eV  368.02 nm  f=0.0213  <S**2>=0.000
     242 -> 247        0.54348
     242 -> 248       -0.12953
     242 -> 249        0.25334
     242 -> 250        0.26936
     246 -> 248        0.12425

 Excited State   5:      Singlet-A      3.4656 eV  357.76 nm  f=0.7384  <S**2>=0.000
     240 -> 247       -0.12689
     240 -> 249        0.10675
     241 -> 247        0.13248
     242 -> 247       -0.11022
     245 -> 247        0.32489
     246 -> 248        0.55527
     245 <- 247       -0.10979

 The electronic state is 1-A.
 Alpha  occ. eigenvalues --  -46.95684 -19.31006 -19.30756 -19.25762 -19.24185
 Alpha  occ. eigenvalues --  -19.24162 -19.22500 -14.48041 -14.46423 -14.44101
 Alpha  occ. eigenvalues --  -14.44001 -10.43995 -10.42837 -10.38760 -10.37864
 Alpha  occ. eigenvalues --  -10.36313 -10.36041 -10.35777 -10.35691 -10.35678
 Alpha  occ. eigenvalues --  -10.35188 -10.34762 -10.33730 -10.33318 -10.33028
 Alpha  occ. eigenvalues --  -10.32981 -10.32947 -10.32922 -10.32726 -10.32722
 Alpha  occ. eigenvalues --  -10.32700 -10.32162 -10.31941 -10.31741 -10.31584
 Alpha  occ. eigenvalues --  -10.31505 -10.31375 -10.31104 -10.30930 -10.30920
 Alpha  occ. eigenvalues --  -10.30793 -10.30774 -10.30517 -10.30479 -10.30166
 Alpha  occ. eigenvalues --  -10.30139 -10.29944 -10.29737 -10.29469 -10.29371
 Alpha  occ. eigenvalues --  -10.29359 -10.29081 -10.28990 -10.28928 -10.28700
 Alpha  occ. eigenvalues --  -10.28599 -10.28557 -10.28427 -10.28327 -10.28260
 Alpha  occ. eigenvalues --  -10.28230 -10.28107 -10.28028 -10.27957 -10.27699
 Alpha  occ. eigenvalues --  -10.27463  -3.21563  -1.95166  -1.94665  -1.94544
 Alpha  occ. eigenvalues --   -1.19372  -1.18937  -1.12050  -1.11233  -1.10255
 Alpha  occ. eigenvalues --   -1.09565  -1.08059  -1.07232  -1.06389  -1.03624
 Alpha  occ. eigenvalues --   -0.96178  -0.93098  -0.92065  -0.91573  -0.91535
 Alpha  occ. eigenvalues --   -0.90345  -0.90226  -0.89785  -0.89716  -0.88697
 Alpha  occ. eigenvalues --   -0.88263  -0.87193  -0.86683  -0.86218  -0.85591
 Alpha  occ. eigenvalues --   -0.84709  -0.84379  -0.83763  -0.83553  -0.82681
 Alpha  occ. eigenvalues --   -0.81843  -0.80759  -0.80172  -0.79301  -0.78465
 Alpha  occ. eigenvalues --   -0.77727  -0.77552  -0.77541  -0.76564  -0.75778
 Alpha  occ. eigenvalues --   -0.75565  -0.75033  -0.74529  -0.72875  -0.72096
 Alpha  occ. eigenvalues --   -0.71724  -0.70028  -0.69415  -0.68520  -0.68353
 Alpha  occ. eigenvalues --   -0.67704  -0.67555  -0.67274  -0.66528  -0.65986
 Alpha  occ. eigenvalues --   -0.65434  -0.65244  -0.65208  -0.64358  -0.62854
 Alpha  occ. eigenvalues --   -0.62206  -0.61814  -0.61294  -0.61206  -0.60528
 Alpha  occ. eigenvalues --   -0.59963  -0.59362  -0.58549  -0.58317  -0.57900
 Alpha  occ. eigenvalues --   -0.57490  -0.56983  -0.56907  -0.56435  -0.56127
 Alpha  occ. eigenvalues --   -0.56012  -0.55894  -0.55613  -0.55342  -0.55076
 Alpha  occ. eigenvalues --   -0.54759  -0.54603  -0.54363  -0.54276  -0.54055
 Alpha  occ. eigenvalues --   -0.53728  -0.53657  -0.53632  -0.53112  -0.52568
 Alpha  occ. eigenvalues --   -0.52508  -0.52178  -0.52055  -0.51837  -0.51824
 Alpha  occ. eigenvalues --   -0.51614  -0.51332  -0.51172  -0.50851  -0.50647
 Alpha  occ. eigenvalues --   -0.50561  -0.50317  -0.49834  -0.49467  -0.49369
 Alpha  occ. eigenvalues --   -0.49242  -0.49021  -0.48844  -0.48690  -0.48662
 Alpha  occ. eigenvalues --   -0.48421  -0.48333  -0.48098  -0.47737  -0.47568
 Alpha  occ. eigenvalues --   -0.47369  -0.47317  -0.47238  -0.47186  -0.47131
 Alpha  occ. eigenvalues --   -0.46924  -0.46644  -0.46522  -0.46151  -0.45786
 Alpha  occ. eigenvalues --   -0.45687  -0.45281  -0.45150  -0.45106  -0.44915
 Alpha  occ. eigenvalues --   -0.44878  -0.44709  -0.44548  -0.44391  -0.44284
 Alpha  occ. eigenvalues --   -0.44131  -0.43721  -0.43188  -0.43169  -0.42962
 Alpha  occ. eigenvalues --   -0.42654  -0.42580  -0.42386  -0.42200  -0.42175
 Alpha  occ. eigenvalues --   -0.41749  -0.41628  -0.41473  -0.41152  -0.41014
 Alpha  occ. eigenvalues --   -0.40820  -0.40300  -0.40126  -0.39910  -0.39453
 Alpha  occ. eigenvalues --   -0.39364  -0.39275  -0.39090  -0.38879  -0.38575
 Alpha  occ. eigenvalues --   -0.38214  -0.37426  -0.37379  -0.36782  -0.36329
 Alpha  occ. eigenvalues --   -0.35867  -0.35496  -0.34595  -0.34175  -0.33047
 Alpha  occ. eigenvalues --   -0.32929  -0.32349  -0.31113  -0.30699  -0.26657
 Alpha  occ. eigenvalues --   -0.23382
 Alpha virt. eigenvalues --   -0.07312  -0.00924   0.01879   0.04032   0.04979
 Alpha virt. eigenvalues --    0.06385   0.07287   0.07874   0.08581   0.09130
 Alpha virt. eigenvalues --    0.10368   0.11014   0.11276   0.12066   0.12177

 Mulliken charges:
               1
     1  Mg   0.930117
     2  C   -0.039359
     3  C   -0.092296
     4  C   -0.081211
     5  C   -0.108526
     6  N   -0.372059
     7  C    0.006333
     8  C   -0.047773
     9  C   -0.081437
    10  C    0.047895
    11  C    0.029983
    12  C    0.060414
    13  C   -0.032523
    14  C    0.207916
    15  O   -0.278530
    16  O   -0.361070
    17  N   -0.473207
    18  C    0.215012
    19  C   -0.130677
    20  C   -0.051446
    21  C    0.206298
    22  C    0.074196
    23  C    0.001714
    24  O   -0.269286
    25  C   -0.001880
    26  N   -0.307030
    27  C    0.010565
    28  C   -0.104844
    29  C   -0.103173
    30  C    0.120257
    31  C    0.025516
    32  C    0.039949
    33  C   -0.077949
    34  N   -0.434943
    35  C    0.112524
    36  C   -0.174274
    37  C    0.009646
    38  C    0.162086
    39  C    0.049164
    40  C    0.120144
    41  O   -0.203545
    42  C   -0.099754
    43  C    0.285678
    44  O   -0.212850
    45  O   -0.381205
    46  C    0.143843
    47  C    0.262256
    48  C   -0.185238
    49  C   -0.174398
    50  C    0.044773
    51  C    0.025757
    52  C   -0.010863
    53  C   -0.023284
    54  C   -0.212874
    55  C   -0.003903
    56  C    0.018100
    57  C   -0.041508
    58  C    0.012787
    59  C   -0.192645
    60  C    0.026573
    61  C    0.016870
    62  C   -0.052066
    63  C    0.014973
    64  C   -0.247758
    65  C    0.031582
    66  C    0.027648
    67  H   -0.009704
    68  H   -0.020401
    69  H   -0.003653
    70  H    0.028909
    71  H    0.035790
    72  H    0.041257
    73  H    0.037679
    74  H    0.040660
    75  H    0.023931
    76  H    0.063561
    77  H    0.061558
    78  H    0.042064
    79  H    0.055928
    80  H    0.023676
    81  H    0.050042
    82  H    0.046732
    83  H    0.060909
    84  H    0.059237
    85  H    0.021208
    86  H    0.026095
    87  H    0.042662
    88  H    0.046229
    89  H    0.021624
    90  H    0.040460
    91  H    0.040769
    92  H    0.031913
    93  H    0.038060
    94  H    0.044220
    95  H    0.037750
    96  H    0.053785
    97  H    0.052581
    98  H    0.058131
    99  H    0.023579
   100  H    0.051480
   101  H    0.070880
   102  H    0.062992
   103  H    0.062759
   104  H    0.037711
   105  H    0.054372
   106  H    0.043095
   107  H    0.043347
   108  H    0.008283
   109  H    0.019742
   110  H    0.026291
   111  H    0.031402
   112  H    0.013674
   113  H    0.013916
   114  H    0.027738
   115  H    0.027748
   116  H    0.042275
   117  H    0.017770
   118  H    0.004749
   119  H    0.018970
   120  H    0.024324
   121  H    0.026929
   122  H    0.012286
   123  H    0.018658
   124  H    0.016311
   125  H    0.004838
   126  H    0.023669
   127  H    0.042816
   128  H    0.022487
   129  H    0.009663
   130  H    0.027148
   131  H    0.019222
   132  H    0.006994
   133  H    0.015015
   134  H    0.019517
   135  H    0.030271
   136  H    0.013579
   137  H    0.024009
   138  H    0.007218
   139  H    0.040760
   140  H    0.022663
 Sum of Mulliken charges =  -0.00000

 Dipole moment (field-independent basis, Debye):
    X=              0.0194    Y=             -2.6348    Z=              0.7337  Tot=              2.7352
 Quadrupole moment (field-independent basis, Debye-Ang):
   XX=           -384.9617   YY=           -411.5200   ZZ=           -418.2438
   XY=              5.9138   XZ=              1.7406   YZ=            -47.8103

 Normal termination of Gaussian 16 at Thu May  5 15:33:26 2022.
