 Gaussian 16, Revision A.03,
 Gaussian 16:  ES64L-G16RevA.03 25-Dec-2016

 --------------------
 #p ZINDO=(nstates=5)
 --------------------

 ----------------------------
 step_951_chromophore_8 ZINDO
 ----------------------------
 Symbolic Z-matrix:
 Charge =  0 Multiplicity = 1

                         Standard orientation:
 ---------------------------------------------------------------------
 Center     Atomic      Atomic             Coordinates (Angstroms)
 Number     Number       Type             X           Y           Z
 ---------------------------------------------------------------------
      1         12           0       -4.531264   -1.094844    0.112514
      2          6           0       -3.757198    2.085536    0.843679
      3          6           0       -4.512190   -0.393718   -3.236510
      4          6           0       -4.876358   -4.493419   -0.575965
      5          6           0       -4.325747   -1.889276    3.475345
      6          7           0       -4.054902    0.608772   -1.078757
      7          6           0       -3.787543    1.897645   -0.560949
      8          6           0       -3.658466    2.959375   -1.725909
      9          6           0       -4.249542    2.170151   -2.897543
     10          6           0       -4.228676    0.722635   -2.392664
     11          6           0       -5.583759    2.666434   -3.505927
     12          6           0       -2.233014    3.401332   -1.867990
     13          6           0       -1.974645    4.897486   -1.764822
     14          6           0       -0.567911    5.426677   -1.650347
     15          8           0       -0.142151    6.416214   -2.246304
     16          8           0        0.149539    4.624071   -0.849208
     17          7           0       -4.773843   -2.258193   -1.667117
     18          6           0       -4.824738   -1.713158   -2.942374
     19          6           0       -5.036860   -2.696901   -3.868101
     20          6           0       -5.043236   -4.003257   -3.185237
     21          6           0       -4.873573   -3.662938   -1.727825
     22          6           0       -5.183854   -2.402006   -5.372130
     23          6           0       -5.187346   -5.329111   -3.783467
     24          8           0       -5.029368   -5.476555   -5.009329
     25          6           0       -5.465894   -6.547775   -2.997562
     26          7           0       -4.670102   -2.959596    1.246274
     27          6           0       -4.798342   -4.165568    0.771709
     28          6           0       -5.173200   -5.090268    1.929805
     29          6           0       -4.408322   -4.360228    3.126739
     30          6           0       -4.433274   -2.955200    2.595955
     31          6           0       -6.744668   -5.233637    2.043290
     32          6           0       -3.061003   -5.049276    3.606796
     33          6           0       -3.138718   -5.446264    5.109859
     34          7           0       -3.874310   -0.187782    1.891371
     35          6           0       -4.021448   -0.604890    3.168088
     36          6           0       -3.652033    0.581342    3.979083
     37          6           0       -3.568848    1.633020    3.139374
     38          6           0       -3.862446    1.141805    1.864541
     39          6           0       -3.506723    0.531415    5.565554
     40          6           0       -3.396323    3.032431    3.075593
     41          8           0       -3.225681    3.901729    3.926700
     42          6           0       -3.678719    3.393136    1.594652
     43          6           0       -4.867775    4.309965    1.609108
     44          8           0       -5.933380    4.099501    2.132386
     45          8           0       -4.603076    5.377316    0.746792
     46          6           0       -5.647856    6.266732    0.314120
     47          6           0        1.571349    5.041772   -0.837400
     48          6           0        2.358874    4.096672   -0.003952
     49          6           0        3.717684    4.110045    0.171165
     50          6           0        4.699860    5.178062   -0.207270
     51          6           0        4.341934    2.868580    0.856887
     52          6           0        5.483920    2.065247    0.170788
     53          6           0        5.187429    0.607474    0.194663
     54          6           0        5.826246   -0.123508   -1.038742
     55          6           0        4.732456   -0.595276   -2.082905
     56          6           0        6.721722   -1.308946   -0.437629
     57          6           0        8.259404   -1.120258   -0.741173
     58          6           0        9.136627   -1.384370    0.520402
     59          6           0       10.544954   -1.864841    0.144434
     60          6           0       10.795103   -3.143335    0.891339
     61          6           0       11.621301   -0.756453    0.318437
     62          6           0       12.826371   -1.119497   -0.605522
     63          6           0       14.186520   -0.664622   -0.028360
     64          6           0       15.296164   -1.805686    0.006973
     65          6           0       16.273770   -1.614424   -1.105015
     66          6           0       15.953137   -1.959536    1.333909
     67          1           0       -4.501512   -0.106225   -4.290310
     68          1           0       -4.938510   -5.578176   -0.684894
     69          1           0       -4.268295   -2.053950    4.553281
     70          1           0       -4.215494    3.826868   -1.373543
     71          1           0       -3.601545    2.190477   -3.773376
     72          1           0       -6.402180    1.963654   -3.352134
     73          1           0       -5.502608    2.727645   -4.591523
     74          1           0       -5.876606    3.630835   -3.089633
     75          1           0       -2.043265    3.265359   -2.932000
     76          1           0       -1.514354    2.846739   -1.264825
     77          1           0       -2.431982    5.290149   -0.856337
     78          1           0       -2.481078    5.375494   -2.603240
     79          1           0       -4.407911   -2.817012   -6.015399
     80          1           0       -5.242218   -1.369846   -5.716348
     81          1           0       -6.081699   -2.913659   -5.717548
     82          1           0       -6.101404   -6.428969   -2.120974
     83          1           0       -4.512369   -6.879999   -2.585394
     84          1           0       -5.851192   -7.326227   -3.656921
     85          1           0       -4.757553   -6.068564    1.686742
     86          1           0       -5.046959   -4.336116    4.009973
     87          1           0       -7.158310   -6.237723    2.135817
     88          1           0       -7.366488   -4.692072    1.330758
     89          1           0       -7.057558   -4.793676    2.989922
     90          1           0       -2.338069   -4.251408    3.440615
     91          1           0       -2.849250   -5.936366    3.007894
     92          1           0       -4.156833   -5.674703    5.423743
     93          1           0       -2.876938   -4.596785    5.740417
     94          1           0       -2.524298   -6.301078    5.393539
     95          1           0       -4.239457   -0.189460    5.926903
     96          1           0       -3.708934    1.477845    6.068907
     97          1           0       -2.516643    0.288641    5.950435
     98          1           0       -2.883663    3.992609    1.149596
     99          1           0       -6.289742    5.723340   -0.379933
    100          1           0       -5.236157    7.005325   -0.374691
    101          1           0       -6.349718    6.718779    1.015043
    102          1           0        1.604579    6.013413   -0.344172
    103          1           0        1.876943    4.991893   -1.882623
    104          1           0        1.766567    3.273132    0.394925
    105          1           0        4.290127    6.176770   -0.357315
    106          1           0        5.013214    4.710003   -1.141164
    107          1           0        5.649776    5.220979    0.324441
    108          1           0        3.632567    2.126425    1.223355
    109          1           0        4.681806    3.195874    1.839868
    110          1           0        6.299114    2.120209    0.892570
    111          1           0        5.741524    2.332569   -0.854867
    112          1           0        4.139282    0.307841    0.175316
    113          1           0        5.435785    0.263885    1.199588
    114          1           0        6.401298    0.559276   -1.665532
    115          1           0        3.893233    0.097051   -2.027526
    116          1           0        4.438197   -1.643578   -2.133409
    117          1           0        5.174574   -0.368784   -3.053523
    118          1           0        6.348866   -2.213720   -0.918244
    119          1           0        6.531470   -1.518112    0.614156
    120          1           0        8.331807   -0.074172   -1.036986
    121          1           0        8.490799   -1.792751   -1.566906
    122          1           0        8.665488   -2.146205    1.140323
    123          1           0        9.055425   -0.466244    1.103086
    124          1           0       10.520492   -2.107790   -0.918822
    125          1           0       11.848010   -3.354313    1.075574
    126          1           0       10.631790   -3.932468    0.157929
    127          1           0       10.244508   -3.194456    1.831192
    128          1           0       11.918649   -0.508026    1.337035
    129          1           0       11.277955    0.150705   -0.177931
    130          1           0       12.615545   -0.573286   -1.525344
    131          1           0       12.810137   -2.198727   -0.757474
    132          1           0       14.152220   -0.310689    1.002223
    133          1           0       14.456084    0.189671   -0.647999
    134          1           0       14.717474   -2.715209   -0.158341
    135          1           0       16.173567   -2.302276   -1.943583
    136          1           0       17.248055   -1.762043   -0.637928
    137          1           0       16.193817   -0.609357   -1.519361
    138          1           0       15.415037   -1.433200    2.122399
    139          1           0       17.002851   -1.664918    1.341664
    140          1           0       15.674919   -2.957563    1.674001
 ---------------------------------------------------------------------

 SCF Done:  E(RZINDO/S) =  -474.529245197     A.U. after   20 cycles

 Excitation energies and oscillator strengths:

 Excited State   1:      Singlet-A      1.2491 eV  992.57 nm  f=0.5787  <S**2>=0.000
     175 ->178         0.20139
     176 ->177         0.66016
 This state for optimization and/or second-order correction.
 Total Energy, E(CIS/TDA) =  -474.483340664
 Copying the excited state density for this state as the 1-particle RhoCI density.

 Excited State   2:      Singlet-A      1.9008 eV  652.27 nm  f=0.0025  <S**2>=0.000
     175 ->177         0.49002
     176 ->178        -0.48952

 Excited State   3:      Singlet-A      2.9119 eV  425.78 nm  f=0.0935  <S**2>=0.000
     170 ->177         0.27019
     170 ->178         0.10167
     170 ->179        -0.25590
     170 ->180        -0.28769
     170 ->185        -0.16461
     170 ->187        -0.14718
     175 ->177         0.13981
     176 ->178         0.13921
     176 ->179         0.31234

 Excited State   4:      Singlet-A      2.9137 eV  425.52 nm  f=0.1683  <S**2>=0.000
     170 ->177        -0.19084
     170 ->179         0.16625
     170 ->180         0.20190
     170 ->185         0.11149
     175 ->177         0.18800
     176 ->178         0.19590
     176 ->179         0.48587

 Excited State   5:      Singlet-A      2.9324 eV  422.80 nm  f=0.0121  <S**2>=0.000
     168 ->177         0.14869
     168 ->179         0.22775
     168 ->180        -0.13299
     168 ->185         0.10865
     169 ->177        -0.25461
     169 ->178        -0.10803
     169 ->179        -0.35029
     169 ->180         0.20843
     169 ->185        -0.15995
     171 ->177         0.11068
     171 ->179         0.12251

 The electronic state is 1-A.
 Alpha  occ. eigenvalues --   -1.88438  -1.83131  -1.80387  -1.75745  -1.72304
 Alpha  occ. eigenvalues --   -1.71384  -1.65073  -1.61381  -1.60391  -1.58620
 Alpha  occ. eigenvalues --   -1.56637  -1.51397  -1.49129  -1.47838  -1.46462
 Alpha  occ. eigenvalues --   -1.46271  -1.45804  -1.39896  -1.39419  -1.39012
 Alpha  occ. eigenvalues --   -1.36272  -1.33885  -1.31968  -1.30660  -1.28470
 Alpha  occ. eigenvalues --   -1.28046  -1.27618  -1.23556  -1.21873  -1.19128
 Alpha  occ. eigenvalues --   -1.18300  -1.16495  -1.16225  -1.14054  -1.13523
 Alpha  occ. eigenvalues --   -1.13135  -1.10274  -1.09333  -1.06932  -1.04843
 Alpha  occ. eigenvalues --   -1.02990  -1.02379  -0.99469  -0.98802  -0.97991
 Alpha  occ. eigenvalues --   -0.96109  -0.95595  -0.93878  -0.93470  -0.92047
 Alpha  occ. eigenvalues --   -0.90824  -0.89813  -0.89134  -0.89044  -0.87488
 Alpha  occ. eigenvalues --   -0.86368  -0.84682  -0.83875  -0.83131  -0.81617
 Alpha  occ. eigenvalues --   -0.80225  -0.79055  -0.77874  -0.76498  -0.76135
 Alpha  occ. eigenvalues --   -0.75840  -0.75435  -0.75018  -0.74180  -0.73414
 Alpha  occ. eigenvalues --   -0.72833  -0.72375  -0.72137  -0.71874  -0.70895
 Alpha  occ. eigenvalues --   -0.70330  -0.70131  -0.69605  -0.69071  -0.68891
 Alpha  occ. eigenvalues --   -0.68222  -0.67428  -0.66862  -0.66244  -0.66057
 Alpha  occ. eigenvalues --   -0.65452  -0.64904  -0.64078  -0.63987  -0.63452
 Alpha  occ. eigenvalues --   -0.63386  -0.62961  -0.62817  -0.62374  -0.61866
 Alpha  occ. eigenvalues --   -0.61701  -0.61146  -0.60990  -0.60419  -0.59658
 Alpha  occ. eigenvalues --   -0.59591  -0.59261  -0.58659  -0.58367  -0.58262
 Alpha  occ. eigenvalues --   -0.58207  -0.57474  -0.56975  -0.56496  -0.56326
 Alpha  occ. eigenvalues --   -0.55791  -0.55547  -0.55127  -0.54936  -0.54780
 Alpha  occ. eigenvalues --   -0.54574  -0.53983  -0.53799  -0.53400  -0.53267
 Alpha  occ. eigenvalues --   -0.52964  -0.52779  -0.52193  -0.51861  -0.51582
 Alpha  occ. eigenvalues --   -0.51216  -0.51014  -0.50994  -0.50516  -0.50287
 Alpha  occ. eigenvalues --   -0.50135  -0.49759  -0.49448  -0.49290  -0.49122
 Alpha  occ. eigenvalues --   -0.48759  -0.48486  -0.48314  -0.48162  -0.47683
 Alpha  occ. eigenvalues --   -0.47650  -0.47501  -0.47369  -0.47064  -0.46705
 Alpha  occ. eigenvalues --   -0.46511  -0.45863  -0.45824  -0.45774  -0.45658
 Alpha  occ. eigenvalues --   -0.44859  -0.44741  -0.44257  -0.44057  -0.43724
 Alpha  occ. eigenvalues --   -0.43581  -0.43281  -0.43266  -0.42432  -0.42191
 Alpha  occ. eigenvalues --   -0.41976  -0.41348  -0.40301  -0.40154  -0.38979
 Alpha  occ. eigenvalues --   -0.38564  -0.37590  -0.35877  -0.35547  -0.34968
 Alpha  occ. eigenvalues --   -0.33357  -0.32855  -0.32349  -0.31062  -0.27253
 Alpha  occ. eigenvalues --   -0.22002
 Alpha virt. eigenvalues --   -0.08631  -0.03080  -0.01036   0.01002   0.01461
 Alpha virt. eigenvalues --    0.01979   0.02063   0.02531   0.04517   0.04753
 Alpha virt. eigenvalues --    0.05620   0.06697   0.07259   0.07425   0.07747

 Mulliken charges:
               1
     1  Mg   0.428115
     2  C   -0.030598
     3  C   -0.064926
     4  C   -0.091851
     5  C   -0.061482
     6  N   -0.264193
     7  C    0.075852
     8  C    0.016658
     9  C    0.014493
    10  C    0.135014
    11  C   -0.047203
    12  C   -0.018915
    13  C    0.002677
    14  C    0.473813
    15  O   -0.532534
    16  O   -0.267328
    17  N   -0.357994
    18  C    0.121577
    19  C    0.054761
    20  C   -0.059320
    21  C    0.128773
    22  C   -0.042992
    23  C    0.334410
    24  O   -0.549095
    25  C   -0.025694
    26  N   -0.271862
    27  C    0.157879
    28  C    0.006439
    29  C   -0.006387
    30  C    0.132010
    31  C   -0.052374
    32  C   -0.023154
    33  C   -0.056843
    34  N   -0.313504
    35  C    0.106562
    36  C    0.021986
    37  C   -0.018773
    38  C    0.106339
    39  C   -0.050803
    40  C    0.338977
    41  O   -0.516995
    42  C    0.052945
    43  C    0.494573
    44  O   -0.494656
    45  O   -0.282986
    46  C    0.075512
    47  C    0.106389
    48  C   -0.102377
    49  C   -0.002731
    50  C   -0.042658
    51  C   -0.033970
    52  C   -0.030591
    53  C   -0.035140
    54  C   -0.021869
    55  C   -0.064900
    56  C   -0.048731
    57  C   -0.043214
    58  C   -0.038144
    59  C   -0.004948
    60  C   -0.057205
    61  C   -0.040973
    62  C   -0.042962
    63  C   -0.046012
    64  C   -0.008473
    65  C   -0.055142
    66  C   -0.058772
    67  H    0.024162
    68  H    0.022932
    69  H    0.024524
    70  H    0.035312
    71  H    0.026688
    72  H    0.023501
    73  H    0.020938
    74  H    0.024587
    75  H    0.018699
    76  H    0.039060
    77  H    0.042544
    78  H    0.033349
    79  H    0.037898
    80  H    0.022065
    81  H    0.031466
    82  H    0.027467
    83  H    0.039769
    84  H    0.039231
    85  H    0.019786
    86  H    0.024453
    87  H    0.024003
    88  H    0.030496
    89  H    0.012187
    90  H    0.028722
    91  H    0.029458
    92  H    0.018281
    93  H    0.018586
    94  H    0.022044
    95  H    0.021660
    96  H    0.031765
    97  H    0.032952
    98  H    0.043519
    99  H    0.021785
   100  H    0.030739
   101  H    0.059063
   102  H    0.057958
   103  H    0.058271
   104  H    0.034355
   105  H    0.032139
   106  H    0.030002
   107  H    0.029926
   108  H    0.019183
   109  H    0.014020
   110  H    0.021602
   111  H    0.033522
   112  H    0.013218
   113  H    0.016485
   114  H    0.028230
   115  H    0.018832
   116  H    0.031383
   117  H    0.006226
   118  H    0.009019
   119  H    0.024905
   120  H    0.022465
   121  H    0.024969
   122  H    0.016491
   123  H    0.019330
   124  H    0.021123
   125  H    0.007844
   126  H    0.017489
   127  H    0.030425
   128  H    0.031027
   129  H    0.011113
   130  H    0.020029
   131  H    0.024703
   132  H    0.019317
   133  H    0.017013
   134  H    0.016690
   135  H    0.017027
   136  H    0.016350
   137  H    0.019073
   138  H    0.010165
   139  H    0.031959
   140  H    0.017952
 Sum of Mulliken charges =  -0.00000

 Dipole moment (field-independent basis, Debye):
    X=             -0.6042    Y=             -3.9537    Z=              1.0230  Tot=              4.1284
 N-N= 4.351424160043D+03 E-N= 0.000000000000D+00  KE=-9.376632426609D+03
 Leave Link  601 at Thu May  5 15:45:44 2022, MaxMem=  6710886400 cpu:               1.0 elap:               0.1
 (Enter /sw/apps/gaussian-16.0/g16/l9999.exe)
 1\1\GINC-BP1-COMPUTE063\SP\RZINDO CIS\STO-3G\C55H74Mg1N4O6\OF15641\05-
 May-2022\0\\#p ZINDO=(nstates=5)\\step_951_chromophore_8 ZINDO\\0,1\Mg
 ,0,44.615,2.912,47.345\C,0,42.435,5.45,47.111\C,0,42.066,0.632,47.235\
 C,0,46.957,0.341,47.125\C,0,47.227,5.18,47.22\N,0,42.503,3.009,47.065\
 C,0,41.755,4.209,47.029\C,0,40.203,3.907,46.995\C,0,40.192,2.427,47.38
 8\C,0,41.648,1.996,47.176\C,0,39.552,2.042,48.744\C,0,39.639,4.246,45.
 648\C,0,38.48,5.232,45.628\C,0,38.,5.825,44.328\O,0,36.817,5.979,44.02

 Normal termination of Gaussian 16 at Thu May  5 15:45:44 2022.
