 Gaussian 16, Revision A.03,
 Gaussian 16:  ES64L-G16RevA.03 25-Dec-2016

 ------------------------------
 #p blyp/Def2SVP td=(nstates=5)
 ------------------------------

 --------------------------------------------------
 step_801_chromophore_17 TDDFT with blyp functional
 --------------------------------------------------
 Symbolic Z-matrix:
 Charge =  0 Multiplicity = 1

                         Standard orientation:
 ---------------------------------------------------------------------
 Center     Atomic      Atomic             Coordinates (Angstroms)
 Number     Number       Type             X           Y           Z
 ---------------------------------------------------------------------
      1         12           0        4.040779    1.109360   -0.691783
      2          6           0        3.783207   -2.303280   -0.426877
      3          6           0        1.824025    1.167152   -3.193195
      4          6           0        3.814047    4.504911   -0.228796
      5          6           0        5.695586    1.016398    2.597277
      6          7           0        2.838564   -0.435703   -1.611647
      7          6           0        2.838366   -1.772103   -1.375129
      8          6           0        1.842204   -2.454923   -2.389065
      9          6           0        1.433528   -1.331775   -3.453479
     10          6           0        2.124096   -0.119399   -2.737179
     11          6           0        1.879460   -1.607674   -4.878749
     12          6           0        0.717590   -3.085308   -1.585974
     13          6           0        0.294580   -4.476155   -1.948046
     14          6           0       -1.056445   -5.022240   -1.712670
     15          8           0       -1.438699   -6.079305   -2.114846
     16          8           0       -1.855291   -4.291884   -0.876258
     17          7           0        3.147751    2.596262   -1.684627
     18          6           0        2.311271    2.444415   -2.798913
     19          6           0        1.975911    3.715843   -3.333472
     20          6           0        2.491658    4.685882   -2.478611
     21          6           0        3.229792    3.917865   -1.382682
     22          6           0        1.098139    3.915725   -4.540928
     23          6           0        2.321807    6.162772   -2.628741
     24          8           0        1.608879    6.604972   -3.507149
     25          6           0        2.777566    7.185425   -1.619655
     26          7           0        4.584794    2.568812    1.032108
     27          6           0        4.403857    3.937777    0.910374
     28          6           0        5.157879    4.734651    1.961526
     29          6           0        5.771954    3.578566    2.880298
     30          6           0        5.369559    2.319112    2.183333
     31          6           0        6.080321    5.885094    1.470223
     32          6           0        5.511025    3.726850    4.295858
     33          6           0        6.689950    3.165548    5.198963
     34          7           0        4.699273   -0.357053    0.768698
     35          6           0        5.377141   -0.241121    1.929064
     36          6           0        5.722186   -1.566681    2.425387
     37          6           0        5.130456   -2.391098    1.495894
     38          6           0        4.522216   -1.587190    0.530320
     39          6           0        6.536721   -1.798659    3.627483
     40          6           0        4.891956   -3.810526    1.107201
     41          8           0        5.332180   -4.879281    1.545374
     42          6           0        4.074889   -3.750281   -0.164392
     43          6           0        4.857797   -4.312147   -1.271911
     44          8           0        5.725967   -3.788085   -1.917618
     45          8           0        4.606537   -5.650861   -1.214891
     46          6           0        5.629072   -6.450604   -1.817245
     47          6           0       -3.182804   -4.742838   -0.509403
     48          6           0       -3.787029   -3.873273    0.527979
     49          6           0       -5.085478   -3.845564    0.904162
     50          6           0       -6.246336   -4.736373    0.429373
     51          6           0       -5.574073   -2.686959    1.819427
     52          6           0       -5.276152   -2.939468    3.332016
     53          6           0       -4.654781   -1.740566    4.038304
     54          6           0       -5.749358   -0.669952    4.106645
     55          6           0       -6.170815   -0.346662    5.567764
     56          6           0       -5.279782    0.608286    3.298630
     57          6           0       -6.553956    1.418336    2.825550
     58          6           0       -6.377151    1.954094    1.344817
     59          6           0       -7.625898    1.467666    0.438546
     60          6           0       -7.114444    0.593105   -0.667673
     61          6           0       -8.539007    2.692504    0.096883
     62          6           0      -10.053423    2.322375    0.222331
     63          6           0      -10.653613    1.773284   -1.030910
     64          6           0      -11.875360    2.538813   -1.442848
     65          6           0      -12.987696    2.047025   -0.572243
     66          6           0      -12.065841    2.319692   -3.000981
     67          1           0        1.163702    1.159224   -4.063140
     68          1           0        3.707705    5.587477   -0.124886
     69          1           0        6.321141    0.972638    3.491420
     70          1           0        2.477699   -3.235262   -2.808288
     71          1           0        0.366297   -1.121063   -3.508905
     72          1           0        2.712512   -0.965699   -5.167745
     73          1           0        1.036154   -1.470310   -5.555996
     74          1           0        2.210492   -2.645504   -4.842882
     75          1           0       -0.190131   -2.481936   -1.628438
     76          1           0        0.868668   -3.023785   -0.508167
     77          1           0        0.955386   -5.142483   -1.393297
     78          1           0        0.566420   -4.601663   -2.995737
     79          1           0        0.067467    4.034423   -4.208422
     80          1           0        1.043062    3.056968   -5.209348
     81          1           0        1.484783    4.673816   -5.222306
     82          1           0        2.271628    6.908221   -0.694723
     83          1           0        2.491261    8.176500   -1.970537
     84          1           0        3.846848    7.025972   -1.477291
     85          1           0        4.407448    5.211329    2.591768
     86          1           0        6.848119    3.718909    2.779387
     87          1           0        6.158457    6.573832    2.311954
     88          1           0        5.779925    6.370597    0.541528
     89          1           0        7.115983    5.546902    1.427178
     90          1           0        4.591326    3.233158    4.611505
     91          1           0        5.484212    4.797621    4.497025
     92          1           0        7.085761    3.880924    5.919230
     93          1           0        7.462307    2.685541    4.596955
     94          1           0        6.318537    2.499447    5.977184
     95          1           0        5.823552   -1.423615    4.361592
     96          1           0        7.418186   -1.158714    3.641546
     97          1           0        6.728729   -2.869228    3.702207
     98          1           0        3.110744   -4.240389   -0.030705
     99          1           0        6.385437   -6.540322   -1.038212
    100          1           0        6.011101   -6.132602   -2.787277
    101          1           0        5.246149   -7.465550   -1.926096
    102          1           0       -3.077875   -5.733892   -0.068390
    103          1           0       -3.845147   -4.772398   -1.375231
    104          1           0       -3.138371   -3.028979    0.760702
    105          1           0       -6.907626   -4.981423    1.260278
    106          1           0       -5.972795   -5.639610   -0.115801
    107          1           0       -6.915968   -4.161153   -0.210549
    108          1           0       -6.641477   -2.477532    1.751340
    109          1           0       -5.063037   -1.768961    1.526475
    110          1           0       -4.615565   -3.797461    3.456749
    111          1           0       -6.243316   -3.225208    3.745205
    112          1           0       -3.777174   -1.363326    3.513274
    113          1           0       -4.416195   -2.014870    5.065828
    114          1           0       -6.659067   -1.058390    3.648078
    115          1           0       -5.330260    0.013705    6.161619
    116          1           0       -6.525322   -1.264131    6.037654
    117          1           0       -6.907444    0.456624    5.557895
    118          1           0       -4.837684    0.170482    2.404695
    119          1           0       -4.548113    1.259084    3.776362
    120          1           0       -6.657291    2.253501    3.518184
    121          1           0       -7.387064    0.723848    2.722063
    122          1           0       -5.452577    1.685117    0.833767
    123          1           0       -6.399879    3.042671    1.300317
    124          1           0       -8.324534    0.773993    0.905579
    125          1           0       -7.104719    1.072175   -1.647085
    126          1           0       -7.483558   -0.431692   -0.711978
    127          1           0       -6.055652    0.399248   -0.498693
    128          1           0       -8.279881    3.023695   -0.908830
    129          1           0       -8.338580    3.473899    0.830880
    130          1           0      -10.598098    3.194371    0.586475
    131          1           0      -10.133838    1.577817    1.014030
    132          1           0      -10.851791    0.725445   -0.810311
    133          1           0       -9.856935    1.901917   -1.764418
    134          1           0      -11.786509    3.613208   -1.282480
    135          1           0      -13.730040    1.403774   -1.043487
    136          1           0      -13.473581    2.956472   -0.220754
    137          1           0      -12.664939    1.494447    0.310353
    138          1           0      -12.309489    1.274375   -3.190151
    139          1           0      -11.134894    2.525382   -3.528761
    140          1           0      -12.771623    3.047330   -3.401407
 ---------------------------------------------------------------------

 SCF Done:  E(RB-LYP) =  -3007.35541749     A.U. after   20 cycles

 Excitation energies and oscillator strengths:

 Excited State   1:      Singlet-A      1.7612 eV  703.97 nm  f=0.0001  <S**2>=0.000
     244 -> 247        0.70580
 This state for optimization and/or second-order correction.
 Total Energy, E(TD-HF/TD-DFT) =  -3007.29069398
 Copying the excited state density for this state as the 1-particle RhoCI density.

 Excited State   2:      Singlet-A      1.8307 eV  677.23 nm  f=0.2942  <S**2>=0.000
     245 -> 248        0.20211
     246 -> 247        0.68075
     246 <- 247       -0.14039

 Excited State   3:      Singlet-A      1.9991 eV  620.20 nm  f=0.0699  <S**2>=0.000
     243 -> 247        0.24012
     245 -> 247        0.61302
     246 -> 248       -0.21650

 Excited State   4:      Singlet-A      2.1656 eV  572.52 nm  f=0.0110  <S**2>=0.000
     243 -> 247        0.65967
     245 -> 247       -0.20110
     246 -> 248        0.13478

 Excited State   5:      Singlet-A      2.2692 eV  546.39 nm  f=0.0000  <S**2>=0.000
     242 -> 247        0.70710

 The electronic state is 1-A.
 Alpha  occ. eigenvalues --  -46.28254 -18.81713 -18.81502 -18.77211 -18.76131
 Alpha  occ. eigenvalues --  -18.75990 -18.74691 -14.03766 -14.02890 -14.01587
 Alpha  occ. eigenvalues --  -14.00713 -10.03848 -10.03620 -10.00098  -9.99078
 Alpha  occ. eigenvalues --   -9.97875  -9.97281  -9.96768  -9.96672  -9.96669
 Alpha  occ. eigenvalues --   -9.96429  -9.96419  -9.95630  -9.95461  -9.95047
 Alpha  occ. eigenvalues --   -9.94778  -9.94324  -9.93832  -9.93696  -9.93694
 Alpha  occ. eigenvalues --   -9.93625  -9.93493  -9.93442  -9.93273  -9.93265
 Alpha  occ. eigenvalues --   -9.93172  -9.93094  -9.93074  -9.93063  -9.92815
 Alpha  occ. eigenvalues --   -9.92798  -9.92657  -9.92573  -9.92540  -9.92501
 Alpha  occ. eigenvalues --   -9.92471  -9.92053  -9.91827  -9.91714  -9.91677
 Alpha  occ. eigenvalues --   -9.91631  -9.91492  -9.91456  -9.91430  -9.91307
 Alpha  occ. eigenvalues --   -9.91209  -9.91090  -9.90972  -9.90971  -9.90853
 Alpha  occ. eigenvalues --   -9.90830  -9.90747  -9.90414  -9.90346  -9.90344
 Alpha  occ. eigenvalues --   -9.89977  -2.92786  -1.73176  -1.72683  -1.72511
 Alpha  occ. eigenvalues --   -0.98892  -0.98495  -0.91642  -0.91074  -0.91064
 Alpha  occ. eigenvalues --   -0.90203  -0.88767  -0.86001  -0.85174  -0.84034
 Alpha  occ. eigenvalues --   -0.76313  -0.73948  -0.73523  -0.73489  -0.73334
 Alpha  occ. eigenvalues --   -0.72076  -0.71927  -0.71163  -0.71119  -0.70945
 Alpha  occ. eigenvalues --   -0.70062  -0.69480  -0.68039  -0.67792  -0.67399
 Alpha  occ. eigenvalues --   -0.66447  -0.66017  -0.65333  -0.64869  -0.64703
 Alpha  occ. eigenvalues --   -0.63879  -0.63394  -0.62376  -0.61699  -0.60848
 Alpha  occ. eigenvalues --   -0.60455  -0.60396  -0.60244  -0.59687  -0.58588
 Alpha  occ. eigenvalues --   -0.58278  -0.57826  -0.57029  -0.56123  -0.55629
 Alpha  occ. eigenvalues --   -0.54125  -0.53512  -0.53107  -0.51943  -0.51871
 Alpha  occ. eigenvalues --   -0.51580  -0.50633  -0.50566  -0.50506  -0.50185
 Alpha  occ. eigenvalues --   -0.49724  -0.49150  -0.48746  -0.48545  -0.47068
 Alpha  occ. eigenvalues --   -0.46594  -0.46249  -0.45951  -0.45683  -0.45353
 Alpha  occ. eigenvalues --   -0.44417  -0.44006  -0.43553  -0.43234  -0.42893
 Alpha  occ. eigenvalues --   -0.42227  -0.41944  -0.41742  -0.41618  -0.41236
 Alpha  occ. eigenvalues --   -0.41173  -0.40960  -0.40629  -0.40508  -0.39976
 Alpha  occ. eigenvalues --   -0.39881  -0.39561  -0.39516  -0.39422  -0.39318
 Alpha  occ. eigenvalues --   -0.39106  -0.39041  -0.38907  -0.38644  -0.38322
 Alpha  occ. eigenvalues --   -0.38090  -0.37995  -0.37861  -0.37607  -0.37457
 Alpha  occ. eigenvalues --   -0.37358  -0.37101  -0.36821  -0.36748  -0.36438
 Alpha  occ. eigenvalues --   -0.36186  -0.35971  -0.35959  -0.35781  -0.35656
 Alpha  occ. eigenvalues --   -0.35646  -0.35578  -0.35184  -0.35158  -0.35033
 Alpha  occ. eigenvalues --   -0.34694  -0.34526  -0.34489  -0.34443  -0.34165
 Alpha  occ. eigenvalues --   -0.33813  -0.33785  -0.33352  -0.33051  -0.33009
 Alpha  occ. eigenvalues --   -0.32921  -0.32906  -0.32679  -0.32421  -0.32304
 Alpha  occ. eigenvalues --   -0.32151  -0.32102  -0.31831  -0.31823  -0.31611
 Alpha  occ. eigenvalues --   -0.31480  -0.31259  -0.31119  -0.30905  -0.30851
 Alpha  occ. eigenvalues --   -0.30591  -0.30414  -0.30307  -0.30183  -0.29911
 Alpha  occ. eigenvalues --   -0.29876  -0.29627  -0.29491  -0.29213  -0.29077
 Alpha  occ. eigenvalues --   -0.28948  -0.28488  -0.28058  -0.27941  -0.27837
 Alpha  occ. eigenvalues --   -0.27588  -0.27416  -0.26824  -0.26588  -0.26422
 Alpha  occ. eigenvalues --   -0.26303  -0.26159  -0.25795  -0.25765  -0.25165
 Alpha  occ. eigenvalues --   -0.25047  -0.24985  -0.24431  -0.23758  -0.23355
 Alpha  occ. eigenvalues --   -0.22792  -0.22737  -0.22187  -0.21514  -0.21126
 Alpha  occ. eigenvalues --   -0.20877  -0.19802  -0.19190  -0.17853  -0.17173
 Alpha  occ. eigenvalues --   -0.15890
 Alpha virt. eigenvalues --   -0.11463  -0.06949  -0.06226  -0.04760  -0.03677
 Alpha virt. eigenvalues --   -0.02393  -0.02355  -0.01856  -0.01624   0.00343
 Alpha virt. eigenvalues --    0.01275   0.01593   0.01800   0.02409   0.02736

 Mulliken charges:
               1
     1  Mg   0.716391
     2  C   -0.053407
     3  C   -0.038612
     4  C   -0.075301
     5  C   -0.088685
     6  N   -0.232290
     7  C   -0.080688
     8  C    0.048383
     9  C   -0.015512
    10  C    0.013828
    11  C    0.152388
    12  C    0.133871
    13  C    0.105388
    14  C    0.060493
    15  O   -0.167587
    16  O   -0.281615
    17  N   -0.333333
    18  C    0.147771
    19  C   -0.130309
    20  C    0.036550
    21  C    0.153808
    22  C    0.201995
    23  C   -0.132750
    24  O   -0.165486
    25  C    0.162692
    26  N   -0.222123
    27  C   -0.018693
    28  C    0.036975
    29  C    0.027202
    30  C    0.031295
    31  C    0.135946
    32  C    0.128250
    33  C    0.048253
    34  N   -0.124784
    35  C    0.064080
    36  C   -0.237428
    37  C    0.084833
    38  C    0.060267
    39  C    0.197493
    40  C   -0.037542
    41  O   -0.139527
    42  C    0.075187
    43  C    0.102335
    44  O   -0.159593
    45  O   -0.251378
    46  C    0.214436
    47  C    0.327258
    48  C   -0.125069
    49  C   -0.109290
    50  C    0.138401
    51  C    0.083897
    52  C    0.051648
    53  C    0.155657
    54  C   -0.112998
    55  C    0.111338
    56  C    0.078786
    57  C    0.089090
    58  C    0.097531
    59  C   -0.122865
    60  C    0.120404
    61  C    0.125963
    62  C    0.043063
    63  C    0.120238
    64  C   -0.089930
    65  C    0.120935
    66  C    0.108293
    67  H   -0.070871
    68  H   -0.088650
    69  H   -0.077796
    70  H   -0.019335
    71  H   -0.015754
    72  H   -0.000290
    73  H   -0.003539
    74  H   -0.010243
    75  H   -0.033567
    76  H   -0.020826
    77  H    0.019191
    78  H    0.001115
    79  H    0.005042
    80  H   -0.038729
    81  H    0.009626
    82  H    0.019291
    83  H   -0.004611
    84  H    0.004665
    85  H   -0.028546
    86  H   -0.029064
    87  H   -0.017218
    88  H    0.013367
    89  H   -0.017393
    90  H   -0.015899
    91  H   -0.022395
    92  H   -0.020819
    93  H    0.014859
    94  H   -0.019514
    95  H    0.006505
    96  H    0.007376
    97  H    0.014441
    98  H   -0.003966
    99  H    0.013440
   100  H    0.020974
   101  H   -0.000593
   102  H    0.001641
   103  H    0.005696
   104  H   -0.025409
   105  H   -0.010518
   106  H   -0.004529
   107  H   -0.001280
   108  H   -0.032284
   109  H   -0.012218
   110  H   -0.028045
   111  H   -0.031397
   112  H   -0.027301
   113  H   -0.045985
   114  H   -0.029691
   115  H   -0.021907
   116  H   -0.015722
   117  H   -0.017506
   118  H   -0.040431
   119  H   -0.023536
   120  H   -0.013833
   121  H   -0.021514
   122  H   -0.029529
   123  H   -0.042679
   124  H   -0.030320
   125  H   -0.023725
   126  H   -0.019001
   127  H   -0.039905
   128  H   -0.031132
   129  H   -0.036423
   130  H   -0.039677
   131  H   -0.040421
   132  H   -0.032538
   133  H   -0.042379
   134  H   -0.033655
   135  H   -0.019351
   136  H   -0.024116
   137  H   -0.017635
   138  H   -0.014640
   139  H   -0.023885
   140  H   -0.019312
 Sum of Mulliken charges =  -0.00000

 Dipole moment (field-independent basis, Debye):
    X=             -0.0211    Y=              2.7214    Z=              2.4430  Tot=              3.6572
 Quadrupole moment (field-independent basis, Debye-Ang):
   XX=           -386.0417   YY=           -435.0673   ZZ=           -400.9646
   XY=             28.2097   XZ=              4.4886   YZ=             27.3539

 Normal termination of Gaussian 16 at Sat Apr 30 16:22:02 2022.
