 Gaussian 16, Revision A.03,
 Gaussian 16:  ES64L-G16RevA.03 25-Dec-2016

 -----------------------------------
 #p cam-b3lyp/Def2SVP td=(nstates=5)
 -----------------------------------

 -------------------------------------------------------
 step_801_chromophore_17 TDDFT with cam-b3lyp functional
 -------------------------------------------------------
 Symbolic Z-matrix:
 Charge =  0 Multiplicity = 1

                         Standard orientation:
 ---------------------------------------------------------------------
 Center     Atomic      Atomic             Coordinates (Angstroms)
 Number     Number       Type             X           Y           Z
 ---------------------------------------------------------------------
      1         12           0        4.040779    1.109360   -0.691783
      2          6           0        3.783207   -2.303280   -0.426877
      3          6           0        1.824025    1.167152   -3.193195
      4          6           0        3.814047    4.504911   -0.228796
      5          6           0        5.695586    1.016398    2.597277
      6          7           0        2.838564   -0.435703   -1.611647
      7          6           0        2.838366   -1.772103   -1.375129
      8          6           0        1.842204   -2.454923   -2.389065
      9          6           0        1.433528   -1.331775   -3.453479
     10          6           0        2.124096   -0.119399   -2.737179
     11          6           0        1.879460   -1.607674   -4.878749
     12          6           0        0.717590   -3.085308   -1.585974
     13          6           0        0.294580   -4.476155   -1.948046
     14          6           0       -1.056445   -5.022240   -1.712670
     15          8           0       -1.438699   -6.079305   -2.114846
     16          8           0       -1.855291   -4.291884   -0.876258
     17          7           0        3.147751    2.596262   -1.684627
     18          6           0        2.311271    2.444415   -2.798913
     19          6           0        1.975911    3.715843   -3.333472
     20          6           0        2.491658    4.685882   -2.478611
     21          6           0        3.229792    3.917865   -1.382682
     22          6           0        1.098139    3.915725   -4.540928
     23          6           0        2.321807    6.162772   -2.628741
     24          8           0        1.608879    6.604972   -3.507149
     25          6           0        2.777566    7.185425   -1.619655
     26          7           0        4.584794    2.568812    1.032108
     27          6           0        4.403857    3.937777    0.910374
     28          6           0        5.157879    4.734651    1.961526
     29          6           0        5.771954    3.578566    2.880298
     30          6           0        5.369559    2.319112    2.183333
     31          6           0        6.080321    5.885094    1.470223
     32          6           0        5.511025    3.726850    4.295858
     33          6           0        6.689950    3.165548    5.198963
     34          7           0        4.699273   -0.357053    0.768698
     35          6           0        5.377141   -0.241121    1.929064
     36          6           0        5.722186   -1.566681    2.425387
     37          6           0        5.130456   -2.391098    1.495894
     38          6           0        4.522216   -1.587190    0.530320
     39          6           0        6.536721   -1.798659    3.627483
     40          6           0        4.891956   -3.810526    1.107201
     41          8           0        5.332180   -4.879281    1.545374
     42          6           0        4.074889   -3.750281   -0.164392
     43          6           0        4.857797   -4.312147   -1.271911
     44          8           0        5.725967   -3.788085   -1.917618
     45          8           0        4.606537   -5.650861   -1.214891
     46          6           0        5.629072   -6.450604   -1.817245
     47          6           0       -3.182804   -4.742838   -0.509403
     48          6           0       -3.787029   -3.873273    0.527979
     49          6           0       -5.085478   -3.845564    0.904162
     50          6           0       -6.246336   -4.736373    0.429373
     51          6           0       -5.574073   -2.686959    1.819427
     52          6           0       -5.276152   -2.939468    3.332016
     53          6           0       -4.654781   -1.740566    4.038304
     54          6           0       -5.749358   -0.669952    4.106645
     55          6           0       -6.170815   -0.346662    5.567764
     56          6           0       -5.279782    0.608286    3.298630
     57          6           0       -6.553956    1.418336    2.825550
     58          6           0       -6.377151    1.954094    1.344817
     59          6           0       -7.625898    1.467666    0.438546
     60          6           0       -7.114444    0.593105   -0.667673
     61          6           0       -8.539007    2.692504    0.096883
     62          6           0      -10.053423    2.322375    0.222331
     63          6           0      -10.653613    1.773284   -1.030910
     64          6           0      -11.875360    2.538813   -1.442848
     65          6           0      -12.987696    2.047025   -0.572243
     66          6           0      -12.065841    2.319692   -3.000981
     67          1           0        1.163702    1.159224   -4.063140
     68          1           0        3.707705    5.587477   -0.124886
     69          1           0        6.321141    0.972638    3.491420
     70          1           0        2.477699   -3.235262   -2.808288
     71          1           0        0.366297   -1.121063   -3.508905
     72          1           0        2.712512   -0.965699   -5.167745
     73          1           0        1.036154   -1.470310   -5.555996
     74          1           0        2.210492   -2.645504   -4.842882
     75          1           0       -0.190131   -2.481936   -1.628438
     76          1           0        0.868668   -3.023785   -0.508167
     77          1           0        0.955386   -5.142483   -1.393297
     78          1           0        0.566420   -4.601663   -2.995737
     79          1           0        0.067467    4.034423   -4.208422
     80          1           0        1.043062    3.056968   -5.209348
     81          1           0        1.484783    4.673816   -5.222306
     82          1           0        2.271628    6.908221   -0.694723
     83          1           0        2.491261    8.176500   -1.970537
     84          1           0        3.846848    7.025972   -1.477291
     85          1           0        4.407448    5.211329    2.591768
     86          1           0        6.848119    3.718909    2.779387
     87          1           0        6.158457    6.573832    2.311954
     88          1           0        5.779925    6.370597    0.541528
     89          1           0        7.115983    5.546902    1.427178
     90          1           0        4.591326    3.233158    4.611505
     91          1           0        5.484212    4.797621    4.497025
     92          1           0        7.085761    3.880924    5.919230
     93          1           0        7.462307    2.685541    4.596955
     94          1           0        6.318537    2.499447    5.977184
     95          1           0        5.823552   -1.423615    4.361592
     96          1           0        7.418186   -1.158714    3.641546
     97          1           0        6.728729   -2.869228    3.702207
     98          1           0        3.110744   -4.240389   -0.030705
     99          1           0        6.385437   -6.540322   -1.038212
    100          1           0        6.011101   -6.132602   -2.787277
    101          1           0        5.246149   -7.465550   -1.926096
    102          1           0       -3.077875   -5.733892   -0.068390
    103          1           0       -3.845147   -4.772398   -1.375231
    104          1           0       -3.138371   -3.028979    0.760702
    105          1           0       -6.907626   -4.981423    1.260278
    106          1           0       -5.972795   -5.639610   -0.115801
    107          1           0       -6.915968   -4.161153   -0.210549
    108          1           0       -6.641477   -2.477532    1.751340
    109          1           0       -5.063037   -1.768961    1.526475
    110          1           0       -4.615565   -3.797461    3.456749
    111          1           0       -6.243316   -3.225208    3.745205
    112          1           0       -3.777174   -1.363326    3.513274
    113          1           0       -4.416195   -2.014870    5.065828
    114          1           0       -6.659067   -1.058390    3.648078
    115          1           0       -5.330260    0.013705    6.161619
    116          1           0       -6.525322   -1.264131    6.037654
    117          1           0       -6.907444    0.456624    5.557895
    118          1           0       -4.837684    0.170482    2.404695
    119          1           0       -4.548113    1.259084    3.776362
    120          1           0       -6.657291    2.253501    3.518184
    121          1           0       -7.387064    0.723848    2.722063
    122          1           0       -5.452577    1.685117    0.833767
    123          1           0       -6.399879    3.042671    1.300317
    124          1           0       -8.324534    0.773993    0.905579
    125          1           0       -7.104719    1.072175   -1.647085
    126          1           0       -7.483558   -0.431692   -0.711978
    127          1           0       -6.055652    0.399248   -0.498693
    128          1           0       -8.279881    3.023695   -0.908830
    129          1           0       -8.338580    3.473899    0.830880
    130          1           0      -10.598098    3.194371    0.586475
    131          1           0      -10.133838    1.577817    1.014030
    132          1           0      -10.851791    0.725445   -0.810311
    133          1           0       -9.856935    1.901917   -1.764418
    134          1           0      -11.786509    3.613208   -1.282480
    135          1           0      -13.730040    1.403774   -1.043487
    136          1           0      -13.473581    2.956472   -0.220754
    137          1           0      -12.664939    1.494447    0.310353
    138          1           0      -12.309489    1.274375   -3.190151
    139          1           0      -11.134894    2.525382   -3.528761
    140          1           0      -12.771623    3.047330   -3.401407
 ---------------------------------------------------------------------

 SCF Done:  E(RCAM-B3LYP) =  -3007.16151547     A.U. after   17 cycles

 Excitation energies and oscillator strengths:

 Excited State   1:      Singlet-A      1.7288 eV  717.16 nm  f=0.3652  <S**2>=0.000
     245 -> 248        0.19051
     246 -> 247        0.68237
     245 <- 248        0.10970
 This state for optimization and/or second-order correction.
 Total Energy, E(TD-HF/TD-DFT) =  -3007.09798238
 Copying the excited state density for this state as the 1-particle RhoCI density.

 Excited State   2:      Singlet-A      2.2397 eV  553.58 nm  f=0.1041  <S**2>=0.000
     245 -> 247        0.63589
     246 -> 248       -0.29917

 Excited State   3:      Singlet-A      3.4740 eV  356.89 nm  f=0.0141  <S**2>=0.000
     241 -> 251       -0.12643
     243 -> 247        0.55512
     243 -> 249       -0.19917
     243 -> 251       -0.22647
     246 -> 248       -0.11492

 Excited State   4:      Singlet-A      3.5227 eV  351.96 nm  f=0.4456  <S**2>=0.000
     240 -> 247        0.26318
     240 -> 249        0.13983
     242 -> 247        0.11548
     243 -> 247        0.10094
     245 -> 247        0.23879
     246 -> 248        0.53374

 Excited State   5:      Singlet-A      3.6064 eV  343.79 nm  f=0.0866  <S**2>=0.000
     239 -> 247       -0.16575
     240 -> 247       -0.18748
     240 -> 249       -0.20645
     241 -> 247        0.42331
     242 -> 247       -0.28891
     243 -> 247       -0.16455
     246 -> 248        0.20938

 The electronic state is 1-A.
 Alpha  occ. eigenvalues --  -46.89923 -19.24645 -19.24319 -19.20447 -19.19326
 Alpha  occ. eigenvalues --  -19.18982 -19.17967 -14.42836 -14.41710 -14.40192
 Alpha  occ. eigenvalues --  -14.39055 -10.39108 -10.39067 -10.35446 -10.34251
 Alpha  occ. eigenvalues --  -10.31798 -10.31792 -10.31413 -10.31229 -10.31061
 Alpha  occ. eigenvalues --  -10.30774 -10.30675 -10.30083 -10.29564 -10.29217
 Alpha  occ. eigenvalues --  -10.28893 -10.28320 -10.28118 -10.27975 -10.27866
 Alpha  occ. eigenvalues --  -10.27750 -10.27667 -10.27534 -10.27525 -10.27403
 Alpha  occ. eigenvalues --  -10.27386 -10.27091 -10.27040 -10.26978 -10.26739
 Alpha  occ. eigenvalues --  -10.26693 -10.26625 -10.26449 -10.26410 -10.26122
 Alpha  occ. eigenvalues --  -10.26112 -10.25929 -10.25808 -10.25671 -10.25582
 Alpha  occ. eigenvalues --  -10.25373 -10.25183 -10.25136 -10.25128 -10.24968
 Alpha  occ. eigenvalues --  -10.24933 -10.24914 -10.24821 -10.24647 -10.24443
 Alpha  occ. eigenvalues --  -10.24433 -10.24363 -10.23977 -10.23948 -10.23918
 Alpha  occ. eigenvalues --  -10.23553  -3.18351  -1.93218  -1.92802  -1.92667
 Alpha  occ. eigenvalues --   -1.17568  -1.17002  -1.10141  -1.09430  -1.09132
 Alpha  occ. eigenvalues --   -1.08067  -1.06419  -1.03771  -1.02873  -1.01588
 Alpha  occ. eigenvalues --   -0.93541  -0.90823  -0.90376  -0.90188  -0.90157
 Alpha  occ. eigenvalues --   -0.88790  -0.88626  -0.87756  -0.87698  -0.87532
 Alpha  occ. eigenvalues --   -0.86738  -0.86010  -0.84278  -0.83955  -0.83636
 Alpha  occ. eigenvalues --   -0.82447  -0.82120  -0.81295  -0.80776  -0.80564
 Alpha  occ. eigenvalues --   -0.79645  -0.79064  -0.77911  -0.77371  -0.76281
 Alpha  occ. eigenvalues --   -0.75793  -0.75777  -0.75545  -0.75016  -0.73737
 Alpha  occ. eigenvalues --   -0.73370  -0.72801  -0.71981  -0.71021  -0.70276
 Alpha  occ. eigenvalues --   -0.68808  -0.68072  -0.67626  -0.66283  -0.66104
 Alpha  occ. eigenvalues --   -0.65760  -0.64643  -0.64598  -0.64486  -0.64155
 Alpha  occ. eigenvalues --   -0.63685  -0.63061  -0.62639  -0.62335  -0.60685
 Alpha  occ. eigenvalues --   -0.60273  -0.59815  -0.59613  -0.59111  -0.58931
 Alpha  occ. eigenvalues --   -0.57828  -0.57340  -0.56857  -0.56400  -0.56277
 Alpha  occ. eigenvalues --   -0.55343  -0.54796  -0.54735  -0.54629  -0.54349
 Alpha  occ. eigenvalues --   -0.54013  -0.53734  -0.53370  -0.53226  -0.52911
 Alpha  occ. eigenvalues --   -0.52799  -0.52354  -0.52302  -0.52170  -0.51990
 Alpha  occ. eigenvalues --   -0.51813  -0.51551  -0.51267  -0.51049  -0.50829
 Alpha  occ. eigenvalues --   -0.50560  -0.50310  -0.50177  -0.50045  -0.49804
 Alpha  occ. eigenvalues --   -0.49559  -0.49316  -0.49119  -0.48930  -0.48855
 Alpha  occ. eigenvalues --   -0.48644  -0.48256  -0.48192  -0.47985  -0.47895
 Alpha  occ. eigenvalues --   -0.47611  -0.47583  -0.47325  -0.47279  -0.47010
 Alpha  occ. eigenvalues --   -0.46726  -0.46541  -0.46397  -0.46195  -0.46185
 Alpha  occ. eigenvalues --   -0.45730  -0.45415  -0.45201  -0.45097  -0.44661
 Alpha  occ. eigenvalues --   -0.44656  -0.44468  -0.44311  -0.44205  -0.44021
 Alpha  occ. eigenvalues --   -0.43698  -0.43629  -0.43567  -0.43311  -0.43241
 Alpha  occ. eigenvalues --   -0.42975  -0.42652  -0.42506  -0.42413  -0.42405
 Alpha  occ. eigenvalues --   -0.42013  -0.41940  -0.41907  -0.41664  -0.41587
 Alpha  occ. eigenvalues --   -0.41051  -0.40993  -0.40745  -0.40471  -0.40189
 Alpha  occ. eigenvalues --   -0.40085  -0.39471  -0.39109  -0.39009  -0.38670
 Alpha  occ. eigenvalues --   -0.38462  -0.38245  -0.37750  -0.37636  -0.37374
 Alpha  occ. eigenvalues --   -0.37061  -0.36875  -0.36751  -0.36618  -0.36538
 Alpha  occ. eigenvalues --   -0.36390  -0.35662  -0.35123  -0.34934  -0.34589
 Alpha  occ. eigenvalues --   -0.33802  -0.33035  -0.32873  -0.31569  -0.31109
 Alpha  occ. eigenvalues --   -0.30594  -0.30364  -0.30133  -0.29395  -0.23926
 Alpha  occ. eigenvalues --   -0.21211
 Alpha virt. eigenvalues --   -0.08533  -0.01860   0.00357   0.01351   0.02163
 Alpha virt. eigenvalues --    0.05120   0.05143   0.05548   0.05822   0.07160
 Alpha virt. eigenvalues --    0.07619   0.07871   0.08484   0.08928   0.09136

 Mulliken charges:
               1
     1  Mg   0.846117
     2  C   -0.073575
     3  C   -0.050215
     4  C   -0.109533
     5  C   -0.096286
     6  N   -0.299822
     7  C   -0.038564
     8  C   -0.006194
     9  C   -0.062336
    10  C    0.029507
    11  C    0.092667
    12  C    0.080156
    13  C    0.032047
    14  C    0.148232
    15  O   -0.208186
    16  O   -0.349066
    17  N   -0.423691
    18  C    0.151408
    19  C   -0.134672
    20  C   -0.036000
    21  C    0.191410
    22  C    0.146245
    23  C   -0.052375
    24  O   -0.205138
    25  C    0.077649
    26  N   -0.289430
    27  C    0.020879
    28  C   -0.025562
    29  C   -0.027938
    30  C    0.053458
    31  C    0.080169
    32  C    0.065619
    33  C   -0.015726
    34  N   -0.216829
    35  C    0.067383
    36  C   -0.225974
    37  C   -0.001591
    38  C    0.095751
    39  C    0.138869
    40  C    0.068979
    41  O   -0.177284
    42  C   -0.006410
    43  C    0.191699
    44  O   -0.195110
    45  O   -0.313462
    46  C    0.171059
    47  C    0.295526
    48  C   -0.142070
    49  C   -0.134220
    50  C    0.078368
    51  C    0.029078
    52  C    0.000340
    53  C    0.096118
    54  C   -0.171666
    55  C    0.060387
    56  C    0.031564
    57  C    0.035764
    58  C    0.044417
    59  C   -0.174420
    60  C    0.063228
    61  C    0.072617
    62  C   -0.010093
    63  C    0.061448
    64  C   -0.151296
    65  C    0.057267
    66  C    0.051336
    67  H   -0.034310
    68  H   -0.053379
    69  H   -0.042129
    70  H    0.012535
    71  H    0.019517
    72  H    0.026215
    73  H    0.020876
    74  H    0.013935
    75  H    0.000470
    76  H    0.012948
    77  H    0.047828
    78  H    0.032472
    79  H    0.033569
    80  H   -0.011033
    81  H    0.038778
    82  H    0.045390
    83  H    0.032550
    84  H    0.029003
    85  H    0.007468
    86  H    0.006526
    87  H    0.007737
    88  H    0.034736
    89  H    0.008324
    90  H    0.014828
    91  H    0.006986
    92  H    0.006004
    93  H    0.034198
    94  H    0.005985
    95  H    0.031375
    96  H    0.031621
    97  H    0.041543
    98  H    0.038858
    99  H    0.036859
   100  H    0.045099
   101  H    0.023541
   102  H    0.030374
   103  H    0.031366
   104  H    0.008394
   105  H    0.013719
   106  H    0.019726
   107  H    0.022892
   108  H   -0.004474
   109  H    0.011745
   110  H    0.002712
   111  H   -0.004263
   112  H    0.002234
   113  H   -0.013393
   114  H   -0.000938
   115  H    0.001580
   116  H    0.007362
   117  H    0.005989
   118  H   -0.016190
   119  H    0.005152
   120  H    0.013017
   121  H    0.004419
   122  H   -0.001202
   123  H   -0.012709
   124  H   -0.002297
   125  H    0.000375
   126  H    0.004386
   127  H   -0.015574
   128  H   -0.004375
   129  H   -0.005852
   130  H   -0.009844
   131  H   -0.012058
   132  H   -0.003224
   133  H   -0.014874
   134  H   -0.001504
   135  H    0.006624
   136  H    0.000618
   137  H    0.006468
   138  H    0.008131
   139  H    0.000602
   140  H    0.005937
 Sum of Mulliken charges =  -0.00000

 Dipole moment (field-independent basis, Debye):
    X=             -0.0455    Y=              3.1907    Z=              2.1759  Tot=              3.8623
 Quadrupole moment (field-independent basis, Debye-Ang):
   XX=           -386.5196   YY=           -432.2827   ZZ=           -398.9884
   XY=             29.9398   XZ=              4.3715   YZ=             28.0138

 Normal termination of Gaussian 16 at Sat Apr 30 15:21:59 2022.
