 Gaussian 16, Revision A.03,
 Gaussian 16:  ES64L-G16RevA.03 25-Dec-2016

 ---------------------------------
 #p PBE1PBE/Def2SVP td=(nstates=5)
 ---------------------------------

 -----------------------------------------------------
 step_801_chromophore_17 TDDFT with PBE1PBE functional
 -----------------------------------------------------
 Symbolic Z-matrix:
 Charge =  0 Multiplicity = 1

                         Standard orientation:
 ---------------------------------------------------------------------
 Center     Atomic      Atomic             Coordinates (Angstroms)
 Number     Number       Type             X           Y           Z
 ---------------------------------------------------------------------
      1         12           0        4.040779    1.109360   -0.691783
      2          6           0        3.783207   -2.303280   -0.426877
      3          6           0        1.824025    1.167152   -3.193195
      4          6           0        3.814047    4.504911   -0.228796
      5          6           0        5.695586    1.016398    2.597277
      6          7           0        2.838564   -0.435703   -1.611647
      7          6           0        2.838366   -1.772103   -1.375129
      8          6           0        1.842204   -2.454923   -2.389065
      9          6           0        1.433528   -1.331775   -3.453479
     10          6           0        2.124096   -0.119399   -2.737179
     11          6           0        1.879460   -1.607674   -4.878749
     12          6           0        0.717590   -3.085308   -1.585974
     13          6           0        0.294580   -4.476155   -1.948046
     14          6           0       -1.056445   -5.022240   -1.712670
     15          8           0       -1.438699   -6.079305   -2.114846
     16          8           0       -1.855291   -4.291884   -0.876258
     17          7           0        3.147751    2.596262   -1.684627
     18          6           0        2.311271    2.444415   -2.798913
     19          6           0        1.975911    3.715843   -3.333472
     20          6           0        2.491658    4.685882   -2.478611
     21          6           0        3.229792    3.917865   -1.382682
     22          6           0        1.098139    3.915725   -4.540928
     23          6           0        2.321807    6.162772   -2.628741
     24          8           0        1.608879    6.604972   -3.507149
     25          6           0        2.777566    7.185425   -1.619655
     26          7           0        4.584794    2.568812    1.032108
     27          6           0        4.403857    3.937777    0.910374
     28          6           0        5.157879    4.734651    1.961526
     29          6           0        5.771954    3.578566    2.880298
     30          6           0        5.369559    2.319112    2.183333
     31          6           0        6.080321    5.885094    1.470223
     32          6           0        5.511025    3.726850    4.295858
     33          6           0        6.689950    3.165548    5.198963
     34          7           0        4.699273   -0.357053    0.768698
     35          6           0        5.377141   -0.241121    1.929064
     36          6           0        5.722186   -1.566681    2.425387
     37          6           0        5.130456   -2.391098    1.495894
     38          6           0        4.522216   -1.587190    0.530320
     39          6           0        6.536721   -1.798659    3.627483
     40          6           0        4.891956   -3.810526    1.107201
     41          8           0        5.332180   -4.879281    1.545374
     42          6           0        4.074889   -3.750281   -0.164392
     43          6           0        4.857797   -4.312147   -1.271911
     44          8           0        5.725967   -3.788085   -1.917618
     45          8           0        4.606537   -5.650861   -1.214891
     46          6           0        5.629072   -6.450604   -1.817245
     47          6           0       -3.182804   -4.742838   -0.509403
     48          6           0       -3.787029   -3.873273    0.527979
     49          6           0       -5.085478   -3.845564    0.904162
     50          6           0       -6.246336   -4.736373    0.429373
     51          6           0       -5.574073   -2.686959    1.819427
     52          6           0       -5.276152   -2.939468    3.332016
     53          6           0       -4.654781   -1.740566    4.038304
     54          6           0       -5.749358   -0.669952    4.106645
     55          6           0       -6.170815   -0.346662    5.567764
     56          6           0       -5.279782    0.608286    3.298630
     57          6           0       -6.553956    1.418336    2.825550
     58          6           0       -6.377151    1.954094    1.344817
     59          6           0       -7.625898    1.467666    0.438546
     60          6           0       -7.114444    0.593105   -0.667673
     61          6           0       -8.539007    2.692504    0.096883
     62          6           0      -10.053423    2.322375    0.222331
     63          6           0      -10.653613    1.773284   -1.030910
     64          6           0      -11.875360    2.538813   -1.442848
     65          6           0      -12.987696    2.047025   -0.572243
     66          6           0      -12.065841    2.319692   -3.000981
     67          1           0        1.163702    1.159224   -4.063140
     68          1           0        3.707705    5.587477   -0.124886
     69          1           0        6.321141    0.972638    3.491420
     70          1           0        2.477699   -3.235262   -2.808288
     71          1           0        0.366297   -1.121063   -3.508905
     72          1           0        2.712512   -0.965699   -5.167745
     73          1           0        1.036154   -1.470310   -5.555996
     74          1           0        2.210492   -2.645504   -4.842882
     75          1           0       -0.190131   -2.481936   -1.628438
     76          1           0        0.868668   -3.023785   -0.508167
     77          1           0        0.955386   -5.142483   -1.393297
     78          1           0        0.566420   -4.601663   -2.995737
     79          1           0        0.067467    4.034423   -4.208422
     80          1           0        1.043062    3.056968   -5.209348
     81          1           0        1.484783    4.673816   -5.222306
     82          1           0        2.271628    6.908221   -0.694723
     83          1           0        2.491261    8.176500   -1.970537
     84          1           0        3.846848    7.025972   -1.477291
     85          1           0        4.407448    5.211329    2.591768
     86          1           0        6.848119    3.718909    2.779387
     87          1           0        6.158457    6.573832    2.311954
     88          1           0        5.779925    6.370597    0.541528
     89          1           0        7.115983    5.546902    1.427178
     90          1           0        4.591326    3.233158    4.611505
     91          1           0        5.484212    4.797621    4.497025
     92          1           0        7.085761    3.880924    5.919230
     93          1           0        7.462307    2.685541    4.596955
     94          1           0        6.318537    2.499447    5.977184
     95          1           0        5.823552   -1.423615    4.361592
     96          1           0        7.418186   -1.158714    3.641546
     97          1           0        6.728729   -2.869228    3.702207
     98          1           0        3.110744   -4.240389   -0.030705
     99          1           0        6.385437   -6.540322   -1.038212
    100          1           0        6.011101   -6.132602   -2.787277
    101          1           0        5.246149   -7.465550   -1.926096
    102          1           0       -3.077875   -5.733892   -0.068390
    103          1           0       -3.845147   -4.772398   -1.375231
    104          1           0       -3.138371   -3.028979    0.760702
    105          1           0       -6.907626   -4.981423    1.260278
    106          1           0       -5.972795   -5.639610   -0.115801
    107          1           0       -6.915968   -4.161153   -0.210549
    108          1           0       -6.641477   -2.477532    1.751340
    109          1           0       -5.063037   -1.768961    1.526475
    110          1           0       -4.615565   -3.797461    3.456749
    111          1           0       -6.243316   -3.225208    3.745205
    112          1           0       -3.777174   -1.363326    3.513274
    113          1           0       -4.416195   -2.014870    5.065828
    114          1           0       -6.659067   -1.058390    3.648078
    115          1           0       -5.330260    0.013705    6.161619
    116          1           0       -6.525322   -1.264131    6.037654
    117          1           0       -6.907444    0.456624    5.557895
    118          1           0       -4.837684    0.170482    2.404695
    119          1           0       -4.548113    1.259084    3.776362
    120          1           0       -6.657291    2.253501    3.518184
    121          1           0       -7.387064    0.723848    2.722063
    122          1           0       -5.452577    1.685117    0.833767
    123          1           0       -6.399879    3.042671    1.300317
    124          1           0       -8.324534    0.773993    0.905579
    125          1           0       -7.104719    1.072175   -1.647085
    126          1           0       -7.483558   -0.431692   -0.711978
    127          1           0       -6.055652    0.399248   -0.498693
    128          1           0       -8.279881    3.023695   -0.908830
    129          1           0       -8.338580    3.473899    0.830880
    130          1           0      -10.598098    3.194371    0.586475
    131          1           0      -10.133838    1.577817    1.014030
    132          1           0      -10.851791    0.725445   -0.810311
    133          1           0       -9.856935    1.901917   -1.764418
    134          1           0      -11.786509    3.613208   -1.282480
    135          1           0      -13.730040    1.403774   -1.043487
    136          1           0      -13.473581    2.956472   -0.220754
    137          1           0      -12.664939    1.494447    0.310353
    138          1           0      -12.309489    1.274375   -3.190151
    139          1           0      -11.134894    2.525382   -3.528761
    140          1           0      -12.771623    3.047330   -3.401407
 ---------------------------------------------------------------------

 SCF Done:  E(RPBE1PBE) =  -3005.35107379     A.U. after   15 cycles

 Excitation energies and oscillator strengths:

 Excited State   1:      Singlet-A      1.8837 eV  658.21 nm  f=0.3566  <S**2>=0.000
     245 -> 248        0.18473
     246 -> 247        0.68836
     246 <- 247       -0.10008
 This state for optimization and/or second-order correction.
 Total Energy, E(TD-HF/TD-DFT) =  -3005.28185034
 Copying the excited state density for this state as the 1-particle RhoCI density.

 Excited State   2:      Singlet-A      2.2452 eV  552.21 nm  f=0.1029  <S**2>=0.000
     245 -> 247        0.64734
     246 -> 248       -0.27268

 Excited State   3:      Singlet-A      2.9178 eV  424.92 nm  f=0.0001  <S**2>=0.000
     243 -> 247        0.67445
     243 -> 249       -0.11904
     243 -> 250       -0.13906

 Excited State   4:      Singlet-A      3.1443 eV  394.31 nm  f=0.0081  <S**2>=0.000
     240 -> 247        0.34714
     240 -> 249        0.12315
     241 -> 247        0.44348
     241 -> 249        0.14248
     242 -> 247       -0.31898
     246 -> 248        0.13810

 Excited State   5:      Singlet-A      3.2666 eV  379.55 nm  f=0.0049  <S**2>=0.000
     241 -> 247        0.34776
     242 -> 247        0.59517

 The electronic state is 1-A.
 Alpha  occ. eigenvalues --  -46.93308 -19.25307 -19.24995 -19.20617 -19.19588
 Alpha  occ. eigenvalues --  -19.19228 -19.18128 -14.42253 -14.41319 -14.39785
 Alpha  occ. eigenvalues --  -14.38658 -10.36062 -10.36055 -10.32631 -10.31337
 Alpha  occ. eigenvalues --  -10.29643 -10.29176 -10.28969 -10.28916 -10.28688
 Alpha  occ. eigenvalues --  -10.28589 -10.27885 -10.27689 -10.27423 -10.27042
 Alpha  occ. eigenvalues --  -10.26664 -10.26151 -10.25874 -10.25596 -10.25484
 Alpha  occ. eigenvalues --  -10.25361 -10.25344 -10.25339 -10.25194 -10.25001
 Alpha  occ. eigenvalues --  -10.24913 -10.24848 -10.24633 -10.24528 -10.24380
 Alpha  occ. eigenvalues --  -10.24337 -10.24282 -10.23840 -10.23827 -10.23644
 Alpha  occ. eigenvalues --  -10.23622 -10.23378 -10.23215 -10.23192 -10.23092
 Alpha  occ. eigenvalues --  -10.22936 -10.22918 -10.22770 -10.22768 -10.22694
 Alpha  occ. eigenvalues --  -10.22501 -10.22484 -10.22446 -10.22229 -10.21986
 Alpha  occ. eigenvalues --  -10.21819 -10.21748 -10.21518 -10.21304 -10.21285
 Alpha  occ. eigenvalues --  -10.21065  -3.15318  -1.88124  -1.87687  -1.87555
 Alpha  occ. eigenvalues --   -1.12321  -1.11816  -1.04829  -1.04186  -1.03937
 Alpha  occ. eigenvalues --   -1.02940  -1.01247  -0.98328  -0.97446  -0.96186
 Alpha  occ. eigenvalues --   -0.87909  -0.85007  -0.84517  -0.84475  -0.84256
 Alpha  occ. eigenvalues --   -0.83084  -0.82784  -0.82118  -0.81986  -0.81670
 Alpha  occ. eigenvalues --   -0.80997  -0.80253  -0.78497  -0.78274  -0.77838
 Alpha  occ. eigenvalues --   -0.76644  -0.76334  -0.75474  -0.75084  -0.74893
 Alpha  occ. eigenvalues --   -0.73827  -0.73329  -0.72242  -0.71625  -0.70613
 Alpha  occ. eigenvalues --   -0.70151  -0.69838  -0.69720  -0.69128  -0.67975
 Alpha  occ. eigenvalues --   -0.67745  -0.67141  -0.66390  -0.65326  -0.64690
 Alpha  occ. eigenvalues --   -0.63261  -0.62263  -0.62065  -0.60580  -0.60476
 Alpha  occ. eigenvalues --   -0.60201  -0.59170  -0.59050  -0.58897  -0.58368
 Alpha  occ. eigenvalues --   -0.57940  -0.57253  -0.56900  -0.56796  -0.55062
 Alpha  occ. eigenvalues --   -0.54789  -0.54438  -0.53981  -0.53663  -0.53496
 Alpha  occ. eigenvalues --   -0.52425  -0.51741  -0.51320  -0.50922  -0.50764
 Alpha  occ. eigenvalues --   -0.49945  -0.49351  -0.49184  -0.49044  -0.48950
 Alpha  occ. eigenvalues --   -0.48474  -0.48268  -0.47968  -0.47746  -0.47489
 Alpha  occ. eigenvalues --   -0.47268  -0.46863  -0.46811  -0.46628  -0.46521
 Alpha  occ. eigenvalues --   -0.46383  -0.46061  -0.45749  -0.45716  -0.45403
 Alpha  occ. eigenvalues --   -0.45208  -0.44961  -0.44701  -0.44551  -0.44366
 Alpha  occ. eigenvalues --   -0.44104  -0.43902  -0.43756  -0.43559  -0.43520
 Alpha  occ. eigenvalues --   -0.43254  -0.42939  -0.42756  -0.42646  -0.42561
 Alpha  occ. eigenvalues --   -0.42299  -0.42200  -0.41961  -0.41879  -0.41613
 Alpha  occ. eigenvalues --   -0.41368  -0.41164  -0.41096  -0.41002  -0.40721
 Alpha  occ. eigenvalues --   -0.40448  -0.40053  -0.39889  -0.39834  -0.39487
 Alpha  occ. eigenvalues --   -0.39367  -0.39137  -0.39108  -0.38955  -0.38826
 Alpha  occ. eigenvalues --   -0.38543  -0.38391  -0.38286  -0.38100  -0.37919
 Alpha  occ. eigenvalues --   -0.37712  -0.37465  -0.37352  -0.37252  -0.37178
 Alpha  occ. eigenvalues --   -0.36811  -0.36743  -0.36680  -0.36503  -0.36372
 Alpha  occ. eigenvalues --   -0.35908  -0.35731  -0.35507  -0.35282  -0.34981
 Alpha  occ. eigenvalues --   -0.34961  -0.34244  -0.34004  -0.33804  -0.33733
 Alpha  occ. eigenvalues --   -0.33271  -0.33042  -0.32739  -0.32393  -0.32163
 Alpha  occ. eigenvalues --   -0.32085  -0.31800  -0.31647  -0.31514  -0.31506
 Alpha  occ. eigenvalues --   -0.31271  -0.30534  -0.29933  -0.29849  -0.29712
 Alpha  occ. eigenvalues --   -0.28616  -0.28509  -0.28055  -0.27118  -0.26224
 Alpha  occ. eigenvalues --   -0.25997  -0.25949  -0.24897  -0.24661  -0.20870
 Alpha  occ. eigenvalues --   -0.18842
 Alpha virt. eigenvalues --   -0.11033  -0.05327  -0.03910  -0.02222  -0.01381
 Alpha virt. eigenvalues --    0.00626   0.00709   0.01169   0.01359   0.03385
 Alpha virt. eigenvalues --    0.04101   0.04433   0.04642   0.05257   0.05666

 Mulliken charges:
               1
     1  Mg   0.984574
     2  C   -0.083930
     3  C   -0.044379
     4  C   -0.113628
     5  C   -0.086813
     6  N   -0.403082
     7  C    0.045409
     8  C   -0.091388
     9  C   -0.130951
    10  C    0.064011
    11  C    0.035605
    12  C    0.041229
    13  C   -0.053236
    14  C    0.224387
    15  O   -0.244150
    16  O   -0.385798
    17  N   -0.542972
    18  C    0.168983
    19  C   -0.159780
    20  C   -0.087513
    21  C    0.223740
    22  C    0.091260
    23  C    0.002640
    24  O   -0.239341
    25  C   -0.008553
    26  N   -0.381790
    27  C    0.071668
    28  C   -0.104962
    29  C   -0.105118
    30  C    0.094461
    31  C    0.018232
    32  C    0.000998
    33  C   -0.086510
    34  N   -0.357579
    35  C    0.092148
    36  C   -0.242838
    37  C   -0.050822
    38  C    0.148658
    39  C    0.078208
    40  C    0.173387
    41  O   -0.222642
    42  C   -0.119393
    43  C    0.282724
    44  O   -0.230792
    45  O   -0.345747
    46  C    0.115258
    47  C    0.260801
    48  C   -0.153287
    49  C   -0.179349
    50  C    0.015032
    51  C   -0.035711
    52  C   -0.064990
    53  C    0.036276
    54  C   -0.255873
    55  C    0.000427
    56  C   -0.023450
    57  C   -0.030274
    58  C   -0.010229
    59  C   -0.252026
    60  C    0.007691
    61  C    0.015222
    62  C   -0.069649
    63  C   -0.000133
    64  C   -0.246404
    65  C    0.002313
    66  C   -0.011090
    67  H   -0.002854
    68  H   -0.017013
    69  H   -0.005772
    70  H    0.054099
    71  H    0.054534
    72  H    0.053763
    73  H    0.047571
    74  H    0.041685
    75  H    0.033968
    76  H    0.045402
    77  H    0.081151
    78  H    0.064710
    79  H    0.061230
    80  H    0.016002
    81  H    0.064907
    82  H    0.072851
    83  H    0.060447
    84  H    0.057438
    85  H    0.046776
    86  H    0.046554
    87  H    0.035523
    88  H    0.062007
    89  H    0.036062
    90  H    0.047430
    91  H    0.041993
    92  H    0.034412
    93  H    0.058102
    94  H    0.033870
    95  H    0.060702
    96  H    0.058852
    97  H    0.070328
    98  H    0.078911
    99  H    0.059869
   100  H    0.066370
   101  H    0.046095
   102  H    0.057227
   103  H    0.057386
   104  H    0.037333
   105  H    0.041900
   106  H    0.046151
   107  H    0.050856
   108  H    0.026756
   109  H    0.048636
   110  H    0.036031
   111  H    0.029603
   112  H    0.035169
   113  H    0.020800
   114  H    0.036954
   115  H    0.029720
   116  H    0.035565
   117  H    0.034722
   118  H    0.018987
   119  H    0.036640
   120  H    0.045105
   121  H    0.037780
   122  H    0.028558
   123  H    0.020244
   124  H    0.033701
   125  H    0.027030
   126  H    0.031139
   127  H    0.012121
   128  H    0.028088
   129  H    0.027480
   130  H    0.022283
   131  H    0.020548
   132  H    0.029745
   133  H    0.019035
   134  H    0.035583
   135  H    0.033755
   136  H    0.028176
   137  H    0.033550
   138  H    0.035645
   139  H    0.028697
   140  H    0.034160
 Sum of Mulliken charges =  -0.00000

 Dipole moment (field-independent basis, Debye):
    X=              0.0624    Y=              3.1495    Z=              2.3948  Tot=              3.9571
 Quadrupole moment (field-independent basis, Debye-Ang):
   XX=           -382.2815   YY=           -429.3808   ZZ=           -395.0765
   XY=             30.3726   XZ=              6.1761   YZ=             29.1169

 Normal termination of Gaussian 16 at Sat Apr 30 15:42:31 2022.
