 Gaussian 16, Revision A.03,
 Gaussian 16:  ES64L-G16RevA.03 25-Dec-2016

 --------------------------------
 #p wB97XD/Def2SVP td=(nstates=5)
 --------------------------------

 ----------------------------------------------------
 step_801_chromophore_17 TDDFT with wB97XD functional
 ----------------------------------------------------
 Symbolic Z-matrix:
 Charge =  0 Multiplicity = 1

                         Standard orientation:
 ---------------------------------------------------------------------
 Center     Atomic      Atomic             Coordinates (Angstroms)
 Number     Number       Type             X           Y           Z
 ---------------------------------------------------------------------
      1         12           0        4.040779    1.109360   -0.691783
      2          6           0        3.783207   -2.303280   -0.426877
      3          6           0        1.824025    1.167152   -3.193195
      4          6           0        3.814047    4.504911   -0.228796
      5          6           0        5.695586    1.016398    2.597277
      6          7           0        2.838564   -0.435703   -1.611647
      7          6           0        2.838366   -1.772103   -1.375129
      8          6           0        1.842204   -2.454923   -2.389065
      9          6           0        1.433528   -1.331775   -3.453479
     10          6           0        2.124096   -0.119399   -2.737179
     11          6           0        1.879460   -1.607674   -4.878749
     12          6           0        0.717590   -3.085308   -1.585974
     13          6           0        0.294580   -4.476155   -1.948046
     14          6           0       -1.056445   -5.022240   -1.712670
     15          8           0       -1.438699   -6.079305   -2.114846
     16          8           0       -1.855291   -4.291884   -0.876258
     17          7           0        3.147751    2.596262   -1.684627
     18          6           0        2.311271    2.444415   -2.798913
     19          6           0        1.975911    3.715843   -3.333472
     20          6           0        2.491658    4.685882   -2.478611
     21          6           0        3.229792    3.917865   -1.382682
     22          6           0        1.098139    3.915725   -4.540928
     23          6           0        2.321807    6.162772   -2.628741
     24          8           0        1.608879    6.604972   -3.507149
     25          6           0        2.777566    7.185425   -1.619655
     26          7           0        4.584794    2.568812    1.032108
     27          6           0        4.403857    3.937777    0.910374
     28          6           0        5.157879    4.734651    1.961526
     29          6           0        5.771954    3.578566    2.880298
     30          6           0        5.369559    2.319112    2.183333
     31          6           0        6.080321    5.885094    1.470223
     32          6           0        5.511025    3.726850    4.295858
     33          6           0        6.689950    3.165548    5.198963
     34          7           0        4.699273   -0.357053    0.768698
     35          6           0        5.377141   -0.241121    1.929064
     36          6           0        5.722186   -1.566681    2.425387
     37          6           0        5.130456   -2.391098    1.495894
     38          6           0        4.522216   -1.587190    0.530320
     39          6           0        6.536721   -1.798659    3.627483
     40          6           0        4.891956   -3.810526    1.107201
     41          8           0        5.332180   -4.879281    1.545374
     42          6           0        4.074889   -3.750281   -0.164392
     43          6           0        4.857797   -4.312147   -1.271911
     44          8           0        5.725967   -3.788085   -1.917618
     45          8           0        4.606537   -5.650861   -1.214891
     46          6           0        5.629072   -6.450604   -1.817245
     47          6           0       -3.182804   -4.742838   -0.509403
     48          6           0       -3.787029   -3.873273    0.527979
     49          6           0       -5.085478   -3.845564    0.904162
     50          6           0       -6.246336   -4.736373    0.429373
     51          6           0       -5.574073   -2.686959    1.819427
     52          6           0       -5.276152   -2.939468    3.332016
     53          6           0       -4.654781   -1.740566    4.038304
     54          6           0       -5.749358   -0.669952    4.106645
     55          6           0       -6.170815   -0.346662    5.567764
     56          6           0       -5.279782    0.608286    3.298630
     57          6           0       -6.553956    1.418336    2.825550
     58          6           0       -6.377151    1.954094    1.344817
     59          6           0       -7.625898    1.467666    0.438546
     60          6           0       -7.114444    0.593105   -0.667673
     61          6           0       -8.539007    2.692504    0.096883
     62          6           0      -10.053423    2.322375    0.222331
     63          6           0      -10.653613    1.773284   -1.030910
     64          6           0      -11.875360    2.538813   -1.442848
     65          6           0      -12.987696    2.047025   -0.572243
     66          6           0      -12.065841    2.319692   -3.000981
     67          1           0        1.163702    1.159224   -4.063140
     68          1           0        3.707705    5.587477   -0.124886
     69          1           0        6.321141    0.972638    3.491420
     70          1           0        2.477699   -3.235262   -2.808288
     71          1           0        0.366297   -1.121063   -3.508905
     72          1           0        2.712512   -0.965699   -5.167745
     73          1           0        1.036154   -1.470310   -5.555996
     74          1           0        2.210492   -2.645504   -4.842882
     75          1           0       -0.190131   -2.481936   -1.628438
     76          1           0        0.868668   -3.023785   -0.508167
     77          1           0        0.955386   -5.142483   -1.393297
     78          1           0        0.566420   -4.601663   -2.995737
     79          1           0        0.067467    4.034423   -4.208422
     80          1           0        1.043062    3.056968   -5.209348
     81          1           0        1.484783    4.673816   -5.222306
     82          1           0        2.271628    6.908221   -0.694723
     83          1           0        2.491261    8.176500   -1.970537
     84          1           0        3.846848    7.025972   -1.477291
     85          1           0        4.407448    5.211329    2.591768
     86          1           0        6.848119    3.718909    2.779387
     87          1           0        6.158457    6.573832    2.311954
     88          1           0        5.779925    6.370597    0.541528
     89          1           0        7.115983    5.546902    1.427178
     90          1           0        4.591326    3.233158    4.611505
     91          1           0        5.484212    4.797621    4.497025
     92          1           0        7.085761    3.880924    5.919230
     93          1           0        7.462307    2.685541    4.596955
     94          1           0        6.318537    2.499447    5.977184
     95          1           0        5.823552   -1.423615    4.361592
     96          1           0        7.418186   -1.158714    3.641546
     97          1           0        6.728729   -2.869228    3.702207
     98          1           0        3.110744   -4.240389   -0.030705
     99          1           0        6.385437   -6.540322   -1.038212
    100          1           0        6.011101   -6.132602   -2.787277
    101          1           0        5.246149   -7.465550   -1.926096
    102          1           0       -3.077875   -5.733892   -0.068390
    103          1           0       -3.845147   -4.772398   -1.375231
    104          1           0       -3.138371   -3.028979    0.760702
    105          1           0       -6.907626   -4.981423    1.260278
    106          1           0       -5.972795   -5.639610   -0.115801
    107          1           0       -6.915968   -4.161153   -0.210549
    108          1           0       -6.641477   -2.477532    1.751340
    109          1           0       -5.063037   -1.768961    1.526475
    110          1           0       -4.615565   -3.797461    3.456749
    111          1           0       -6.243316   -3.225208    3.745205
    112          1           0       -3.777174   -1.363326    3.513274
    113          1           0       -4.416195   -2.014870    5.065828
    114          1           0       -6.659067   -1.058390    3.648078
    115          1           0       -5.330260    0.013705    6.161619
    116          1           0       -6.525322   -1.264131    6.037654
    117          1           0       -6.907444    0.456624    5.557895
    118          1           0       -4.837684    0.170482    2.404695
    119          1           0       -4.548113    1.259084    3.776362
    120          1           0       -6.657291    2.253501    3.518184
    121          1           0       -7.387064    0.723848    2.722063
    122          1           0       -5.452577    1.685117    0.833767
    123          1           0       -6.399879    3.042671    1.300317
    124          1           0       -8.324534    0.773993    0.905579
    125          1           0       -7.104719    1.072175   -1.647085
    126          1           0       -7.483558   -0.431692   -0.711978
    127          1           0       -6.055652    0.399248   -0.498693
    128          1           0       -8.279881    3.023695   -0.908830
    129          1           0       -8.338580    3.473899    0.830880
    130          1           0      -10.598098    3.194371    0.586475
    131          1           0      -10.133838    1.577817    1.014030
    132          1           0      -10.851791    0.725445   -0.810311
    133          1           0       -9.856935    1.901917   -1.764418
    134          1           0      -11.786509    3.613208   -1.282480
    135          1           0      -13.730040    1.403774   -1.043487
    136          1           0      -13.473581    2.956472   -0.220754
    137          1           0      -12.664939    1.494447    0.310353
    138          1           0      -12.309489    1.274375   -3.190151
    139          1           0      -11.134894    2.525382   -3.528761
    140          1           0      -12.771623    3.047330   -3.401407
 ---------------------------------------------------------------------

 SCF Done:  E(RwB97XD) =  -3007.85966461     A.U. after   17 cycles

 Excitation energies and oscillator strengths:

 Excited State   1:      Singlet-A      1.6725 eV  741.33 nm  f=0.3637  <S**2>=0.000
     245 -> 248        0.19616
     246 -> 247        0.68038
     245 <- 248        0.11936
 This state for optimization and/or second-order correction.
 Total Energy, E(TD-HF/TD-DFT) =  -3007.79820316
 Copying the excited state density for this state as the 1-particle RhoCI density.

 Excited State   2:      Singlet-A      2.1883 eV  566.59 nm  f=0.1018  <S**2>=0.000
     245 -> 247        0.63428
     246 -> 248       -0.30164

 Excited State   3:      Singlet-A      3.4893 eV  355.32 nm  f=0.0192  <S**2>=0.000
     243 -> 247        0.54962
     243 -> 248       -0.10323
     243 -> 249       -0.23838
     243 -> 250       -0.27164
     246 -> 248       -0.13045

 Excited State   4:      Singlet-A      3.5451 eV  349.73 nm  f=0.4580  <S**2>=0.000
     240 -> 247        0.27510
     240 -> 249        0.15334
     242 -> 247        0.12540
     245 -> 247        0.24000
     246 -> 248        0.53233
     245 <- 247       -0.10079

 Excited State   5:      Singlet-A      3.6276 eV  341.78 nm  f=0.0716  <S**2>=0.000
     239 -> 247       -0.10360
     240 -> 247       -0.16933
     240 -> 249       -0.23238
     241 -> 247        0.45826
     242 -> 247       -0.32759
     246 -> 248        0.18611

 The electronic state is 1-A.
 Alpha  occ. eigenvalues --  -46.96258 -19.29895 -19.29551 -19.25383 -19.24375
 Alpha  occ. eigenvalues --  -19.23915 -19.22996 -14.47452 -14.46309 -14.44804
 Alpha  occ. eigenvalues --  -14.43593 -10.42944 -10.42841 -10.39469 -10.38214
 Alpha  occ. eigenvalues --  -10.35829 -10.35660 -10.35502 -10.35283 -10.35103
 Alpha  occ. eigenvalues --  -10.34785 -10.34408 -10.34156 -10.33573 -10.33300
 Alpha  occ. eigenvalues --  -10.32953 -10.32367 -10.32276 -10.32123 -10.31804
 Alpha  occ. eigenvalues --  -10.31781 -10.31685 -10.31535 -10.31469 -10.31468
 Alpha  occ. eigenvalues --  -10.31422 -10.31113 -10.31091 -10.30922 -10.30683
 Alpha  occ. eigenvalues --  -10.30653 -10.30649 -10.30274 -10.30270 -10.29977
 Alpha  occ. eigenvalues --  -10.29963 -10.29809 -10.29749 -10.29591 -10.29524
 Alpha  occ. eigenvalues --  -10.29354 -10.29159 -10.29055 -10.29055 -10.29003
 Alpha  occ. eigenvalues --  -10.28855 -10.28837 -10.28769 -10.28571 -10.28333
 Alpha  occ. eigenvalues --  -10.28262 -10.28180 -10.27874 -10.27734 -10.27706
 Alpha  occ. eigenvalues --  -10.27436  -3.22156  -1.95707  -1.95271  -1.95130
 Alpha  occ. eigenvalues --   -1.19749  -1.19172  -1.12362  -1.11655  -1.11337
 Alpha  occ. eigenvalues --   -1.10267  -1.08457  -1.05787  -1.04917  -1.03578
 Alpha  occ. eigenvalues --   -0.95534  -0.92656  -0.92139  -0.92047  -0.91911
 Alpha  occ. eigenvalues --   -0.90702  -0.90444  -0.89681  -0.89588  -0.89316
 Alpha  occ. eigenvalues --   -0.88708  -0.87927  -0.86159  -0.85870  -0.85503
 Alpha  occ. eigenvalues --   -0.84288  -0.84030  -0.83150  -0.82709  -0.82515
 Alpha  occ. eigenvalues --   -0.81476  -0.80955  -0.79829  -0.79315  -0.78233
 Alpha  occ. eigenvalues --   -0.77739  -0.77545  -0.77388  -0.76805  -0.75596
 Alpha  occ. eigenvalues --   -0.75320  -0.74733  -0.73950  -0.72945  -0.72201
 Alpha  occ. eigenvalues --   -0.70813  -0.69917  -0.69625  -0.68144  -0.68061
 Alpha  occ. eigenvalues --   -0.67697  -0.66652  -0.66493  -0.66451  -0.65989
 Alpha  occ. eigenvalues --   -0.65542  -0.64888  -0.64442  -0.64328  -0.62576
 Alpha  occ. eigenvalues --   -0.62244  -0.61806  -0.61548  -0.61075  -0.60935
 Alpha  occ. eigenvalues --   -0.59830  -0.59212  -0.58794  -0.58333  -0.58201
 Alpha  occ. eigenvalues --   -0.57329  -0.56746  -0.56607  -0.56504  -0.56286
 Alpha  occ. eigenvalues --   -0.55894  -0.55641  -0.55305  -0.55136  -0.54851
 Alpha  occ. eigenvalues --   -0.54698  -0.54274  -0.54212  -0.54108  -0.53931
 Alpha  occ. eigenvalues --   -0.53750  -0.53418  -0.53110  -0.52978  -0.52717
 Alpha  occ. eigenvalues --   -0.52480  -0.52242  -0.52052  -0.51954  -0.51736
 Alpha  occ. eigenvalues --   -0.51421  -0.51240  -0.51046  -0.50836  -0.50761
 Alpha  occ. eigenvalues --   -0.50609  -0.50190  -0.50061  -0.49862  -0.49799
 Alpha  occ. eigenvalues --   -0.49518  -0.49470  -0.49269  -0.49218  -0.48877
 Alpha  occ. eigenvalues --   -0.48667  -0.48386  -0.48305  -0.48106  -0.48003
 Alpha  occ. eigenvalues --   -0.47663  -0.47259  -0.47118  -0.47056  -0.46603
 Alpha  occ. eigenvalues --   -0.46522  -0.46320  -0.46254  -0.46129  -0.45946
 Alpha  occ. eigenvalues --   -0.45623  -0.45536  -0.45467  -0.45258  -0.45089
 Alpha  occ. eigenvalues --   -0.44858  -0.44552  -0.44410  -0.44322  -0.44300
 Alpha  occ. eigenvalues --   -0.43983  -0.43914  -0.43828  -0.43610  -0.43471
 Alpha  occ. eigenvalues --   -0.42941  -0.42843  -0.42602  -0.42342  -0.42046
 Alpha  occ. eigenvalues --   -0.41972  -0.41307  -0.41020  -0.40843  -0.40603
 Alpha  occ. eigenvalues --   -0.40295  -0.40081  -0.39675  -0.39454  -0.39210
 Alpha  occ. eigenvalues --   -0.39085  -0.38866  -0.38683  -0.38635  -0.38499
 Alpha  occ. eigenvalues --   -0.38250  -0.37489  -0.37068  -0.36765  -0.36569
 Alpha  occ. eigenvalues --   -0.35710  -0.35143  -0.34866  -0.33753  -0.33133
 Alpha  occ. eigenvalues --   -0.32746  -0.32512  -0.32120  -0.31412  -0.25848
 Alpha  occ. eigenvalues --   -0.23022
 Alpha virt. eigenvalues --   -0.06876   0.00059   0.02410   0.04273   0.04618
 Alpha virt. eigenvalues --    0.07370   0.07424   0.07891   0.08210   0.10079
 Alpha virt. eigenvalues --    0.10397   0.11277   0.11375   0.11956   0.12291

 Mulliken charges:
               1
     1  Mg   0.978711
     2  C   -0.080456
     3  C   -0.058059
     4  C   -0.121595
     5  C   -0.099367
     6  N   -0.368398
     7  C    0.007203
     8  C   -0.057259
     9  C   -0.108510
    10  C    0.049139
    11  C    0.044131
    12  C    0.044991
    13  C   -0.033540
    14  C    0.213356
    15  O   -0.241320
    16  O   -0.382385
    17  N   -0.511354
    18  C    0.163691
    19  C   -0.150388
    20  C   -0.081233
    21  C    0.218493
    22  C    0.100785
    23  C   -0.004042
    24  O   -0.234900
    25  C    0.014012
    26  N   -0.353627
    27  C    0.056362
    28  C   -0.080208
    29  C   -0.072695
    30  C    0.079178
    31  C    0.032377
    32  C    0.011890
    33  C   -0.071017
    34  N   -0.311493
    35  C    0.080672
    36  C   -0.234560
    37  C   -0.049578
    38  C    0.126789
    39  C    0.088491
    40  C    0.149230
    41  O   -0.212856
    42  C   -0.077163
    43  C    0.259317
    44  O   -0.225223
    45  O   -0.344621
    46  C    0.129828
    47  C    0.270156
    48  C   -0.162125
    49  C   -0.164692
    50  C    0.028784
    51  C   -0.013683
    52  C   -0.043399
    53  C    0.051114
    54  C   -0.224094
    55  C    0.013535
    56  C   -0.004708
    57  C   -0.009831
    58  C    0.007222
    59  C   -0.224322
    60  C    0.019394
    61  C    0.031527
    62  C   -0.053567
    63  C    0.022043
    64  C   -0.215542
    65  C    0.007712
    66  C    0.002177
    67  H   -0.009384
    68  H   -0.034624
    69  H   -0.018963
    70  H    0.037018
    71  H    0.046055
    72  H    0.048218
    73  H    0.043328
    74  H    0.035489
    75  H    0.025495
    76  H    0.037900
    77  H    0.074217
    78  H    0.057934
    79  H    0.057970
    80  H    0.010741
    81  H    0.062020
    82  H    0.066046
    83  H    0.059905
    84  H    0.048406
    85  H    0.035507
    86  H    0.031236
    87  H    0.029740
    88  H    0.055667
    89  H    0.030045
    90  H    0.040894
    91  H    0.032557
    92  H    0.029608
    93  H    0.051908
    94  H    0.028132
    95  H    0.053791
    96  H    0.053717
    97  H    0.067193
    98  H    0.069750
    99  H    0.056107
   100  H    0.062624
   101  H    0.042479
   102  H    0.052515
   103  H    0.052392
   104  H    0.034907
   105  H    0.035731
   106  H    0.041985
   107  H    0.044710
   108  H    0.018731
   109  H    0.031930
   110  H    0.027585
   111  H    0.019506
   112  H    0.026085
   113  H    0.013482
   114  H    0.018852
   115  H    0.022920
   116  H    0.029065
   117  H    0.028401
   118  H    0.000330
   119  H    0.031005
   120  H    0.038396
   121  H    0.023032
   122  H    0.019782
   123  H    0.011644
   124  H    0.016577
   125  H    0.021042
   126  H    0.026409
   127  H    0.003536
   128  H    0.018209
   129  H    0.018664
   130  H    0.013765
   131  H    0.010401
   132  H    0.020892
   133  H    0.004064
   134  H    0.025146
   135  H    0.029046
   136  H    0.022997
   137  H    0.026803
   138  H    0.028768
   139  H    0.022210
   140  H    0.029258
 Sum of Mulliken charges =  -0.00000

 Dipole moment (field-independent basis, Debye):
    X=             -0.0224    Y=              3.2801    Z=              2.1354  Tot=              3.9140
 Quadrupole moment (field-independent basis, Debye-Ang):
   XX=           -382.6628   YY=           -428.0718   ZZ=           -394.6607
   XY=             30.2873   XZ=              4.9408   YZ=             28.2950

 Normal termination of Gaussian 16 at Sat Apr 30 16:09:38 2022.
