 Gaussian 16, Revision A.03,
 Gaussian 16:  ES64L-G16RevA.03 25-Dec-2016

 --------------------
 #p ZINDO=(nstates=5)
 --------------------

 -----------------------------
 step_801_chromophore_17 ZINDO
 -----------------------------
 Symbolic Z-matrix:
 Charge =  0 Multiplicity = 1

                         Standard orientation:
 ---------------------------------------------------------------------
 Center     Atomic      Atomic             Coordinates (Angstroms)
 Number     Number       Type             X           Y           Z
 ---------------------------------------------------------------------
      1         12           0        4.040779    1.109360   -0.691783
      2          6           0        3.783207   -2.303280   -0.426877
      3          6           0        1.824025    1.167152   -3.193195
      4          6           0        3.814047    4.504911   -0.228796
      5          6           0        5.695586    1.016398    2.597277
      6          7           0        2.838564   -0.435703   -1.611647
      7          6           0        2.838366   -1.772103   -1.375129
      8          6           0        1.842204   -2.454923   -2.389065
      9          6           0        1.433528   -1.331775   -3.453479
     10          6           0        2.124096   -0.119399   -2.737179
     11          6           0        1.879460   -1.607674   -4.878749
     12          6           0        0.717590   -3.085308   -1.585974
     13          6           0        0.294580   -4.476155   -1.948046
     14          6           0       -1.056445   -5.022240   -1.712670
     15          8           0       -1.438699   -6.079305   -2.114846
     16          8           0       -1.855291   -4.291884   -0.876258
     17          7           0        3.147751    2.596262   -1.684627
     18          6           0        2.311271    2.444415   -2.798913
     19          6           0        1.975911    3.715843   -3.333472
     20          6           0        2.491658    4.685882   -2.478611
     21          6           0        3.229792    3.917865   -1.382682
     22          6           0        1.098139    3.915725   -4.540928
     23          6           0        2.321807    6.162772   -2.628741
     24          8           0        1.608879    6.604972   -3.507149
     25          6           0        2.777566    7.185425   -1.619655
     26          7           0        4.584794    2.568812    1.032108
     27          6           0        4.403857    3.937777    0.910374
     28          6           0        5.157879    4.734651    1.961526
     29          6           0        5.771954    3.578566    2.880298
     30          6           0        5.369559    2.319112    2.183333
     31          6           0        6.080321    5.885094    1.470223
     32          6           0        5.511025    3.726850    4.295858
     33          6           0        6.689950    3.165548    5.198963
     34          7           0        4.699273   -0.357053    0.768698
     35          6           0        5.377141   -0.241121    1.929064
     36          6           0        5.722186   -1.566681    2.425387
     37          6           0        5.130456   -2.391098    1.495894
     38          6           0        4.522216   -1.587190    0.530320
     39          6           0        6.536721   -1.798659    3.627483
     40          6           0        4.891956   -3.810526    1.107201
     41          8           0        5.332180   -4.879281    1.545374
     42          6           0        4.074889   -3.750281   -0.164392
     43          6           0        4.857797   -4.312147   -1.271911
     44          8           0        5.725967   -3.788085   -1.917618
     45          8           0        4.606537   -5.650861   -1.214891
     46          6           0        5.629072   -6.450604   -1.817245
     47          6           0       -3.182804   -4.742838   -0.509403
     48          6           0       -3.787029   -3.873273    0.527979
     49          6           0       -5.085478   -3.845564    0.904162
     50          6           0       -6.246336   -4.736373    0.429373
     51          6           0       -5.574073   -2.686959    1.819427
     52          6           0       -5.276152   -2.939468    3.332016
     53          6           0       -4.654781   -1.740566    4.038304
     54          6           0       -5.749358   -0.669952    4.106645
     55          6           0       -6.170815   -0.346662    5.567764
     56          6           0       -5.279782    0.608286    3.298630
     57          6           0       -6.553956    1.418336    2.825550
     58          6           0       -6.377151    1.954094    1.344817
     59          6           0       -7.625898    1.467666    0.438546
     60          6           0       -7.114444    0.593105   -0.667673
     61          6           0       -8.539007    2.692504    0.096883
     62          6           0      -10.053423    2.322375    0.222331
     63          6           0      -10.653613    1.773284   -1.030910
     64          6           0      -11.875360    2.538813   -1.442848
     65          6           0      -12.987696    2.047025   -0.572243
     66          6           0      -12.065841    2.319692   -3.000981
     67          1           0        1.163702    1.159224   -4.063140
     68          1           0        3.707705    5.587477   -0.124886
     69          1           0        6.321141    0.972638    3.491420
     70          1           0        2.477699   -3.235262   -2.808288
     71          1           0        0.366297   -1.121063   -3.508905
     72          1           0        2.712512   -0.965699   -5.167745
     73          1           0        1.036154   -1.470310   -5.555996
     74          1           0        2.210492   -2.645504   -4.842882
     75          1           0       -0.190131   -2.481936   -1.628438
     76          1           0        0.868668   -3.023785   -0.508167
     77          1           0        0.955386   -5.142483   -1.393297
     78          1           0        0.566420   -4.601663   -2.995737
     79          1           0        0.067467    4.034423   -4.208422
     80          1           0        1.043062    3.056968   -5.209348
     81          1           0        1.484783    4.673816   -5.222306
     82          1           0        2.271628    6.908221   -0.694723
     83          1           0        2.491261    8.176500   -1.970537
     84          1           0        3.846848    7.025972   -1.477291
     85          1           0        4.407448    5.211329    2.591768
     86          1           0        6.848119    3.718909    2.779387
     87          1           0        6.158457    6.573832    2.311954
     88          1           0        5.779925    6.370597    0.541528
     89          1           0        7.115983    5.546902    1.427178
     90          1           0        4.591326    3.233158    4.611505
     91          1           0        5.484212    4.797621    4.497025
     92          1           0        7.085761    3.880924    5.919230
     93          1           0        7.462307    2.685541    4.596955
     94          1           0        6.318537    2.499447    5.977184
     95          1           0        5.823552   -1.423615    4.361592
     96          1           0        7.418186   -1.158714    3.641546
     97          1           0        6.728729   -2.869228    3.702207
     98          1           0        3.110744   -4.240389   -0.030705
     99          1           0        6.385437   -6.540322   -1.038212
    100          1           0        6.011101   -6.132602   -2.787277
    101          1           0        5.246149   -7.465550   -1.926096
    102          1           0       -3.077875   -5.733892   -0.068390
    103          1           0       -3.845147   -4.772398   -1.375231
    104          1           0       -3.138371   -3.028979    0.760702
    105          1           0       -6.907626   -4.981423    1.260278
    106          1           0       -5.972795   -5.639610   -0.115801
    107          1           0       -6.915968   -4.161153   -0.210549
    108          1           0       -6.641477   -2.477532    1.751340
    109          1           0       -5.063037   -1.768961    1.526475
    110          1           0       -4.615565   -3.797461    3.456749
    111          1           0       -6.243316   -3.225208    3.745205
    112          1           0       -3.777174   -1.363326    3.513274
    113          1           0       -4.416195   -2.014870    5.065828
    114          1           0       -6.659067   -1.058390    3.648078
    115          1           0       -5.330260    0.013705    6.161619
    116          1           0       -6.525322   -1.264131    6.037654
    117          1           0       -6.907444    0.456624    5.557895
    118          1           0       -4.837684    0.170482    2.404695
    119          1           0       -4.548113    1.259084    3.776362
    120          1           0       -6.657291    2.253501    3.518184
    121          1           0       -7.387064    0.723848    2.722063
    122          1           0       -5.452577    1.685117    0.833767
    123          1           0       -6.399879    3.042671    1.300317
    124          1           0       -8.324534    0.773993    0.905579
    125          1           0       -7.104719    1.072175   -1.647085
    126          1           0       -7.483558   -0.431692   -0.711978
    127          1           0       -6.055652    0.399248   -0.498693
    128          1           0       -8.279881    3.023695   -0.908830
    129          1           0       -8.338580    3.473899    0.830880
    130          1           0      -10.598098    3.194371    0.586475
    131          1           0      -10.133838    1.577817    1.014030
    132          1           0      -10.851791    0.725445   -0.810311
    133          1           0       -9.856935    1.901917   -1.764418
    134          1           0      -11.786509    3.613208   -1.282480
    135          1           0      -13.730040    1.403774   -1.043487
    136          1           0      -13.473581    2.956472   -0.220754
    137          1           0      -12.664939    1.494447    0.310353
    138          1           0      -12.309489    1.274375   -3.190151
    139          1           0      -11.134894    2.525382   -3.528761
    140          1           0      -12.771623    3.047330   -3.401407
 ---------------------------------------------------------------------

 SCF Done:  E(RZINDO/S) =  -474.668524370     A.U. after   19 cycles

 Excitation energies and oscillator strengths:

 Excited State   1:      Singlet-A      1.2544 eV  988.36 nm  f=0.5883  <S**2>=0.000
     175 ->178         0.19642
     176 ->177         0.66163
 This state for optimization and/or second-order correction.
 Total Energy, E(CIS/TDA) =  -474.622424528
 Copying the excited state density for this state as the 1-particle RhoCI density.

 Excited State   2:      Singlet-A      1.8836 eV  658.23 nm  f=0.0376  <S**2>=0.000
     175 ->177         0.54515
     176 ->178        -0.42621

 Excited State   3:      Singlet-A      2.8581 eV  433.79 nm  f=0.0006  <S**2>=0.000
     169 ->177         0.26533
     169 ->178        -0.10995
     169 ->179        -0.25654
     169 ->180        -0.14566
     169 ->181        -0.30248
     169 ->183         0.11288
     169 ->184        -0.12689
     169 ->186        -0.21176
     169 ->187         0.10882
     170 ->177         0.13669
     170 ->179        -0.11713
     170 ->181        -0.14090
     171 ->177        -0.10069

 Excited State   4:      Singlet-A      2.9323 eV  422.83 nm  f=0.4798  <S**2>=0.000
     175 ->177         0.27166
     176 ->178         0.37635
     176 ->179        -0.13159
     176 ->180         0.46027
     176 ->181        -0.10496

 Excited State   5:      Singlet-A      2.9715 eV  417.25 nm  f=0.0326  <S**2>=0.000
     168 ->177         0.26788
     168 ->179         0.37750
     168 ->181        -0.17551
     168 ->184        -0.11581
     168 ->186         0.15696
     168 ->187         0.12758
     176 ->179         0.30631
     176 ->180        -0.16154

 The electronic state is 1-A.
 Alpha  occ. eigenvalues --   -1.88225  -1.80577  -1.78182  -1.76133  -1.74624
 Alpha  occ. eigenvalues --   -1.71097  -1.66888  -1.64222  -1.61177  -1.59185
 Alpha  occ. eigenvalues --   -1.55405  -1.51718  -1.50051  -1.49293  -1.47637
 Alpha  occ. eigenvalues --   -1.45989  -1.44591  -1.40056  -1.39534  -1.37921
 Alpha  occ. eigenvalues --   -1.37298  -1.36118  -1.32353  -1.31497  -1.28094
 Alpha  occ. eigenvalues --   -1.26422  -1.26304  -1.22489  -1.21506  -1.18591
 Alpha  occ. eigenvalues --   -1.17789  -1.17682  -1.15949  -1.15015  -1.12504
 Alpha  occ. eigenvalues --   -1.12015  -1.10187  -1.09157  -1.05155  -1.04121
 Alpha  occ. eigenvalues --   -1.01891  -1.01659  -0.99007  -0.98068  -0.97542
 Alpha  occ. eigenvalues --   -0.97089  -0.94602  -0.93908  -0.92944  -0.92316
 Alpha  occ. eigenvalues --   -0.90978  -0.90525  -0.88754  -0.88123  -0.87320
 Alpha  occ. eigenvalues --   -0.86341  -0.84615  -0.84214  -0.83000  -0.81015
 Alpha  occ. eigenvalues --   -0.79750  -0.79279  -0.78054  -0.77206  -0.76897
 Alpha  occ. eigenvalues --   -0.76633  -0.76023  -0.74482  -0.73921  -0.73896
 Alpha  occ. eigenvalues --   -0.73234  -0.71988  -0.71445  -0.71275  -0.70439
 Alpha  occ. eigenvalues --   -0.70103  -0.69483  -0.69222  -0.68226  -0.68063
 Alpha  occ. eigenvalues --   -0.67317  -0.66921  -0.66530  -0.66111  -0.65756
 Alpha  occ. eigenvalues --   -0.65456  -0.65233  -0.64226  -0.63884  -0.63770
 Alpha  occ. eigenvalues --   -0.63511  -0.63224  -0.62967  -0.62781  -0.62570
 Alpha  occ. eigenvalues --   -0.61912  -0.61667  -0.60973  -0.60895  -0.60179
 Alpha  occ. eigenvalues --   -0.60017  -0.59597  -0.59299  -0.58703  -0.58034
 Alpha  occ. eigenvalues --   -0.57831  -0.57453  -0.57083  -0.56808  -0.56579
 Alpha  occ. eigenvalues --   -0.55852  -0.55761  -0.55515  -0.55077  -0.54847
 Alpha  occ. eigenvalues --   -0.54446  -0.54129  -0.53479  -0.53455  -0.53090
 Alpha  occ. eigenvalues --   -0.52638  -0.52090  -0.52034  -0.51890  -0.51705
 Alpha  occ. eigenvalues --   -0.51196  -0.50815  -0.50784  -0.50622  -0.50283
 Alpha  occ. eigenvalues --   -0.49904  -0.49753  -0.49686  -0.49031  -0.48780
 Alpha  occ. eigenvalues --   -0.48394  -0.48337  -0.48086  -0.47675  -0.47403
 Alpha  occ. eigenvalues --   -0.47289  -0.47247  -0.46994  -0.46574  -0.46329
 Alpha  occ. eigenvalues --   -0.45916  -0.45741  -0.45431  -0.45343  -0.45303
 Alpha  occ. eigenvalues --   -0.45111  -0.44788  -0.44592  -0.44397  -0.44064
 Alpha  occ. eigenvalues --   -0.43967  -0.43105  -0.42843  -0.42605  -0.42500
 Alpha  occ. eigenvalues --   -0.42038  -0.41921  -0.40865  -0.38892  -0.38739
 Alpha  occ. eigenvalues --   -0.38484  -0.37331  -0.35377  -0.34977  -0.34580
 Alpha  occ. eigenvalues --   -0.33662  -0.32913  -0.32514  -0.31871  -0.26568
 Alpha  occ. eigenvalues --   -0.21846
 Alpha virt. eigenvalues --   -0.08495  -0.02332  -0.00718   0.00619   0.00894
 Alpha virt. eigenvalues --    0.02639   0.02813   0.02871   0.04160   0.04864
 Alpha virt. eigenvalues --    0.06082   0.06879   0.07413   0.07589   0.08214

 Mulliken charges:
               1
     1  Mg   0.439178
     2  C   -0.039602
     3  C   -0.063331
     4  C   -0.103036
     5  C   -0.085920
     6  N   -0.262240
     7  C    0.089166
     8  C    0.013247
     9  C    0.002720
    10  C    0.115860
    11  C   -0.047758
    12  C   -0.021845
    13  C    0.010892
    14  C    0.479050
    15  O   -0.517553
    16  O   -0.288069
    17  N   -0.313579
    18  C    0.097773
    19  C    0.058618
    20  C   -0.055368
    21  C    0.141322
    22  C   -0.036097
    23  C    0.321783
    24  O   -0.528152
    25  C   -0.027231
    26  N   -0.315159
    27  C    0.147759
    28  C   -0.002451
    29  C    0.021048
    30  C    0.109385
    31  C   -0.049644
    32  C   -0.016685
    33  C   -0.074108
    34  N   -0.283176
    35  C    0.077962
    36  C    0.029974
    37  C   -0.061384
    38  C    0.121040
    39  C   -0.038279
    40  C    0.334533
    41  O   -0.522592
    42  C    0.063559
    43  C    0.496920
    44  O   -0.511628
    45  O   -0.266311
    46  C    0.075090
    47  C    0.114679
    48  C   -0.083886
    49  C   -0.010570
    50  C   -0.041189
    51  C   -0.028890
    52  C   -0.027995
    53  C   -0.030182
    54  C   -0.018432
    55  C   -0.058094
    56  C   -0.046394
    57  C   -0.047125
    58  C   -0.047724
    59  C   -0.023654
    60  C   -0.057968
    61  C   -0.037777
    62  C   -0.039661
    63  C   -0.025423
    64  C   -0.004477
    65  C   -0.051341
    66  C   -0.063766
    67  H    0.023693
    68  H    0.024148
    69  H    0.026160
    70  H    0.033679
    71  H    0.036311
    72  H    0.029106
    73  H    0.024408
    74  H    0.024357
    75  H    0.017945
    76  H    0.022683
    77  H    0.045516
    78  H    0.039619
    79  H    0.041829
    80  H    0.009616
    81  H    0.043212
    82  H    0.040080
    83  H    0.045341
    84  H    0.033282
    85  H    0.024694
    86  H    0.026737
    87  H    0.015350
    88  H    0.035501
    89  H    0.020521
    90  H    0.027195
    91  H    0.017033
    92  H    0.019587
    93  H    0.030044
    94  H    0.014331
    95  H    0.035300
    96  H    0.036249
    97  H    0.038767
    98  H    0.051884
    99  H    0.044327
   100  H    0.051562
   101  H    0.021303
   102  H    0.049809
   103  H    0.050460
   104  H    0.033130
   105  H    0.024308
   106  H    0.025186
   107  H    0.027166
   108  H    0.020890
   109  H    0.021651
   110  H    0.011325
   111  H    0.018010
   112  H    0.027411
   113  H    0.014937
   114  H    0.023648
   115  H    0.015740
   116  H    0.018831
   117  H    0.016884
   118  H    0.014992
   119  H    0.030771
   120  H    0.028106
   121  H    0.033309
   122  H    0.027164
   123  H    0.014622
   124  H    0.022749
   125  H    0.017566
   126  H    0.018823
   127  H    0.006266
   128  H    0.024178
   129  H    0.016609
   130  H    0.013009
   131  H    0.012490
   132  H    0.023937
   133  H    0.013041
   134  H    0.024103
   135  H    0.019169
   136  H    0.009848
   137  H    0.017738
   138  H    0.024148
   139  H    0.013465
   140  H    0.017331
 Sum of Mulliken charges =  -0.00000

 Dipole moment (field-independent basis, Debye):
    X=             -0.9497    Y=              4.4355    Z=              2.5383  Tot=              5.1980
 N-N= 4.460031304453D+03 E-N= 0.000000000000D+00  KE=-9.594338697856D+03
 Leave Link  601 at Sat Apr 30 16:22:09 2022, MaxMem=  6710886400 cpu:               0.8 elap:               0.0
 (Enter /sw/apps/gaussian-16.0/g16/l9999.exe)
 1\1\GINC-BP1-COMPUTE102\SP\RZINDO CIS\STO-3G\C55H74Mg1N4O6\OF15641\30-
 Apr-2022\0\\#p ZINDO=(nstates=5)\\step_801_chromophore_17 ZINDO\\0,1\M
 g,0,29.734,58.68,41.637\C,0,26.684,57.553,40.537\C,0,31.292,56.061,40.
 263\C,0,32.686,60.378,42.082\C,0,28.067,61.904,42.263\N,0,29.031,57.04
 4,40.409\C,0,27.762,56.74,40.036\C,0,27.794,55.388,39.225\C,0,29.269,5
 4.79,39.393\C,0,29.902,56.026,40.122\C,0,29.343,53.467,40.135\C,0,27.3
 26,55.681,37.81\C,0,26.335,54.742,37.193\C,0,26.197,54.515,35.741\O,0,

 Normal termination of Gaussian 16 at Sat Apr 30 16:22:09 2022.
