 Gaussian 16, Revision A.03,
 Gaussian 16:  ES64L-G16RevA.03 25-Dec-2016

 ------------------------------
 #p blyp/Def2SVP td=(nstates=5)
 ------------------------------

 ---------------------------------------------------
 step_1401_chromophore_25 TDDFT with blyp functional
 ---------------------------------------------------
 Symbolic Z-matrix:
 Charge =  0 Multiplicity = 1

                         Standard orientation:
 ---------------------------------------------------------------------
 Center     Atomic      Atomic             Coordinates (Angstroms)
 Number     Number       Type             X           Y           Z
 ---------------------------------------------------------------------
      1         12           0        6.103137    0.284617   -0.005817
      2          6           0        3.625571   -2.012609   -0.017395
      3          6           0        3.649276    2.679021   -0.735567
      4          6           0        8.542670    2.702024   -0.106360
      5          6           0        8.390578   -2.156607    0.394436
      6          7           0        3.874513    0.307157   -0.130274
      7          6           0        3.073721   -0.761878   -0.105167
      8          6           0        1.628986   -0.395111   -0.117497
      9          6           0        1.709162    1.152368   -0.511374
     10          6           0        3.180534    1.396907   -0.513927
     11          6           0        1.047663    1.488455   -1.919055
     12          6           0        0.824458   -0.777855    1.187898
     13          6           0       -0.397366   -1.669387    1.092297
     14          6           0       -1.685269   -0.994029    1.516049
     15          8           0       -1.910447   -0.572369    2.653441
     16          8           0       -2.586675   -1.021028    0.421817
     17          7           0        6.099643    2.340942   -0.342339
     18          6           0        5.007559    3.146954   -0.614578
     19          6           0        5.464707    4.531321   -0.878549
     20          6           0        6.874409    4.594896   -0.650922
     21          6           0        7.224958    3.122101   -0.374684
     22          6           0        4.515965    5.594663   -1.140963
     23          6           0        7.853204    5.715510   -0.693474
     24          8           0        9.070128    5.577025   -0.615766
     25          6           0        7.230858    7.107987   -0.720793
     26          7           0        8.185487    0.283857    0.024239
     27          6           0        9.004285    1.367906    0.060159
     28          6           0       10.499404    0.940125    0.390719
     29          6           0       10.325458   -0.519216    0.876476
     30          6           0        8.895921   -0.849494    0.402407
     31          6           0       11.517568    1.196811   -0.761161
     32          6           0       10.413689   -0.630096    2.381107
     33          6           0       11.362472   -1.712408    2.905305
     34          7           0        6.059390   -1.740467    0.146094
     35          6           0        7.054944   -2.625921    0.347461
     36          6           0        6.483775   -3.914544    0.641151
     37          6           0        5.137778   -3.727072    0.421240
     38          6           0        4.943336   -2.349066    0.234504
     39          6           0        7.229592   -5.198562    0.805381
     40          6           0        3.897631   -4.404662    0.421399
     41          8           0        3.663831   -5.616695    0.513332
     42          6           0        2.861416   -3.275630    0.147742
     43          6           0        2.213494   -3.681425   -1.117961
     44          8           0        2.763427   -3.800742   -2.231362
     45          8           0        0.953239   -4.077830   -0.862367
     46          6           0        0.125102   -4.321708   -2.003632
     47          6           0       -3.977401   -0.684261    0.691881
     48          6           0       -4.870051   -0.900468   -0.445218
     49          6           0       -6.185302   -0.951351   -0.555443
     50          6           0       -7.073208   -0.660777    0.688892
     51          6           0       -6.997970   -1.587781   -1.736725
     52          6           0       -7.640759   -0.619947   -2.791311
     53          6           0       -8.925665    0.119402   -2.352757
     54          6           0      -10.195745   -0.107120   -3.205130
     55          6           0      -10.641241    1.093202   -4.103492
     56          6           0      -11.387411   -0.667079   -2.431386
     57          6           0      -12.040574    0.291765   -1.422925
     58          6           0      -13.632779    0.282142   -1.374458
     59          6           0      -14.090172   -0.224226    0.113039
     60          6           0      -15.415837   -0.978245   -0.096636
     61          6           0      -14.278808    0.986624    1.125777
     62          6           0      -13.753203    0.664146    2.571256
     63          6           0      -12.280588    1.068017    2.756004
     64          6           0      -12.161818    2.541505    3.298587
     65          6           0      -10.911648    3.337514    2.837270
     66          6           0      -12.302222    2.612649    4.841679
     67          1           0        2.873439    3.421015   -0.932764
     68          1           0        9.401140    3.370084   -0.014712
     69          1           0        9.037733   -3.005361    0.629435
     70          1           0        1.175142   -0.967119   -0.926658
     71          1           0        1.328457    1.772922    0.299747
     72          1           0        0.743662    2.513788   -1.711207
     73          1           0        0.166031    0.924133   -2.221893
     74          1           0        1.785134    1.544796   -2.720648
     75          1           0        0.458443    0.173146    1.577248
     76          1           0        1.539156   -1.181397    1.905592
     77          1           0       -0.211313   -2.584577    1.653777
     78          1           0       -0.509071   -1.957735    0.047253
     79          1           0        4.677533    6.227347   -0.267864
     80          1           0        3.504921    5.243344   -1.345331
     81          1           0        4.750492    6.220950   -2.001486
     82          1           0        8.110757    7.719629   -0.525304
     83          1           0        6.570804    7.279406    0.129525
     84          1           0        6.668142    7.384464   -1.612557
     85          1           0       10.816635    1.604912    1.193965
     86          1           0       11.121702   -1.212086    0.605640
     87          1           0       11.899469    0.199049   -0.977984
     88          1           0       12.305955    1.843619   -0.377923
     89          1           0       11.121712    1.777713   -1.594132
     90          1           0        9.403455   -0.701490    2.784626
     91          1           0       10.811918    0.309710    2.762929
     92          1           0       10.682058   -2.415180    3.386266
     93          1           0       12.032221   -1.368181    3.693246
     94          1           0       11.868480   -2.330736    2.163093
     95          1           0        7.071969   -5.666429    1.776966
     96          1           0        8.295330   -4.984677    0.720838
     97          1           0        6.974016   -5.913945    0.023411
     98          1           0        2.103913   -3.341654    0.928100
     99          1           0        0.476352   -3.826653   -2.908686
    100          1           0       -0.825446   -3.882594   -1.702544
    101          1           0       -0.019828   -5.391374   -2.158745
    102          1           0       -3.901014    0.400104    0.774085
    103          1           0       -4.350064   -1.034406    1.654237
    104          1           0       -4.410985   -1.249688   -1.370314
    105          1           0       -7.578217   -1.591894    0.944098
    106          1           0       -7.848255    0.044714    0.388967
    107          1           0       -6.679086   -0.197161    1.593464
    108          1           0       -7.827516   -2.217389   -1.414791
    109          1           0       -6.276987   -2.142364   -2.338312
    110          1           0       -7.778553   -1.259489   -3.663084
    111          1           0       -6.935384    0.177583   -3.026662
    112          1           0       -8.718106    1.188584   -2.389500
    113          1           0       -9.253089   -0.098671   -1.336629
    114          1           0       -9.999550   -0.930523   -3.892228
    115          1           0      -11.670770    1.379231   -3.889356
    116          1           0      -10.448074    0.834510   -5.144521
    117          1           0      -10.185244    2.058205   -3.882834
    118          1           0      -10.944234   -1.448186   -1.813554
    119          1           0      -12.084119   -1.160836   -3.108093
    120          1           0      -11.736597    1.328829   -1.561932
    121          1           0      -11.800974    0.010024   -0.397840
    122          1           0      -14.072464   -0.350535   -2.144917
    123          1           0      -13.930066    1.324231   -1.493896
    124          1           0      -13.338414   -0.902680    0.513401
    125          1           0      -16.261249   -0.823636    0.574403
    126          1           0      -15.249175   -1.961270    0.343171
    127          1           0      -15.937403   -1.021510   -1.051939
    128          1           0      -15.332155    1.165643    1.337151
    129          1           0      -13.763349    1.874498    0.758885
    130          1           0      -13.844749   -0.392519    2.822116
    131          1           0      -14.498099    1.238579    3.120516
    132          1           0      -11.625174    0.955511    1.891628
    133          1           0      -11.902934    0.415839    3.543615
    134          1           0      -13.031176    3.023213    2.851039
    135          1           0      -11.083126    4.388874    3.069190
    136          1           0      -11.022273    3.325419    1.752967
    137          1           0       -9.890557    3.046520    3.082345
    138          1           0      -12.443428    1.655527    5.344060
    139          1           0      -13.233251    3.090907    5.146861
    140          1           0      -11.514216    3.141778    5.376563
 ---------------------------------------------------------------------

 SCF Done:  E(RB-LYP) =  -3007.35001774     A.U. after   22 cycles

 Excitation energies and oscillator strengths:

 Excited State   1:      Singlet-A      1.8016 eV  688.18 nm  f=0.2812  <S**2>=0.000
     244 -> 247       -0.21378
     245 -> 248       -0.14980
     245 -> 249        0.10104
     246 -> 247        0.65599
     246 <- 247       -0.14174
 This state for optimization and/or second-order correction.
 Total Energy, E(TD-HF/TD-DFT) =  -3007.28380916
 Copying the excited state density for this state as the 1-particle RhoCI density.

 Excited State   2:      Singlet-A      1.9093 eV  649.37 nm  f=0.0527  <S**2>=0.000
     244 -> 247        0.66324
     246 -> 247        0.21718

 Excited State   3:      Singlet-A      2.0368 eV  608.73 nm  f=0.0780  <S**2>=0.000
     243 -> 247       -0.19290
     244 -> 247        0.11134
     245 -> 247        0.61926
     246 -> 248        0.20843
     246 -> 249       -0.11415

 Excited State   4:      Singlet-A      2.1490 eV  576.93 nm  f=0.0086  <S**2>=0.000
     243 -> 247        0.67849
     245 -> 247        0.16712

 Excited State   5:      Singlet-A      2.4309 eV  510.03 nm  f=0.0000  <S**2>=0.000
     242 -> 247        0.70706

 The electronic state is 1-A.
 Alpha  occ. eigenvalues --  -46.26720 -18.82617 -18.82406 -18.78018 -18.76038
 Alpha  occ. eigenvalues --  -18.75830 -18.75217 -14.03255 -14.03079 -14.01912
 Alpha  occ. eigenvalues --  -14.00354 -10.04940 -10.03375 -10.00174  -9.98781
 Alpha  occ. eigenvalues --   -9.98368  -9.97347  -9.96788  -9.96530  -9.96496
 Alpha  occ. eigenvalues --   -9.96421  -9.96149  -9.95869  -9.95000  -9.94512
 Alpha  occ. eigenvalues --   -9.94433  -9.94197  -9.93865  -9.93586  -9.93555
 Alpha  occ. eigenvalues --   -9.93527  -9.93507  -9.93418  -9.93180  -9.93151
 Alpha  occ. eigenvalues --   -9.93117  -9.93080  -9.93060  -9.92989  -9.92902
 Alpha  occ. eigenvalues --   -9.92726  -9.92683  -9.92528  -9.92445  -9.92221
 Alpha  occ. eigenvalues --   -9.92196  -9.92172  -9.92100  -9.92095  -9.92027
 Alpha  occ. eigenvalues --   -9.92022  -9.91915  -9.91908  -9.91806  -9.91514
 Alpha  occ. eigenvalues --   -9.91420  -9.91339  -9.91301  -9.91203  -9.91131
 Alpha  occ. eigenvalues --   -9.91095  -9.91064  -9.90882  -9.90574  -9.90497
 Alpha  occ. eigenvalues --   -9.89848  -2.91486  -1.71925  -1.71337  -1.71221
 Alpha  occ. eigenvalues --   -0.98658  -0.96995  -0.91673  -0.90459  -0.90300
 Alpha  occ. eigenvalues --   -0.88733  -0.88542  -0.87354  -0.85509  -0.84551
 Alpha  occ. eigenvalues --   -0.76656  -0.73662  -0.73038  -0.72982  -0.72535
 Alpha  occ. eigenvalues --   -0.72228  -0.72036  -0.71626  -0.70792  -0.70380
 Alpha  occ. eigenvalues --   -0.70226  -0.69388  -0.68365  -0.67916  -0.67398
 Alpha  occ. eigenvalues --   -0.66466  -0.66189  -0.65638  -0.65113  -0.64676
 Alpha  occ. eigenvalues --   -0.63953  -0.62955  -0.62608  -0.61967  -0.60918
 Alpha  occ. eigenvalues --   -0.60717  -0.60240  -0.60214  -0.59661  -0.59195
 Alpha  occ. eigenvalues --   -0.58909  -0.58005  -0.57021  -0.55997  -0.54566
 Alpha  occ. eigenvalues --   -0.54238  -0.54126  -0.53156  -0.52357  -0.52041
 Alpha  occ. eigenvalues --   -0.51847  -0.51466  -0.50956  -0.50705  -0.50381
 Alpha  occ. eigenvalues --   -0.50168  -0.48926  -0.48308  -0.47771  -0.46778
 Alpha  occ. eigenvalues --   -0.46673  -0.46568  -0.45835  -0.45765  -0.45071
 Alpha  occ. eigenvalues --   -0.44565  -0.43954  -0.43605  -0.42932  -0.42537
 Alpha  occ. eigenvalues --   -0.42264  -0.41962  -0.41689  -0.41631  -0.41304
 Alpha  occ. eigenvalues --   -0.40921  -0.40734  -0.40636  -0.40422  -0.40296
 Alpha  occ. eigenvalues --   -0.40070  -0.39821  -0.39605  -0.39425  -0.39263
 Alpha  occ. eigenvalues --   -0.39174  -0.38870  -0.38826  -0.38761  -0.38361
 Alpha  occ. eigenvalues --   -0.38152  -0.38060  -0.37811  -0.37667  -0.37592
 Alpha  occ. eigenvalues --   -0.37220  -0.36980  -0.36804  -0.36709  -0.36320
 Alpha  occ. eigenvalues --   -0.36155  -0.36013  -0.35823  -0.35541  -0.35523
 Alpha  occ. eigenvalues --   -0.35335  -0.35200  -0.35101  -0.35076  -0.35015
 Alpha  occ. eigenvalues --   -0.34882  -0.34555  -0.34388  -0.34341  -0.34081
 Alpha  occ. eigenvalues --   -0.33949  -0.33891  -0.33516  -0.33409  -0.33363
 Alpha  occ. eigenvalues --   -0.33136  -0.33108  -0.32817  -0.32613  -0.32398
 Alpha  occ. eigenvalues --   -0.32298  -0.32097  -0.31973  -0.31657  -0.31632
 Alpha  occ. eigenvalues --   -0.31438  -0.31347  -0.30880  -0.30748  -0.30641
 Alpha  occ. eigenvalues --   -0.30622  -0.30238  -0.30053  -0.29922  -0.29899
 Alpha  occ. eigenvalues --   -0.29721  -0.29489  -0.29391  -0.29355  -0.28840
 Alpha  occ. eigenvalues --   -0.28665  -0.28450  -0.27968  -0.27796  -0.27570
 Alpha  occ. eigenvalues --   -0.27446  -0.27235  -0.27108  -0.26569  -0.26533
 Alpha  occ. eigenvalues --   -0.26275  -0.26162  -0.25820  -0.25750  -0.25715
 Alpha  occ. eigenvalues --   -0.25515  -0.24662  -0.24615  -0.23889  -0.23861
 Alpha  occ. eigenvalues --   -0.23633  -0.22632  -0.22181  -0.21202  -0.21147
 Alpha  occ. eigenvalues --   -0.20893  -0.20484  -0.19311  -0.18419  -0.17365
 Alpha  occ. eigenvalues --   -0.15819
 Alpha virt. eigenvalues --   -0.11551  -0.06972  -0.05993  -0.04864  -0.04254
 Alpha virt. eigenvalues --   -0.02300  -0.01992  -0.01844  -0.00854   0.00117
 Alpha virt. eigenvalues --    0.01086   0.01357   0.01899   0.02393   0.02944

 Mulliken charges:
               1
     1  Mg   0.702893
     2  C    0.034829
     3  C   -0.083172
     4  C   -0.041866
     5  C   -0.054769
     6  N   -0.182891
     7  C   -0.119967
     8  C    0.067868
     9  C   -0.016858
    10  C    0.032482
    11  C    0.113408
    12  C    0.116067
    13  C    0.143499
    14  C    0.089309
    15  O   -0.192817
    16  O   -0.298331
    17  N   -0.272812
    18  C    0.130972
    19  C   -0.136556
    20  C    0.030739
    21  C    0.138750
    22  C    0.180885
    23  C   -0.062419
    24  O   -0.161188
    25  C    0.089592
    26  N   -0.240219
    27  C   -0.015428
    28  C    0.004585
    29  C    0.018301
    30  C    0.092182
    31  C    0.143733
    32  C    0.088760
    33  C    0.061012
    34  N   -0.210665
    35  C    0.034594
    36  C   -0.166438
    37  C    0.105706
    38  C    0.074776
    39  C    0.178230
    40  C   -0.062721
    41  O   -0.146193
    42  C    0.065726
    43  C    0.075653
    44  O   -0.210057
    45  O   -0.238377
    46  C    0.206027
    47  C    0.362437
    48  C   -0.086892
    49  C   -0.139260
    50  C    0.099580
    51  C    0.115922
    52  C    0.081080
    53  C    0.117220
    54  C   -0.080924
    55  C    0.103180
    56  C    0.098602
    57  C    0.024224
    58  C    0.087539
    59  C   -0.065965
    60  C    0.099172
    61  C    0.099226
    62  C    0.040716
    63  C    0.119550
    64  C   -0.088295
    65  C    0.100548
    66  C    0.107149
    67  H   -0.071427
    68  H   -0.044284
    69  H   -0.075728
    70  H   -0.032819
    71  H   -0.011231
    72  H   -0.008437
    73  H    0.009075
    74  H    0.005335
    75  H   -0.017328
    76  H   -0.012870
    77  H    0.021297
    78  H   -0.011036
    79  H    0.010980
    80  H   -0.008546
    81  H   -0.007277
    82  H   -0.009289
    83  H    0.004215
    84  H    0.015228
    85  H   -0.022074
    86  H   -0.037780
    87  H   -0.004690
    88  H   -0.012754
    89  H    0.004626
    90  H   -0.014198
    91  H   -0.030399
    92  H   -0.014091
    93  H   -0.001809
    94  H   -0.005066
    95  H    0.002685
    96  H   -0.030794
    97  H    0.018457
    98  H   -0.020369
    99  H    0.021272
   100  H    0.007556
   101  H    0.022340
   102  H   -0.012911
   103  H    0.010849
   104  H   -0.046956
   105  H   -0.002266
   106  H   -0.004752
   107  H   -0.012439
   108  H   -0.015590
   109  H   -0.031779
   110  H   -0.020403
   111  H   -0.030500
   112  H   -0.039697
   113  H   -0.025504
   114  H   -0.046745
   115  H   -0.017639
   116  H   -0.005314
   117  H   -0.028773
   118  H   -0.047300
   119  H   -0.025270
   120  H   -0.028650
   121  H   -0.011541
   122  H   -0.021659
   123  H   -0.028045
   124  H   -0.021778
   125  H   -0.043390
   126  H   -0.034992
   127  H   -0.004186
   128  H   -0.029205
   129  H   -0.025339
   130  H   -0.030170
   131  H   -0.026271
   132  H   -0.032834
   133  H   -0.041070
   134  H   -0.034280
   135  H   -0.019810
   136  H   -0.030678
   137  H   -0.000179
   138  H   -0.029299
   139  H   -0.028827
   140  H   -0.015219
 Sum of Mulliken charges =  -0.00000

 Dipole moment (field-independent basis, Debye):
    X=             -3.0340    Y=              3.4042    Z=              0.2080  Tot=              4.5648
 Quadrupole moment (field-independent basis, Debye-Ang):
   XX=           -375.1619   YY=           -425.8913   ZZ=           -412.0747
   XY=             -1.4556   XZ=             22.6038   YZ=             -3.2358

 Normal termination of Gaussian 16 at Wed May  4 06:28:02 2022.
