 Gaussian 16, Revision A.03,
 Gaussian 16:  ES64L-G16RevA.03 25-Dec-2016

 -----------------------------------
 #p cam-b3lyp/Def2SVP td=(nstates=5)
 -----------------------------------

 --------------------------------------------------------
 step_1401_chromophore_25 TDDFT with cam-b3lyp functional
 --------------------------------------------------------
 Symbolic Z-matrix:
 Charge =  0 Multiplicity = 1

                         Standard orientation:
 ---------------------------------------------------------------------
 Center     Atomic      Atomic             Coordinates (Angstroms)
 Number     Number       Type             X           Y           Z
 ---------------------------------------------------------------------
      1         12           0        6.103137    0.284617   -0.005817
      2          6           0        3.625571   -2.012609   -0.017395
      3          6           0        3.649276    2.679021   -0.735567
      4          6           0        8.542670    2.702024   -0.106360
      5          6           0        8.390578   -2.156607    0.394436
      6          7           0        3.874513    0.307157   -0.130274
      7          6           0        3.073721   -0.761878   -0.105167
      8          6           0        1.628986   -0.395111   -0.117497
      9          6           0        1.709162    1.152368   -0.511374
     10          6           0        3.180534    1.396907   -0.513927
     11          6           0        1.047663    1.488455   -1.919055
     12          6           0        0.824458   -0.777855    1.187898
     13          6           0       -0.397366   -1.669387    1.092297
     14          6           0       -1.685269   -0.994029    1.516049
     15          8           0       -1.910447   -0.572369    2.653441
     16          8           0       -2.586675   -1.021028    0.421817
     17          7           0        6.099643    2.340942   -0.342339
     18          6           0        5.007559    3.146954   -0.614578
     19          6           0        5.464707    4.531321   -0.878549
     20          6           0        6.874409    4.594896   -0.650922
     21          6           0        7.224958    3.122101   -0.374684
     22          6           0        4.515965    5.594663   -1.140963
     23          6           0        7.853204    5.715510   -0.693474
     24          8           0        9.070128    5.577025   -0.615766
     25          6           0        7.230858    7.107987   -0.720793
     26          7           0        8.185487    0.283857    0.024239
     27          6           0        9.004285    1.367906    0.060159
     28          6           0       10.499404    0.940125    0.390719
     29          6           0       10.325458   -0.519216    0.876476
     30          6           0        8.895921   -0.849494    0.402407
     31          6           0       11.517568    1.196811   -0.761161
     32          6           0       10.413689   -0.630096    2.381107
     33          6           0       11.362472   -1.712408    2.905305
     34          7           0        6.059390   -1.740467    0.146094
     35          6           0        7.054944   -2.625921    0.347461
     36          6           0        6.483775   -3.914544    0.641151
     37          6           0        5.137778   -3.727072    0.421240
     38          6           0        4.943336   -2.349066    0.234504
     39          6           0        7.229592   -5.198562    0.805381
     40          6           0        3.897631   -4.404662    0.421399
     41          8           0        3.663831   -5.616695    0.513332
     42          6           0        2.861416   -3.275630    0.147742
     43          6           0        2.213494   -3.681425   -1.117961
     44          8           0        2.763427   -3.800742   -2.231362
     45          8           0        0.953239   -4.077830   -0.862367
     46          6           0        0.125102   -4.321708   -2.003632
     47          6           0       -3.977401   -0.684261    0.691881
     48          6           0       -4.870051   -0.900468   -0.445218
     49          6           0       -6.185302   -0.951351   -0.555443
     50          6           0       -7.073208   -0.660777    0.688892
     51          6           0       -6.997970   -1.587781   -1.736725
     52          6           0       -7.640759   -0.619947   -2.791311
     53          6           0       -8.925665    0.119402   -2.352757
     54          6           0      -10.195745   -0.107120   -3.205130
     55          6           0      -10.641241    1.093202   -4.103492
     56          6           0      -11.387411   -0.667079   -2.431386
     57          6           0      -12.040574    0.291765   -1.422925
     58          6           0      -13.632779    0.282142   -1.374458
     59          6           0      -14.090172   -0.224226    0.113039
     60          6           0      -15.415837   -0.978245   -0.096636
     61          6           0      -14.278808    0.986624    1.125777
     62          6           0      -13.753203    0.664146    2.571256
     63          6           0      -12.280588    1.068017    2.756004
     64          6           0      -12.161818    2.541505    3.298587
     65          6           0      -10.911648    3.337514    2.837270
     66          6           0      -12.302222    2.612649    4.841679
     67          1           0        2.873439    3.421015   -0.932764
     68          1           0        9.401140    3.370084   -0.014712
     69          1           0        9.037733   -3.005361    0.629435
     70          1           0        1.175142   -0.967119   -0.926658
     71          1           0        1.328457    1.772922    0.299747
     72          1           0        0.743662    2.513788   -1.711207
     73          1           0        0.166031    0.924133   -2.221893
     74          1           0        1.785134    1.544796   -2.720648
     75          1           0        0.458443    0.173146    1.577248
     76          1           0        1.539156   -1.181397    1.905592
     77          1           0       -0.211313   -2.584577    1.653777
     78          1           0       -0.509071   -1.957735    0.047253
     79          1           0        4.677533    6.227347   -0.267864
     80          1           0        3.504921    5.243344   -1.345331
     81          1           0        4.750492    6.220950   -2.001486
     82          1           0        8.110757    7.719629   -0.525304
     83          1           0        6.570804    7.279406    0.129525
     84          1           0        6.668142    7.384464   -1.612557
     85          1           0       10.816635    1.604912    1.193965
     86          1           0       11.121702   -1.212086    0.605640
     87          1           0       11.899469    0.199049   -0.977984
     88          1           0       12.305955    1.843619   -0.377923
     89          1           0       11.121712    1.777713   -1.594132
     90          1           0        9.403455   -0.701490    2.784626
     91          1           0       10.811918    0.309710    2.762929
     92          1           0       10.682058   -2.415180    3.386266
     93          1           0       12.032221   -1.368181    3.693246
     94          1           0       11.868480   -2.330736    2.163093
     95          1           0        7.071969   -5.666429    1.776966
     96          1           0        8.295330   -4.984677    0.720838
     97          1           0        6.974016   -5.913945    0.023411
     98          1           0        2.103913   -3.341654    0.928100
     99          1           0        0.476352   -3.826653   -2.908686
    100          1           0       -0.825446   -3.882594   -1.702544
    101          1           0       -0.019828   -5.391374   -2.158745
    102          1           0       -3.901014    0.400104    0.774085
    103          1           0       -4.350064   -1.034406    1.654237
    104          1           0       -4.410985   -1.249688   -1.370314
    105          1           0       -7.578217   -1.591894    0.944098
    106          1           0       -7.848255    0.044714    0.388967
    107          1           0       -6.679086   -0.197161    1.593464
    108          1           0       -7.827516   -2.217389   -1.414791
    109          1           0       -6.276987   -2.142364   -2.338312
    110          1           0       -7.778553   -1.259489   -3.663084
    111          1           0       -6.935384    0.177583   -3.026662
    112          1           0       -8.718106    1.188584   -2.389500
    113          1           0       -9.253089   -0.098671   -1.336629
    114          1           0       -9.999550   -0.930523   -3.892228
    115          1           0      -11.670770    1.379231   -3.889356
    116          1           0      -10.448074    0.834510   -5.144521
    117          1           0      -10.185244    2.058205   -3.882834
    118          1           0      -10.944234   -1.448186   -1.813554
    119          1           0      -12.084119   -1.160836   -3.108093
    120          1           0      -11.736597    1.328829   -1.561932
    121          1           0      -11.800974    0.010024   -0.397840
    122          1           0      -14.072464   -0.350535   -2.144917
    123          1           0      -13.930066    1.324231   -1.493896
    124          1           0      -13.338414   -0.902680    0.513401
    125          1           0      -16.261249   -0.823636    0.574403
    126          1           0      -15.249175   -1.961270    0.343171
    127          1           0      -15.937403   -1.021510   -1.051939
    128          1           0      -15.332155    1.165643    1.337151
    129          1           0      -13.763349    1.874498    0.758885
    130          1           0      -13.844749   -0.392519    2.822116
    131          1           0      -14.498099    1.238579    3.120516
    132          1           0      -11.625174    0.955511    1.891628
    133          1           0      -11.902934    0.415839    3.543615
    134          1           0      -13.031176    3.023213    2.851039
    135          1           0      -11.083126    4.388874    3.069190
    136          1           0      -11.022273    3.325419    1.752967
    137          1           0       -9.890557    3.046520    3.082345
    138          1           0      -12.443428    1.655527    5.344060
    139          1           0      -13.233251    3.090907    5.146861
    140          1           0      -11.514216    3.141778    5.376563
 ---------------------------------------------------------------------

 SCF Done:  E(RCAM-B3LYP) =  -3007.14747290     A.U. after   18 cycles

 Excitation energies and oscillator strengths:

 Excited State   1:      Singlet-A      1.7234 eV  719.42 nm  f=0.4038  <S**2>=0.000
     245 -> 248       -0.16542
     246 -> 247        0.68733
     245 <- 248       -0.10075
 This state for optimization and/or second-order correction.
 Total Energy, E(TD-HF/TD-DFT) =  -3007.08413941
 Copying the excited state density for this state as the 1-particle RhoCI density.

 Excited State   2:      Singlet-A      2.2742 eV  545.17 nm  f=0.1157  <S**2>=0.000
     245 -> 247        0.63865
     246 -> 248        0.28401

 Excited State   3:      Singlet-A      3.4844 eV  355.82 nm  f=0.0059  <S**2>=0.000
     242 -> 247        0.47310
     242 -> 249        0.24247
     242 -> 250        0.23342
     244 -> 247        0.30731
     244 -> 249        0.12738
     244 -> 250        0.11372

 Excited State   4:      Singlet-A      3.5374 eV  350.50 nm  f=0.3845  <S**2>=0.000
     241 -> 247       -0.35949
     244 -> 247       -0.13380
     245 -> 247       -0.21179
     246 -> 248        0.52984

 Excited State   5:      Singlet-A      3.6069 eV  343.74 nm  f=0.2177  <S**2>=0.000
     241 -> 247        0.37038
     242 -> 247       -0.29134
     244 -> 247        0.36778
     245 -> 247       -0.16159
     246 -> 248        0.31205

 The electronic state is 1-A.
 Alpha  occ. eigenvalues --  -46.88213 -19.25454 -19.25342 -19.21059 -19.19661
 Alpha  occ. eigenvalues --  -19.18821 -19.18062 -14.42125 -14.41898 -14.40628
 Alpha  occ. eigenvalues --  -14.38547 -10.40389 -10.38750 -10.35790 -10.33847
 Alpha  occ. eigenvalues --  -10.32311 -10.31343 -10.31307 -10.31275 -10.31257
 Alpha  occ. eigenvalues --  -10.30899 -10.30810 -10.30069 -10.29564 -10.28715
 Alpha  occ. eigenvalues --  -10.28600 -10.28232 -10.27873 -10.27798 -10.27561
 Alpha  occ. eigenvalues --  -10.27459 -10.27443 -10.27412 -10.27353 -10.27330
 Alpha  occ. eigenvalues --  -10.27307 -10.27267 -10.26938 -10.26930 -10.26911
 Alpha  occ. eigenvalues --  -10.26686 -10.26544 -10.26508 -10.26424 -10.26404
 Alpha  occ. eigenvalues --  -10.26194 -10.25868 -10.25841 -10.25783 -10.25754
 Alpha  occ. eigenvalues --  -10.25725 -10.25524 -10.25469 -10.25417 -10.25291
 Alpha  occ. eigenvalues --  -10.25093 -10.25069 -10.24983 -10.24893 -10.24848
 Alpha  occ. eigenvalues --  -10.24749 -10.24659 -10.24484 -10.24155 -10.24082
 Alpha  occ. eigenvalues --  -10.23465  -3.16892  -1.91805  -1.91321  -1.91228
 Alpha  occ. eigenvalues --   -1.17150  -1.15390  -1.10454  -1.08359  -1.08327
 Alpha  occ. eigenvalues --   -1.06462  -1.06246  -1.05048  -1.03229  -1.02259
 Alpha  occ. eigenvalues --   -0.93711  -0.90506  -0.89783  -0.89724  -0.89293
 Alpha  occ. eigenvalues --   -0.89092  -0.88746  -0.88515  -0.87284  -0.86808
 Alpha  occ. eigenvalues --   -0.86749  -0.85789  -0.84634  -0.84025  -0.83612
 Alpha  occ. eigenvalues --   -0.82574  -0.82393  -0.81624  -0.80955  -0.80581
 Alpha  occ. eigenvalues --   -0.79711  -0.78755  -0.78377  -0.77488  -0.76268
 Alpha  occ. eigenvalues --   -0.76087  -0.75595  -0.75479  -0.74952  -0.74424
 Alpha  occ. eigenvalues --   -0.74004  -0.73013  -0.71944  -0.70825  -0.69084
 Alpha  occ. eigenvalues --   -0.68909  -0.68771  -0.67694  -0.66700  -0.66319
 Alpha  occ. eigenvalues --   -0.66145  -0.65528  -0.64922  -0.64766  -0.64473
 Alpha  occ. eigenvalues --   -0.63944  -0.62661  -0.62122  -0.61517  -0.60412
 Alpha  occ. eigenvalues --   -0.60272  -0.60169  -0.59356  -0.59162  -0.58612
 Alpha  occ. eigenvalues --   -0.58002  -0.57269  -0.56886  -0.56124  -0.55871
 Alpha  occ. eigenvalues --   -0.55395  -0.55057  -0.54899  -0.54406  -0.54172
 Alpha  occ. eigenvalues --   -0.53815  -0.53498  -0.53470  -0.53131  -0.53030
 Alpha  occ. eigenvalues --   -0.52965  -0.52667  -0.52270  -0.51858  -0.51670
 Alpha  occ. eigenvalues --   -0.51630  -0.51425  -0.51318  -0.51290  -0.50725
 Alpha  occ. eigenvalues --   -0.50578  -0.50481  -0.50345  -0.49993  -0.49812
 Alpha  occ. eigenvalues --   -0.49618  -0.49340  -0.49248  -0.48943  -0.48870
 Alpha  occ. eigenvalues --   -0.48692  -0.48335  -0.48260  -0.47960  -0.47533
 Alpha  occ. eigenvalues --   -0.47384  -0.47299  -0.47109  -0.46975  -0.46901
 Alpha  occ. eigenvalues --   -0.46809  -0.46648  -0.46291  -0.46046  -0.45813
 Alpha  occ. eigenvalues --   -0.45783  -0.45694  -0.45228  -0.45184  -0.45034
 Alpha  occ. eigenvalues --   -0.44851  -0.44712  -0.44561  -0.44249  -0.43941
 Alpha  occ. eigenvalues --   -0.43885  -0.43769  -0.43559  -0.43429  -0.43353
 Alpha  occ. eigenvalues --   -0.43103  -0.42823  -0.42764  -0.42543  -0.42318
 Alpha  occ. eigenvalues --   -0.41899  -0.41754  -0.41493  -0.41217  -0.41091
 Alpha  occ. eigenvalues --   -0.41004  -0.40900  -0.40651  -0.40501  -0.39882
 Alpha  occ. eigenvalues --   -0.39690  -0.39388  -0.38982  -0.38662  -0.38463
 Alpha  occ. eigenvalues --   -0.38405  -0.38029  -0.37955  -0.37677  -0.37348
 Alpha  occ. eigenvalues --   -0.37164  -0.37072  -0.36835  -0.36590  -0.36350
 Alpha  occ. eigenvalues --   -0.36215  -0.36012  -0.35159  -0.34840  -0.34613
 Alpha  occ. eigenvalues --   -0.34189  -0.33699  -0.33135  -0.31892  -0.31318
 Alpha  occ. eigenvalues --   -0.30633  -0.30263  -0.30135  -0.30106  -0.24179
 Alpha  occ. eigenvalues --   -0.21081
 Alpha virt. eigenvalues --   -0.08627  -0.01568   0.00237   0.01992   0.03311
 Alpha virt. eigenvalues --    0.03522   0.05222   0.05553   0.05770   0.06395
 Alpha virt. eigenvalues --    0.07920   0.07965   0.08593   0.08736   0.09180

 Mulliken charges:
               1
     1  Mg   0.840269
     2  C    0.008020
     3  C   -0.097764
     4  C   -0.065019
     5  C   -0.054759
     6  N   -0.256838
     7  C   -0.071961
     8  C    0.021102
     9  C   -0.075399
    10  C    0.056138
    11  C    0.055991
    12  C    0.058071
    13  C    0.075117
    14  C    0.174341
    15  O   -0.232593
    16  O   -0.365306
    17  N   -0.361287
    18  C    0.146676
    19  C   -0.138203
    20  C   -0.035719
    21  C    0.167512
    22  C    0.114494
    23  C    0.020208
    24  O   -0.200307
    25  C    0.006566
    26  N   -0.313537
    27  C    0.007818
    28  C   -0.043249
    29  C   -0.039938
    30  C    0.097163
    31  C    0.084706
    32  C    0.036798
    33  C   -0.004196
    34  N   -0.303825
    35  C    0.034532
    36  C   -0.163188
    37  C    0.032784
    38  C    0.107840
    39  C    0.126778
    40  C    0.032160
    41  O   -0.187741
    42  C   -0.022884
    43  C    0.170983
    44  O   -0.247545
    45  O   -0.300394
    46  C    0.167401
    47  C    0.323938
    48  C   -0.107799
    49  C   -0.162118
    50  C    0.039482
    51  C    0.060320
    52  C    0.029999
    53  C    0.059882
    54  C   -0.133300
    55  C    0.043358
    56  C    0.048990
    57  C   -0.027987
    58  C    0.040221
    59  C   -0.119272
    60  C    0.036425
    61  C    0.050528
    62  C   -0.013691
    63  C    0.063125
    64  C   -0.145656
    65  C    0.043395
    66  C    0.044276
    67  H   -0.037078
    68  H   -0.003020
    69  H   -0.041976
    70  H   -0.000116
    71  H    0.023642
    72  H    0.013868
    73  H    0.034573
    74  H    0.031793
    75  H    0.014433
    76  H    0.019901
    77  H    0.052790
    78  H    0.020958
    79  H    0.037227
    80  H    0.021889
    81  H    0.021917
    82  H    0.027957
    83  H    0.033297
    84  H    0.043490
    85  H    0.012803
    86  H   -0.002162
    87  H    0.019523
    88  H    0.011749
    89  H    0.030083
    90  H    0.015654
    91  H   -0.001950
    92  H    0.009926
    93  H    0.022475
    94  H    0.017458
    95  H    0.028161
    96  H   -0.007871
    97  H    0.043748
    98  H    0.023190
    99  H    0.047038
   100  H    0.027194
   101  H    0.045132
   102  H    0.017134
   103  H    0.038837
   104  H   -0.012174
   105  H    0.021702
   106  H    0.016626
   107  H    0.013395
   108  H    0.011897
   109  H   -0.000927
   110  H    0.007670
   111  H   -0.001440
   112  H   -0.009550
   113  H   -0.002089
   114  H   -0.012922
   115  H    0.005107
   116  H    0.018970
   117  H   -0.004336
   118  H   -0.018427
   119  H    0.003290
   120  H   -0.002424
   121  H    0.010088
   122  H    0.005744
   123  H    0.000197
   124  H    0.007960
   125  H   -0.016889
   126  H   -0.009760
   127  H    0.020107
   128  H   -0.000169
   129  H   -0.001159
   130  H   -0.001958
   131  H    0.001796
   132  H   -0.006643
   133  H   -0.010777
   134  H   -0.003963
   135  H    0.005222
   136  H   -0.008067
   137  H    0.022968
   138  H   -0.004364
   139  H   -0.004240
   140  H    0.009938
 Sum of Mulliken charges =  -0.00000

 Dipole moment (field-independent basis, Debye):
    X=             -3.0827    Y=              4.7208    Z=              0.0532  Tot=              5.6384
 Quadrupole moment (field-independent basis, Debye-Ang):
   XX=           -372.3234   YY=           -420.8705   ZZ=           -412.3931
   XY=              6.5537   XZ=             22.6297   YZ=             -4.1813

 Normal termination of Gaussian 16 at Wed May  4 05:29:37 2022.
