 Gaussian 16, Revision A.03,
 Gaussian 16:  ES64L-G16RevA.03 25-Dec-2016

 ---------------------------------
 #p PBE1PBE/Def2SVP td=(nstates=5)
 ---------------------------------

 ------------------------------------------------------
 step_1401_chromophore_25 TDDFT with PBE1PBE functional
 ------------------------------------------------------
 Symbolic Z-matrix:
 Charge =  0 Multiplicity = 1

                         Standard orientation:
 ---------------------------------------------------------------------
 Center     Atomic      Atomic             Coordinates (Angstroms)
 Number     Number       Type             X           Y           Z
 ---------------------------------------------------------------------
      1         12           0        6.103137    0.284617   -0.005817
      2          6           0        3.625571   -2.012609   -0.017395
      3          6           0        3.649276    2.679021   -0.735567
      4          6           0        8.542670    2.702024   -0.106360
      5          6           0        8.390578   -2.156607    0.394436
      6          7           0        3.874513    0.307157   -0.130274
      7          6           0        3.073721   -0.761878   -0.105167
      8          6           0        1.628986   -0.395111   -0.117497
      9          6           0        1.709162    1.152368   -0.511374
     10          6           0        3.180534    1.396907   -0.513927
     11          6           0        1.047663    1.488455   -1.919055
     12          6           0        0.824458   -0.777855    1.187898
     13          6           0       -0.397366   -1.669387    1.092297
     14          6           0       -1.685269   -0.994029    1.516049
     15          8           0       -1.910447   -0.572369    2.653441
     16          8           0       -2.586675   -1.021028    0.421817
     17          7           0        6.099643    2.340942   -0.342339
     18          6           0        5.007559    3.146954   -0.614578
     19          6           0        5.464707    4.531321   -0.878549
     20          6           0        6.874409    4.594896   -0.650922
     21          6           0        7.224958    3.122101   -0.374684
     22          6           0        4.515965    5.594663   -1.140963
     23          6           0        7.853204    5.715510   -0.693474
     24          8           0        9.070128    5.577025   -0.615766
     25          6           0        7.230858    7.107987   -0.720793
     26          7           0        8.185487    0.283857    0.024239
     27          6           0        9.004285    1.367906    0.060159
     28          6           0       10.499404    0.940125    0.390719
     29          6           0       10.325458   -0.519216    0.876476
     30          6           0        8.895921   -0.849494    0.402407
     31          6           0       11.517568    1.196811   -0.761161
     32          6           0       10.413689   -0.630096    2.381107
     33          6           0       11.362472   -1.712408    2.905305
     34          7           0        6.059390   -1.740467    0.146094
     35          6           0        7.054944   -2.625921    0.347461
     36          6           0        6.483775   -3.914544    0.641151
     37          6           0        5.137778   -3.727072    0.421240
     38          6           0        4.943336   -2.349066    0.234504
     39          6           0        7.229592   -5.198562    0.805381
     40          6           0        3.897631   -4.404662    0.421399
     41          8           0        3.663831   -5.616695    0.513332
     42          6           0        2.861416   -3.275630    0.147742
     43          6           0        2.213494   -3.681425   -1.117961
     44          8           0        2.763427   -3.800742   -2.231362
     45          8           0        0.953239   -4.077830   -0.862367
     46          6           0        0.125102   -4.321708   -2.003632
     47          6           0       -3.977401   -0.684261    0.691881
     48          6           0       -4.870051   -0.900468   -0.445218
     49          6           0       -6.185302   -0.951351   -0.555443
     50          6           0       -7.073208   -0.660777    0.688892
     51          6           0       -6.997970   -1.587781   -1.736725
     52          6           0       -7.640759   -0.619947   -2.791311
     53          6           0       -8.925665    0.119402   -2.352757
     54          6           0      -10.195745   -0.107120   -3.205130
     55          6           0      -10.641241    1.093202   -4.103492
     56          6           0      -11.387411   -0.667079   -2.431386
     57          6           0      -12.040574    0.291765   -1.422925
     58          6           0      -13.632779    0.282142   -1.374458
     59          6           0      -14.090172   -0.224226    0.113039
     60          6           0      -15.415837   -0.978245   -0.096636
     61          6           0      -14.278808    0.986624    1.125777
     62          6           0      -13.753203    0.664146    2.571256
     63          6           0      -12.280588    1.068017    2.756004
     64          6           0      -12.161818    2.541505    3.298587
     65          6           0      -10.911648    3.337514    2.837270
     66          6           0      -12.302222    2.612649    4.841679
     67          1           0        2.873439    3.421015   -0.932764
     68          1           0        9.401140    3.370084   -0.014712
     69          1           0        9.037733   -3.005361    0.629435
     70          1           0        1.175142   -0.967119   -0.926658
     71          1           0        1.328457    1.772922    0.299747
     72          1           0        0.743662    2.513788   -1.711207
     73          1           0        0.166031    0.924133   -2.221893
     74          1           0        1.785134    1.544796   -2.720648
     75          1           0        0.458443    0.173146    1.577248
     76          1           0        1.539156   -1.181397    1.905592
     77          1           0       -0.211313   -2.584577    1.653777
     78          1           0       -0.509071   -1.957735    0.047253
     79          1           0        4.677533    6.227347   -0.267864
     80          1           0        3.504921    5.243344   -1.345331
     81          1           0        4.750492    6.220950   -2.001486
     82          1           0        8.110757    7.719629   -0.525304
     83          1           0        6.570804    7.279406    0.129525
     84          1           0        6.668142    7.384464   -1.612557
     85          1           0       10.816635    1.604912    1.193965
     86          1           0       11.121702   -1.212086    0.605640
     87          1           0       11.899469    0.199049   -0.977984
     88          1           0       12.305955    1.843619   -0.377923
     89          1           0       11.121712    1.777713   -1.594132
     90          1           0        9.403455   -0.701490    2.784626
     91          1           0       10.811918    0.309710    2.762929
     92          1           0       10.682058   -2.415180    3.386266
     93          1           0       12.032221   -1.368181    3.693246
     94          1           0       11.868480   -2.330736    2.163093
     95          1           0        7.071969   -5.666429    1.776966
     96          1           0        8.295330   -4.984677    0.720838
     97          1           0        6.974016   -5.913945    0.023411
     98          1           0        2.103913   -3.341654    0.928100
     99          1           0        0.476352   -3.826653   -2.908686
    100          1           0       -0.825446   -3.882594   -1.702544
    101          1           0       -0.019828   -5.391374   -2.158745
    102          1           0       -3.901014    0.400104    0.774085
    103          1           0       -4.350064   -1.034406    1.654237
    104          1           0       -4.410985   -1.249688   -1.370314
    105          1           0       -7.578217   -1.591894    0.944098
    106          1           0       -7.848255    0.044714    0.388967
    107          1           0       -6.679086   -0.197161    1.593464
    108          1           0       -7.827516   -2.217389   -1.414791
    109          1           0       -6.276987   -2.142364   -2.338312
    110          1           0       -7.778553   -1.259489   -3.663084
    111          1           0       -6.935384    0.177583   -3.026662
    112          1           0       -8.718106    1.188584   -2.389500
    113          1           0       -9.253089   -0.098671   -1.336629
    114          1           0       -9.999550   -0.930523   -3.892228
    115          1           0      -11.670770    1.379231   -3.889356
    116          1           0      -10.448074    0.834510   -5.144521
    117          1           0      -10.185244    2.058205   -3.882834
    118          1           0      -10.944234   -1.448186   -1.813554
    119          1           0      -12.084119   -1.160836   -3.108093
    120          1           0      -11.736597    1.328829   -1.561932
    121          1           0      -11.800974    0.010024   -0.397840
    122          1           0      -14.072464   -0.350535   -2.144917
    123          1           0      -13.930066    1.324231   -1.493896
    124          1           0      -13.338414   -0.902680    0.513401
    125          1           0      -16.261249   -0.823636    0.574403
    126          1           0      -15.249175   -1.961270    0.343171
    127          1           0      -15.937403   -1.021510   -1.051939
    128          1           0      -15.332155    1.165643    1.337151
    129          1           0      -13.763349    1.874498    0.758885
    130          1           0      -13.844749   -0.392519    2.822116
    131          1           0      -14.498099    1.238579    3.120516
    132          1           0      -11.625174    0.955511    1.891628
    133          1           0      -11.902934    0.415839    3.543615
    134          1           0      -13.031176    3.023213    2.851039
    135          1           0      -11.083126    4.388874    3.069190
    136          1           0      -11.022273    3.325419    1.752967
    137          1           0       -9.890557    3.046520    3.082345
    138          1           0      -12.443428    1.655527    5.344060
    139          1           0      -13.233251    3.090907    5.146861
    140          1           0      -11.514216    3.141778    5.376563
 ---------------------------------------------------------------------

 SCF Done:  E(RPBE1PBE) =  -3005.33671053     A.U. after   15 cycles

 Excitation energies and oscillator strengths:

 Excited State   1:      Singlet-A      1.8608 eV  666.30 nm  f=0.3925  <S**2>=0.000
     245 -> 248        0.15518
     246 -> 247        0.69413
     246 <- 247       -0.10889
 This state for optimization and/or second-order correction.
 Total Energy, E(TD-HF/TD-DFT) =  -3005.26832836
 Copying the excited state density for this state as the 1-particle RhoCI density.

 Excited State   2:      Singlet-A      2.2689 eV  546.45 nm  f=0.1152  <S**2>=0.000
     245 -> 247        0.65113
     246 -> 248       -0.25208

 Excited State   3:      Singlet-A      2.9471 eV  420.70 nm  f=0.0008  <S**2>=0.000
     244 -> 247        0.67436
     244 -> 249       -0.15798
     244 -> 250       -0.11659

 Excited State   4:      Singlet-A      3.2105 eV  386.19 nm  f=0.0014  <S**2>=0.000
     240 -> 247        0.49990
     240 -> 248        0.12207
     240 -> 249        0.12240
     241 -> 247       -0.23797
     242 -> 247        0.37059

 Excited State   5:      Singlet-A      3.2579 eV  380.57 nm  f=0.0356  <S**2>=0.000
     240 -> 247       -0.31900
     242 -> 247        0.55897
     246 -> 248        0.22926

 The electronic state is 1-A.
 Alpha  occ. eigenvalues --  -46.91616 -19.26224 -19.26017 -19.21371 -19.19655
 Alpha  occ. eigenvalues --  -19.19139 -19.18529 -14.41661 -14.41408 -14.40169
 Alpha  occ. eigenvalues --  -14.38263 -10.37488 -10.35834 -10.32682 -10.31171
 Alpha  occ. eigenvalues --  -10.29710 -10.28897 -10.28877 -10.28828 -10.28726
 Alpha  occ. eigenvalues --  -10.28515 -10.28320 -10.27902 -10.26903 -10.26746
 Alpha  occ. eigenvalues --  -10.26366 -10.26077 -10.25686 -10.25308 -10.25289
 Alpha  occ. eigenvalues --  -10.25249 -10.25239 -10.25086 -10.24983 -10.24979
 Alpha  occ. eigenvalues --  -10.24905 -10.24839 -10.24583 -10.24516 -10.24419
 Alpha  occ. eigenvalues --  -10.24410 -10.24388 -10.24266 -10.23997 -10.23870
 Alpha  occ. eigenvalues --  -10.23550 -10.23432 -10.23428 -10.23346 -10.23236
 Alpha  occ. eigenvalues --  -10.23235 -10.23167 -10.23063 -10.22920 -10.22910
 Alpha  occ. eigenvalues --  -10.22654 -10.22649 -10.22543 -10.22451 -10.22419
 Alpha  occ. eigenvalues --  -10.22311 -10.22045 -10.21888 -10.21537 -10.21511
 Alpha  occ. eigenvalues --  -10.21436  -3.13873  -1.86729  -1.86222  -1.86132
 Alpha  occ. eigenvalues --   -1.11994  -1.10227  -1.04965  -1.03267  -1.03235
 Alpha  occ. eigenvalues --   -1.01321  -1.01151  -0.99724  -0.97779  -0.96787
 Alpha  occ. eigenvalues --   -0.88219  -0.84663  -0.84043  -0.83946  -0.83435
 Alpha  occ. eigenvalues --   -0.83293  -0.82845  -0.82727  -0.81657  -0.81275
 Alpha  occ. eigenvalues --   -0.80855  -0.80042  -0.78848  -0.78365  -0.77861
 Alpha  occ. eigenvalues --   -0.76747  -0.76520  -0.75928  -0.75210  -0.74897
 Alpha  occ. eigenvalues --   -0.73893  -0.72972  -0.72614  -0.71829  -0.70666
 Alpha  occ. eigenvalues --   -0.70226  -0.69849  -0.69670  -0.69088  -0.68602
 Alpha  occ. eigenvalues --   -0.68317  -0.67493  -0.66360  -0.65191  -0.63617
 Alpha  occ. eigenvalues --   -0.63233  -0.63018  -0.62103  -0.61006  -0.60720
 Alpha  occ. eigenvalues --   -0.60339  -0.59932  -0.59524  -0.59316  -0.58611
 Alpha  occ. eigenvalues --   -0.58470  -0.57262  -0.56326  -0.55765  -0.54992
 Alpha  occ. eigenvalues --   -0.54767  -0.54571  -0.53941  -0.53746  -0.53169
 Alpha  occ. eigenvalues --   -0.52529  -0.51803  -0.51386  -0.50606  -0.50356
 Alpha  occ. eigenvalues --   -0.49929  -0.49662  -0.49535  -0.48929  -0.48573
 Alpha  occ. eigenvalues --   -0.48351  -0.48071  -0.47925  -0.47585  -0.47500
 Alpha  occ. eigenvalues --   -0.47404  -0.47171  -0.46888  -0.46395  -0.46274
 Alpha  occ. eigenvalues --   -0.46145  -0.46073  -0.45935  -0.45832  -0.45322
 Alpha  occ. eigenvalues --   -0.45149  -0.45002  -0.44883  -0.44537  -0.44404
 Alpha  occ. eigenvalues --   -0.44149  -0.43886  -0.43829  -0.43571  -0.43507
 Alpha  occ. eigenvalues --   -0.43317  -0.42945  -0.42859  -0.42654  -0.42148
 Alpha  occ. eigenvalues --   -0.41978  -0.41913  -0.41770  -0.41681  -0.41536
 Alpha  occ. eigenvalues --   -0.41433  -0.41377  -0.41001  -0.40679  -0.40530
 Alpha  occ. eigenvalues --   -0.40467  -0.40301  -0.40033  -0.39979  -0.39775
 Alpha  occ. eigenvalues --   -0.39722  -0.39550  -0.39298  -0.38963  -0.38794
 Alpha  occ. eigenvalues --   -0.38608  -0.38438  -0.38262  -0.38236  -0.38133
 Alpha  occ. eigenvalues --   -0.37912  -0.37537  -0.37480  -0.37369  -0.37167
 Alpha  occ. eigenvalues --   -0.36628  -0.36593  -0.36413  -0.36041  -0.35973
 Alpha  occ. eigenvalues --   -0.35894  -0.35784  -0.35571  -0.35250  -0.34624
 Alpha  occ. eigenvalues --   -0.34620  -0.34185  -0.33942  -0.33512  -0.33444
 Alpha  occ. eigenvalues --   -0.33290  -0.32883  -0.32787  -0.32687  -0.32247
 Alpha  occ. eigenvalues --   -0.32191  -0.32006  -0.31677  -0.31646  -0.31178
 Alpha  occ. eigenvalues --   -0.31086  -0.31007  -0.30055  -0.29941  -0.29580
 Alpha  occ. eigenvalues --   -0.29205  -0.28868  -0.28389  -0.26968  -0.26472
 Alpha  occ. eigenvalues --   -0.26152  -0.25895  -0.25415  -0.25255  -0.21081
 Alpha  occ. eigenvalues --   -0.18734
 Alpha virt. eigenvalues --   -0.11133  -0.05184  -0.03869  -0.02368  -0.01108
 Alpha virt. eigenvalues --    0.00375   0.00833   0.01184   0.01739   0.02777
 Alpha virt. eigenvalues --    0.03916   0.04429   0.04711   0.05245   0.05892

 Mulliken charges:
               1
     1  Mg   0.994512
     2  C    0.001236
     3  C   -0.082832
     4  C   -0.055583
     5  C   -0.047883
     6  N   -0.365222
     7  C    0.005885
     8  C   -0.041002
     9  C   -0.160156
    10  C    0.091527
    11  C   -0.001648
    12  C    0.007251
    13  C   -0.008403
    14  C    0.240855
    15  O   -0.264877
    16  O   -0.397730
    17  N   -0.477233
    18  C    0.174375
    19  C   -0.172961
    20  C   -0.073804
    21  C    0.191656
    22  C    0.050798
    23  C    0.067677
    24  O   -0.240204
    25  C   -0.065411
    26  N   -0.417279
    27  C    0.044513
    28  C   -0.111847
    29  C   -0.124302
    30  C    0.122900
    31  C    0.026567
    32  C   -0.012419
    33  C   -0.077136
    34  N   -0.442893
    35  C    0.064220
    36  C   -0.179773
    37  C   -0.008557
    38  C    0.160749
    39  C    0.071947
    40  C    0.123444
    41  O   -0.233031
    42  C   -0.144614
    43  C    0.270530
    44  O   -0.281458
    45  O   -0.334984
    46  C    0.113961
    47  C    0.284047
    48  C   -0.122188
    49  C   -0.200129
    50  C   -0.021808
    51  C   -0.009301
    52  C   -0.032538
    53  C    0.004805
    54  C   -0.213554
    55  C   -0.014787
    56  C   -0.011630
    57  C   -0.094398
    58  C   -0.007870
    59  C   -0.207724
    60  C   -0.017430
    61  C   -0.000829
    62  C   -0.078608
    63  C    0.004470
    64  C   -0.238566
    65  C   -0.020706
    66  C   -0.011798
    67  H   -0.004943
    68  H    0.028838
    69  H   -0.007268
    70  H    0.041579
    71  H    0.059487
    72  H    0.041451
    73  H    0.060867
    74  H    0.059406
    75  H    0.048562
    76  H    0.052301
    77  H    0.083884
    78  H    0.058892
    79  H    0.065013
    80  H    0.047776
    81  H    0.049596
    82  H    0.054737
    83  H    0.059857
    84  H    0.068849
    85  H    0.049229
    86  H    0.034094
    87  H    0.046798
    88  H    0.039091
    89  H    0.057295
    90  H    0.048585
    91  H    0.032454
    92  H    0.038239
    93  H    0.050355
    94  H    0.043175
    95  H    0.056834
    96  H    0.020989
    97  H    0.071351
    98  H    0.063484
    99  H    0.067698
   100  H    0.048210
   101  H    0.067200
   102  H    0.046567
   103  H    0.063572
   104  H    0.018588
   105  H    0.049592
   106  H    0.045836
   107  H    0.039597
   108  H    0.044395
   109  H    0.031718
   110  H    0.038280
   111  H    0.031958
   112  H    0.023245
   113  H    0.031584
   114  H    0.026286
   115  H    0.033186
   116  H    0.046188
   117  H    0.022243
   118  H    0.017542
   119  H    0.034554
   120  H    0.029255
   121  H    0.045239
   122  H    0.036633
   123  H    0.032650
   124  H    0.044246
   125  H    0.009889
   126  H    0.017938
   127  H    0.045596
   128  H    0.031637
   129  H    0.031152
   130  H    0.030273
   131  H    0.033661
   132  H    0.027602
   133  H    0.022877
   134  H    0.034870
   135  H    0.034259
   136  H    0.021041
   137  H    0.049349
   138  H    0.022192
   139  H    0.023108
   140  H    0.036821
 Sum of Mulliken charges =  -0.00000

 Dipole moment (field-independent basis, Debye):
    X=             -3.1135    Y=              4.1454    Z=              0.2033  Tot=              5.1884
 Quadrupole moment (field-independent basis, Debye-Ang):
   XX=           -366.1502   YY=           -418.6971   ZZ=           -409.7904
   XY=              2.3295   XZ=             24.0040   YZ=             -4.0259

 Normal termination of Gaussian 16 at Wed May  4 05:49:19 2022.
