 Gaussian 16, Revision A.03,
 Gaussian 16:  ES64L-G16RevA.03 25-Dec-2016

 --------------------------------
 #p wB97XD/Def2SVP td=(nstates=5)
 --------------------------------

 -----------------------------------------------------
 step_1401_chromophore_25 TDDFT with wB97XD functional
 -----------------------------------------------------
 Symbolic Z-matrix:
 Charge =  0 Multiplicity = 1

                         Standard orientation:
 ---------------------------------------------------------------------
 Center     Atomic      Atomic             Coordinates (Angstroms)
 Number     Number       Type             X           Y           Z
 ---------------------------------------------------------------------
      1         12           0        6.103137    0.284617   -0.005817
      2          6           0        3.625571   -2.012609   -0.017395
      3          6           0        3.649276    2.679021   -0.735567
      4          6           0        8.542670    2.702024   -0.106360
      5          6           0        8.390578   -2.156607    0.394436
      6          7           0        3.874513    0.307157   -0.130274
      7          6           0        3.073721   -0.761878   -0.105167
      8          6           0        1.628986   -0.395111   -0.117497
      9          6           0        1.709162    1.152368   -0.511374
     10          6           0        3.180534    1.396907   -0.513927
     11          6           0        1.047663    1.488455   -1.919055
     12          6           0        0.824458   -0.777855    1.187898
     13          6           0       -0.397366   -1.669387    1.092297
     14          6           0       -1.685269   -0.994029    1.516049
     15          8           0       -1.910447   -0.572369    2.653441
     16          8           0       -2.586675   -1.021028    0.421817
     17          7           0        6.099643    2.340942   -0.342339
     18          6           0        5.007559    3.146954   -0.614578
     19          6           0        5.464707    4.531321   -0.878549
     20          6           0        6.874409    4.594896   -0.650922
     21          6           0        7.224958    3.122101   -0.374684
     22          6           0        4.515965    5.594663   -1.140963
     23          6           0        7.853204    5.715510   -0.693474
     24          8           0        9.070128    5.577025   -0.615766
     25          6           0        7.230858    7.107987   -0.720793
     26          7           0        8.185487    0.283857    0.024239
     27          6           0        9.004285    1.367906    0.060159
     28          6           0       10.499404    0.940125    0.390719
     29          6           0       10.325458   -0.519216    0.876476
     30          6           0        8.895921   -0.849494    0.402407
     31          6           0       11.517568    1.196811   -0.761161
     32          6           0       10.413689   -0.630096    2.381107
     33          6           0       11.362472   -1.712408    2.905305
     34          7           0        6.059390   -1.740467    0.146094
     35          6           0        7.054944   -2.625921    0.347461
     36          6           0        6.483775   -3.914544    0.641151
     37          6           0        5.137778   -3.727072    0.421240
     38          6           0        4.943336   -2.349066    0.234504
     39          6           0        7.229592   -5.198562    0.805381
     40          6           0        3.897631   -4.404662    0.421399
     41          8           0        3.663831   -5.616695    0.513332
     42          6           0        2.861416   -3.275630    0.147742
     43          6           0        2.213494   -3.681425   -1.117961
     44          8           0        2.763427   -3.800742   -2.231362
     45          8           0        0.953239   -4.077830   -0.862367
     46          6           0        0.125102   -4.321708   -2.003632
     47          6           0       -3.977401   -0.684261    0.691881
     48          6           0       -4.870051   -0.900468   -0.445218
     49          6           0       -6.185302   -0.951351   -0.555443
     50          6           0       -7.073208   -0.660777    0.688892
     51          6           0       -6.997970   -1.587781   -1.736725
     52          6           0       -7.640759   -0.619947   -2.791311
     53          6           0       -8.925665    0.119402   -2.352757
     54          6           0      -10.195745   -0.107120   -3.205130
     55          6           0      -10.641241    1.093202   -4.103492
     56          6           0      -11.387411   -0.667079   -2.431386
     57          6           0      -12.040574    0.291765   -1.422925
     58          6           0      -13.632779    0.282142   -1.374458
     59          6           0      -14.090172   -0.224226    0.113039
     60          6           0      -15.415837   -0.978245   -0.096636
     61          6           0      -14.278808    0.986624    1.125777
     62          6           0      -13.753203    0.664146    2.571256
     63          6           0      -12.280588    1.068017    2.756004
     64          6           0      -12.161818    2.541505    3.298587
     65          6           0      -10.911648    3.337514    2.837270
     66          6           0      -12.302222    2.612649    4.841679
     67          1           0        2.873439    3.421015   -0.932764
     68          1           0        9.401140    3.370084   -0.014712
     69          1           0        9.037733   -3.005361    0.629435
     70          1           0        1.175142   -0.967119   -0.926658
     71          1           0        1.328457    1.772922    0.299747
     72          1           0        0.743662    2.513788   -1.711207
     73          1           0        0.166031    0.924133   -2.221893
     74          1           0        1.785134    1.544796   -2.720648
     75          1           0        0.458443    0.173146    1.577248
     76          1           0        1.539156   -1.181397    1.905592
     77          1           0       -0.211313   -2.584577    1.653777
     78          1           0       -0.509071   -1.957735    0.047253
     79          1           0        4.677533    6.227347   -0.267864
     80          1           0        3.504921    5.243344   -1.345331
     81          1           0        4.750492    6.220950   -2.001486
     82          1           0        8.110757    7.719629   -0.525304
     83          1           0        6.570804    7.279406    0.129525
     84          1           0        6.668142    7.384464   -1.612557
     85          1           0       10.816635    1.604912    1.193965
     86          1           0       11.121702   -1.212086    0.605640
     87          1           0       11.899469    0.199049   -0.977984
     88          1           0       12.305955    1.843619   -0.377923
     89          1           0       11.121712    1.777713   -1.594132
     90          1           0        9.403455   -0.701490    2.784626
     91          1           0       10.811918    0.309710    2.762929
     92          1           0       10.682058   -2.415180    3.386266
     93          1           0       12.032221   -1.368181    3.693246
     94          1           0       11.868480   -2.330736    2.163093
     95          1           0        7.071969   -5.666429    1.776966
     96          1           0        8.295330   -4.984677    0.720838
     97          1           0        6.974016   -5.913945    0.023411
     98          1           0        2.103913   -3.341654    0.928100
     99          1           0        0.476352   -3.826653   -2.908686
    100          1           0       -0.825446   -3.882594   -1.702544
    101          1           0       -0.019828   -5.391374   -2.158745
    102          1           0       -3.901014    0.400104    0.774085
    103          1           0       -4.350064   -1.034406    1.654237
    104          1           0       -4.410985   -1.249688   -1.370314
    105          1           0       -7.578217   -1.591894    0.944098
    106          1           0       -7.848255    0.044714    0.388967
    107          1           0       -6.679086   -0.197161    1.593464
    108          1           0       -7.827516   -2.217389   -1.414791
    109          1           0       -6.276987   -2.142364   -2.338312
    110          1           0       -7.778553   -1.259489   -3.663084
    111          1           0       -6.935384    0.177583   -3.026662
    112          1           0       -8.718106    1.188584   -2.389500
    113          1           0       -9.253089   -0.098671   -1.336629
    114          1           0       -9.999550   -0.930523   -3.892228
    115          1           0      -11.670770    1.379231   -3.889356
    116          1           0      -10.448074    0.834510   -5.144521
    117          1           0      -10.185244    2.058205   -3.882834
    118          1           0      -10.944234   -1.448186   -1.813554
    119          1           0      -12.084119   -1.160836   -3.108093
    120          1           0      -11.736597    1.328829   -1.561932
    121          1           0      -11.800974    0.010024   -0.397840
    122          1           0      -14.072464   -0.350535   -2.144917
    123          1           0      -13.930066    1.324231   -1.493896
    124          1           0      -13.338414   -0.902680    0.513401
    125          1           0      -16.261249   -0.823636    0.574403
    126          1           0      -15.249175   -1.961270    0.343171
    127          1           0      -15.937403   -1.021510   -1.051939
    128          1           0      -15.332155    1.165643    1.337151
    129          1           0      -13.763349    1.874498    0.758885
    130          1           0      -13.844749   -0.392519    2.822116
    131          1           0      -14.498099    1.238579    3.120516
    132          1           0      -11.625174    0.955511    1.891628
    133          1           0      -11.902934    0.415839    3.543615
    134          1           0      -13.031176    3.023213    2.851039
    135          1           0      -11.083126    4.388874    3.069190
    136          1           0      -11.022273    3.325419    1.752967
    137          1           0       -9.890557    3.046520    3.082345
    138          1           0      -12.443428    1.655527    5.344060
    139          1           0      -13.233251    3.090907    5.146861
    140          1           0      -11.514216    3.141778    5.376563
 ---------------------------------------------------------------------

 SCF Done:  E(RwB97XD) =  -3007.84500250     A.U. after   19 cycles

 Excitation energies and oscillator strengths:

 Excited State   1:      Singlet-A      1.6768 eV  739.41 nm  f=0.4020  <S**2>=0.000
     245 -> 248       -0.17018
     246 -> 247        0.68503
     245 <- 248       -0.10897
 This state for optimization and/or second-order correction.
 Total Energy, E(TD-HF/TD-DFT) =  -3007.78338103
 Copying the excited state density for this state as the 1-particle RhoCI density.

 Excited State   2:      Singlet-A      2.2227 eV  557.80 nm  f=0.1124  <S**2>=0.000
     245 -> 247        0.63639
     246 -> 248        0.28653

 Excited State   3:      Singlet-A      3.5331 eV  350.93 nm  f=0.0397  <S**2>=0.000
     242 -> 247        0.15846
     242 -> 250       -0.10350
     243 -> 247       -0.13095
     244 -> 247        0.48562
     244 -> 249        0.26153
     244 -> 250       -0.24639
     246 -> 248        0.18037

 Excited State   4:      Singlet-A      3.5523 eV  349.02 nm  f=0.3348  <S**2>=0.000
     241 -> 247       -0.39424
     244 -> 247       -0.17381
     245 -> 247       -0.19019
     246 -> 248        0.48036

 Excited State   5:      Singlet-A      3.6405 eV  340.57 nm  f=0.2811  <S**2>=0.000
     241 -> 247       -0.38457
     242 -> 247        0.41846
     245 -> 247        0.18304
     246 -> 248       -0.34138

 The electronic state is 1-A.
 Alpha  occ. eigenvalues --  -46.94562 -19.30742 -19.30534 -19.26037 -19.24752
 Alpha  occ. eigenvalues --  -19.23765 -19.23083 -14.46740 -14.46478 -14.45284
 Alpha  occ. eigenvalues --  -14.43073 -10.44255 -10.42582 -10.39818 -10.37825
 Alpha  occ. eigenvalues --  -10.36194 -10.35485 -10.35468 -10.35363 -10.34971
 Alpha  occ. eigenvalues --  -10.34884 -10.34861 -10.34017 -10.33794 -10.32660
 Alpha  occ. eigenvalues --  -10.32634 -10.32288 -10.31995 -10.31930 -10.31589
 Alpha  occ. eigenvalues --  -10.31395 -10.31387 -10.31368 -10.31362 -10.31349
 Alpha  occ. eigenvalues --  -10.31343 -10.31281 -10.30949 -10.30892 -10.30834
 Alpha  occ. eigenvalues --  -10.30697 -10.30606 -10.30531 -10.30502 -10.30355
 Alpha  occ. eigenvalues --  -10.30156 -10.29804 -10.29755 -10.29636 -10.29625
 Alpha  occ. eigenvalues --  -10.29608 -10.29514 -10.29291 -10.29253 -10.29222
 Alpha  occ. eigenvalues --  -10.29009 -10.29006 -10.28927 -10.28816 -10.28794
 Alpha  occ. eigenvalues --  -10.28679 -10.28476 -10.28321 -10.27965 -10.27924
 Alpha  occ. eigenvalues --  -10.27422  -3.20653  -1.94262  -1.93756  -1.93663
 Alpha  occ. eigenvalues --   -1.19320  -1.17591  -1.12729  -1.10561  -1.10525
 Alpha  occ. eigenvalues --   -1.08619  -1.08259  -1.07056  -1.05263  -1.04331
 Alpha  occ. eigenvalues --   -0.95666  -0.92330  -0.91656  -0.91568  -0.91100
 Alpha  occ. eigenvalues --   -0.91025  -0.90531  -0.90473  -0.89206  -0.88725
 Alpha  occ. eigenvalues --   -0.88528  -0.87689  -0.86508  -0.85927  -0.85515
 Alpha  occ. eigenvalues --   -0.84505  -0.84238  -0.83562  -0.82870  -0.82510
 Alpha  occ. eigenvalues --   -0.81546  -0.80747  -0.80283  -0.79402  -0.78188
 Alpha  occ. eigenvalues --   -0.77916  -0.77413  -0.77369  -0.76771  -0.76259
 Alpha  occ. eigenvalues --   -0.75921  -0.74996  -0.73913  -0.72776  -0.71059
 Alpha  occ. eigenvalues --   -0.70835  -0.70651  -0.69701  -0.68609  -0.68262
 Alpha  occ. eigenvalues --   -0.68004  -0.67428  -0.66938  -0.66755  -0.66289
 Alpha  occ. eigenvalues --   -0.65929  -0.64611  -0.63955  -0.63376  -0.62442
 Alpha  occ. eigenvalues --   -0.62208  -0.62077  -0.61361  -0.61115  -0.60569
 Alpha  occ. eigenvalues --   -0.59964  -0.59236  -0.58877  -0.58021  -0.57793
 Alpha  occ. eigenvalues --   -0.57327  -0.57022  -0.56836  -0.56322  -0.56041
 Alpha  occ. eigenvalues --   -0.55788  -0.55404  -0.55358  -0.55115  -0.54938
 Alpha  occ. eigenvalues --   -0.54828  -0.54610  -0.54224  -0.53741  -0.53592
 Alpha  occ. eigenvalues --   -0.53525  -0.53342  -0.53227  -0.53213  -0.52649
 Alpha  occ. eigenvalues --   -0.52532  -0.52405  -0.52225  -0.51881  -0.51707
 Alpha  occ. eigenvalues --   -0.51587  -0.51262  -0.51135  -0.50878  -0.50848
 Alpha  occ. eigenvalues --   -0.50585  -0.50282  -0.50141  -0.49902  -0.49473
 Alpha  occ. eigenvalues --   -0.49349  -0.49198  -0.49034  -0.48882  -0.48773
 Alpha  occ. eigenvalues --   -0.48674  -0.48554  -0.48222  -0.47919  -0.47723
 Alpha  occ. eigenvalues --   -0.47689  -0.47552  -0.47158  -0.47066  -0.46942
 Alpha  occ. eigenvalues --   -0.46747  -0.46677  -0.46466  -0.46127  -0.45866
 Alpha  occ. eigenvalues --   -0.45794  -0.45625  -0.45441  -0.45390  -0.45281
 Alpha  occ. eigenvalues --   -0.45024  -0.44814  -0.44650  -0.44501  -0.44297
 Alpha  occ. eigenvalues --   -0.43744  -0.43702  -0.43402  -0.43105  -0.43006
 Alpha  occ. eigenvalues --   -0.42918  -0.42782  -0.42584  -0.42361  -0.41723
 Alpha  occ. eigenvalues --   -0.41585  -0.41229  -0.40885  -0.40540  -0.40367
 Alpha  occ. eigenvalues --   -0.40286  -0.39885  -0.39807  -0.39602  -0.39296
 Alpha  occ. eigenvalues --   -0.39224  -0.39028  -0.38692  -0.38531  -0.38190
 Alpha  occ. eigenvalues --   -0.38076  -0.38032  -0.37007  -0.36802  -0.36578
 Alpha  occ. eigenvalues --   -0.36047  -0.35678  -0.35325  -0.33899  -0.33547
 Alpha  occ. eigenvalues --   -0.32874  -0.32298  -0.32151  -0.32137  -0.26119
 Alpha  occ. eigenvalues --   -0.22898
 Alpha virt. eigenvalues --   -0.06970   0.00350   0.02253   0.04124   0.05781
 Alpha virt. eigenvalues --    0.06344   0.07632   0.07868   0.08252   0.09044
 Alpha virt. eigenvalues --    0.10519   0.11283   0.11372   0.11917   0.12591

 Mulliken charges:
               1
     1  Mg   0.983340
     2  C   -0.000606
     3  C   -0.105472
     4  C   -0.075409
     5  C   -0.059766
     6  N   -0.329308
     7  C   -0.029551
     8  C   -0.015968
     9  C   -0.131917
    10  C    0.083048
    11  C    0.008456
    12  C    0.018253
    13  C    0.014213
    14  C    0.231157
    15  O   -0.262125
    16  O   -0.396239
    17  N   -0.445254
    18  C    0.168055
    19  C   -0.156759
    20  C   -0.072393
    21  C    0.189406
    22  C    0.063395
    23  C    0.065628
    24  O   -0.232124
    25  C   -0.054090
    26  N   -0.386768
    27  C    0.030945
    28  C   -0.087174
    29  C   -0.091507
    30  C    0.112191
    31  C    0.036481
    32  C   -0.004427
    33  C   -0.060310
    34  N   -0.399486
    35  C    0.049316
    36  C   -0.177394
    37  C   -0.008588
    38  C    0.139723
    39  C    0.084571
    40  C    0.106200
    41  O   -0.224502
    42  C   -0.098081
    43  C    0.242041
    44  O   -0.276501
    45  O   -0.331356
    46  C    0.128331
    47  C    0.295365
    48  C   -0.128329
    49  C   -0.191892
    50  C   -0.008118
    51  C    0.012657
    52  C   -0.016263
    53  C    0.021916
    54  C   -0.187376
    55  C   -0.004311
    56  C    0.010123
    57  C   -0.071943
    58  C    0.004308
    59  C   -0.174992
    60  C   -0.008709
    61  C    0.012140
    62  C   -0.059637
    63  C    0.020944
    64  C   -0.207484
    65  C   -0.006223
    66  C   -0.003912
    67  H   -0.014565
    68  H    0.025404
    69  H   -0.016127
    70  H    0.023962
    71  H    0.050062
    72  H    0.034543
    73  H    0.057619
    74  H    0.053822
    75  H    0.038735
    76  H    0.045214
    77  H    0.080079
    78  H    0.043479
    79  H    0.058586
    80  H    0.046524
    81  H    0.045466
    82  H    0.054028
    83  H    0.054853
    84  H    0.064768
    85  H    0.038017
    86  H    0.020801
    87  H    0.041223
    88  H    0.033903
    89  H    0.051817
    90  H    0.040014
    91  H    0.022435
    92  H    0.031403
    93  H    0.045279
    94  H    0.037207
    95  H    0.051370
    96  H    0.013314
    97  H    0.066271
    98  H    0.052307
    99  H    0.063805
   100  H    0.044337
   101  H    0.063748
   102  H    0.041152
   103  H    0.059280
   104  H    0.014995
   105  H    0.043608
   106  H    0.037648
   107  H    0.035895
   108  H    0.036237
   109  H    0.024817
   110  H    0.031409
   111  H    0.024189
   112  H    0.014962
   113  H    0.013434
   114  H    0.013910
   115  H    0.024675
   116  H    0.041947
   117  H    0.016189
   118  H    0.006311
   119  H    0.027070
   120  H    0.019998
   121  H    0.027585
   122  H    0.027523
   123  H    0.024464
   124  H    0.030613
   125  H    0.003563
   126  H    0.011837
   127  H    0.040827
   128  H    0.023525
   129  H    0.019378
   130  H    0.022835
   131  H    0.025057
   132  H    0.015711
   133  H    0.013927
   134  H    0.020977
   135  H    0.027975
   136  H    0.012644
   137  H    0.044924
   138  H    0.015878
   139  H    0.017430
   140  H    0.031958
 Sum of Mulliken charges =  -0.00000

 Dipole moment (field-independent basis, Debye):
    X=             -3.1208    Y=              4.9495    Z=              0.0350  Tot=              5.8513
 Quadrupole moment (field-independent basis, Debye-Ang):
   XX=           -367.0356   YY=           -416.2584   ZZ=           -409.4913
   XY=              7.7605   XZ=             23.1201   YZ=             -4.4338

 Normal termination of Gaussian 16 at Wed May  4 06:15:55 2022.
