 Gaussian 16, Revision A.03,
 Gaussian 16:  ES64L-G16RevA.03 25-Dec-2016

 --------------------
 #p ZINDO=(nstates=5)
 --------------------

 ------------------------------
 step_1401_chromophore_25 ZINDO
 ------------------------------
 Symbolic Z-matrix:
 Charge =  0 Multiplicity = 1

                         Standard orientation:
 ---------------------------------------------------------------------
 Center     Atomic      Atomic             Coordinates (Angstroms)
 Number     Number       Type             X           Y           Z
 ---------------------------------------------------------------------
      1         12           0        6.103137    0.284617   -0.005817
      2          6           0        3.625571   -2.012609   -0.017395
      3          6           0        3.649276    2.679021   -0.735567
      4          6           0        8.542670    2.702024   -0.106360
      5          6           0        8.390578   -2.156607    0.394436
      6          7           0        3.874513    0.307157   -0.130274
      7          6           0        3.073721   -0.761878   -0.105167
      8          6           0        1.628986   -0.395111   -0.117497
      9          6           0        1.709162    1.152368   -0.511374
     10          6           0        3.180534    1.396907   -0.513927
     11          6           0        1.047663    1.488455   -1.919055
     12          6           0        0.824458   -0.777855    1.187898
     13          6           0       -0.397366   -1.669387    1.092297
     14          6           0       -1.685269   -0.994029    1.516049
     15          8           0       -1.910447   -0.572369    2.653441
     16          8           0       -2.586675   -1.021028    0.421817
     17          7           0        6.099643    2.340942   -0.342339
     18          6           0        5.007559    3.146954   -0.614578
     19          6           0        5.464707    4.531321   -0.878549
     20          6           0        6.874409    4.594896   -0.650922
     21          6           0        7.224958    3.122101   -0.374684
     22          6           0        4.515965    5.594663   -1.140963
     23          6           0        7.853204    5.715510   -0.693474
     24          8           0        9.070128    5.577025   -0.615766
     25          6           0        7.230858    7.107987   -0.720793
     26          7           0        8.185487    0.283857    0.024239
     27          6           0        9.004285    1.367906    0.060159
     28          6           0       10.499404    0.940125    0.390719
     29          6           0       10.325458   -0.519216    0.876476
     30          6           0        8.895921   -0.849494    0.402407
     31          6           0       11.517568    1.196811   -0.761161
     32          6           0       10.413689   -0.630096    2.381107
     33          6           0       11.362472   -1.712408    2.905305
     34          7           0        6.059390   -1.740467    0.146094
     35          6           0        7.054944   -2.625921    0.347461
     36          6           0        6.483775   -3.914544    0.641151
     37          6           0        5.137778   -3.727072    0.421240
     38          6           0        4.943336   -2.349066    0.234504
     39          6           0        7.229592   -5.198562    0.805381
     40          6           0        3.897631   -4.404662    0.421399
     41          8           0        3.663831   -5.616695    0.513332
     42          6           0        2.861416   -3.275630    0.147742
     43          6           0        2.213494   -3.681425   -1.117961
     44          8           0        2.763427   -3.800742   -2.231362
     45          8           0        0.953239   -4.077830   -0.862367
     46          6           0        0.125102   -4.321708   -2.003632
     47          6           0       -3.977401   -0.684261    0.691881
     48          6           0       -4.870051   -0.900468   -0.445218
     49          6           0       -6.185302   -0.951351   -0.555443
     50          6           0       -7.073208   -0.660777    0.688892
     51          6           0       -6.997970   -1.587781   -1.736725
     52          6           0       -7.640759   -0.619947   -2.791311
     53          6           0       -8.925665    0.119402   -2.352757
     54          6           0      -10.195745   -0.107120   -3.205130
     55          6           0      -10.641241    1.093202   -4.103492
     56          6           0      -11.387411   -0.667079   -2.431386
     57          6           0      -12.040574    0.291765   -1.422925
     58          6           0      -13.632779    0.282142   -1.374458
     59          6           0      -14.090172   -0.224226    0.113039
     60          6           0      -15.415837   -0.978245   -0.096636
     61          6           0      -14.278808    0.986624    1.125777
     62          6           0      -13.753203    0.664146    2.571256
     63          6           0      -12.280588    1.068017    2.756004
     64          6           0      -12.161818    2.541505    3.298587
     65          6           0      -10.911648    3.337514    2.837270
     66          6           0      -12.302222    2.612649    4.841679
     67          1           0        2.873439    3.421015   -0.932764
     68          1           0        9.401140    3.370084   -0.014712
     69          1           0        9.037733   -3.005361    0.629435
     70          1           0        1.175142   -0.967119   -0.926658
     71          1           0        1.328457    1.772922    0.299747
     72          1           0        0.743662    2.513788   -1.711207
     73          1           0        0.166031    0.924133   -2.221893
     74          1           0        1.785134    1.544796   -2.720648
     75          1           0        0.458443    0.173146    1.577248
     76          1           0        1.539156   -1.181397    1.905592
     77          1           0       -0.211313   -2.584577    1.653777
     78          1           0       -0.509071   -1.957735    0.047253
     79          1           0        4.677533    6.227347   -0.267864
     80          1           0        3.504921    5.243344   -1.345331
     81          1           0        4.750492    6.220950   -2.001486
     82          1           0        8.110757    7.719629   -0.525304
     83          1           0        6.570804    7.279406    0.129525
     84          1           0        6.668142    7.384464   -1.612557
     85          1           0       10.816635    1.604912    1.193965
     86          1           0       11.121702   -1.212086    0.605640
     87          1           0       11.899469    0.199049   -0.977984
     88          1           0       12.305955    1.843619   -0.377923
     89          1           0       11.121712    1.777713   -1.594132
     90          1           0        9.403455   -0.701490    2.784626
     91          1           0       10.811918    0.309710    2.762929
     92          1           0       10.682058   -2.415180    3.386266
     93          1           0       12.032221   -1.368181    3.693246
     94          1           0       11.868480   -2.330736    2.163093
     95          1           0        7.071969   -5.666429    1.776966
     96          1           0        8.295330   -4.984677    0.720838
     97          1           0        6.974016   -5.913945    0.023411
     98          1           0        2.103913   -3.341654    0.928100
     99          1           0        0.476352   -3.826653   -2.908686
    100          1           0       -0.825446   -3.882594   -1.702544
    101          1           0       -0.019828   -5.391374   -2.158745
    102          1           0       -3.901014    0.400104    0.774085
    103          1           0       -4.350064   -1.034406    1.654237
    104          1           0       -4.410985   -1.249688   -1.370314
    105          1           0       -7.578217   -1.591894    0.944098
    106          1           0       -7.848255    0.044714    0.388967
    107          1           0       -6.679086   -0.197161    1.593464
    108          1           0       -7.827516   -2.217389   -1.414791
    109          1           0       -6.276987   -2.142364   -2.338312
    110          1           0       -7.778553   -1.259489   -3.663084
    111          1           0       -6.935384    0.177583   -3.026662
    112          1           0       -8.718106    1.188584   -2.389500
    113          1           0       -9.253089   -0.098671   -1.336629
    114          1           0       -9.999550   -0.930523   -3.892228
    115          1           0      -11.670770    1.379231   -3.889356
    116          1           0      -10.448074    0.834510   -5.144521
    117          1           0      -10.185244    2.058205   -3.882834
    118          1           0      -10.944234   -1.448186   -1.813554
    119          1           0      -12.084119   -1.160836   -3.108093
    120          1           0      -11.736597    1.328829   -1.561932
    121          1           0      -11.800974    0.010024   -0.397840
    122          1           0      -14.072464   -0.350535   -2.144917
    123          1           0      -13.930066    1.324231   -1.493896
    124          1           0      -13.338414   -0.902680    0.513401
    125          1           0      -16.261249   -0.823636    0.574403
    126          1           0      -15.249175   -1.961270    0.343171
    127          1           0      -15.937403   -1.021510   -1.051939
    128          1           0      -15.332155    1.165643    1.337151
    129          1           0      -13.763349    1.874498    0.758885
    130          1           0      -13.844749   -0.392519    2.822116
    131          1           0      -14.498099    1.238579    3.120516
    132          1           0      -11.625174    0.955511    1.891628
    133          1           0      -11.902934    0.415839    3.543615
    134          1           0      -13.031176    3.023213    2.851039
    135          1           0      -11.083126    4.388874    3.069190
    136          1           0      -11.022273    3.325419    1.752967
    137          1           0       -9.890557    3.046520    3.082345
    138          1           0      -12.443428    1.655527    5.344060
    139          1           0      -13.233251    3.090907    5.146861
    140          1           0      -11.514216    3.141778    5.376563
 ---------------------------------------------------------------------

 SCF Done:  E(RZINDO/S) =  -474.492550129     A.U. after   19 cycles

 Excitation energies and oscillator strengths:

 Excited State   1:      Singlet-A      1.2566 eV  986.68 nm  f=0.6110  <S**2>=0.000
     175 ->178         0.17069
     176 ->177         0.66793
 This state for optimization and/or second-order correction.
 Total Energy, E(CIS/TDA) =  -474.446371456
 Copying the excited state density for this state as the 1-particle RhoCI density.

 Excited State   2:      Singlet-A      1.9544 eV  634.37 nm  f=0.0374  <S**2>=0.000
     175 ->177         0.53562
     176 ->178        -0.42955

 Excited State   3:      Singlet-A      2.9187 eV  424.79 nm  f=0.0261  <S**2>=0.000
     170 ->177         0.11865
     170 ->181         0.12884
     171 ->177         0.20453
     171 ->179         0.20771
     171 ->181         0.23675
     171 ->186         0.10447
     176 ->179         0.42397
     176 ->181         0.13564

 Excited State   4:      Singlet-A      2.9687 eV  417.63 nm  f=0.3821  <S**2>=0.000
     168 ->177        -0.11043
     168 ->179         0.11255
     169 ->181         0.10563
     170 ->179        -0.10675
     171 ->177        -0.15611
     171 ->179        -0.13359
     171 ->181        -0.14050
     175 ->177         0.24587
     176 ->178         0.36930
     176 ->179         0.31595

 Excited State   5:      Singlet-A      3.0049 eV  412.60 nm  f=0.0104  <S**2>=0.000
     167 ->177        -0.12963
     167 ->179         0.15894
     167 ->181        -0.11298
     168 ->177        -0.26836
     168 ->178         0.14770
     168 ->179         0.32088
     168 ->181        -0.19344
     168 ->186         0.17091
     176 ->179        -0.26313

 The electronic state is 1-A.
 Alpha  occ. eigenvalues --   -1.90269  -1.82351  -1.79674  -1.75307  -1.71798
 Alpha  occ. eigenvalues --   -1.70546  -1.64025  -1.60320  -1.60107  -1.59169
 Alpha  occ. eigenvalues --   -1.53792  -1.51218  -1.48782  -1.48408  -1.47943
 Alpha  occ. eigenvalues --   -1.44525  -1.43402  -1.41806  -1.39659  -1.37383
 Alpha  occ. eigenvalues --   -1.37078  -1.33953  -1.32903  -1.32077  -1.29164
 Alpha  occ. eigenvalues --   -1.26782  -1.25075  -1.22964  -1.21007  -1.19248
 Alpha  occ. eigenvalues --   -1.18430  -1.16362  -1.16325  -1.15465  -1.13820
 Alpha  occ. eigenvalues --   -1.12995  -1.11373  -1.11159  -1.05251  -1.03925
 Alpha  occ. eigenvalues --   -1.03310  -1.01801  -0.99092  -0.98655  -0.97696
 Alpha  occ. eigenvalues --   -0.95896  -0.95124  -0.93982  -0.92807  -0.92563
 Alpha  occ. eigenvalues --   -0.91401  -0.90884  -0.88559  -0.87033  -0.86259
 Alpha  occ. eigenvalues --   -0.85534  -0.84781  -0.83928  -0.82747  -0.80620
 Alpha  occ. eigenvalues --   -0.80235  -0.79472  -0.77960  -0.77562  -0.76734
 Alpha  occ. eigenvalues --   -0.75817  -0.75104  -0.74677  -0.74031  -0.73653
 Alpha  occ. eigenvalues --   -0.73317  -0.72494  -0.71422  -0.70925  -0.70856
 Alpha  occ. eigenvalues --   -0.70074  -0.69454  -0.68751  -0.68690  -0.67487
 Alpha  occ. eigenvalues --   -0.67436  -0.67223  -0.66785  -0.66492  -0.66418
 Alpha  occ. eigenvalues --   -0.66172  -0.65777  -0.65166  -0.64476  -0.63961
 Alpha  occ. eigenvalues --   -0.63353  -0.62725  -0.62570  -0.62091  -0.61937
 Alpha  occ. eigenvalues --   -0.61518  -0.61237  -0.60851  -0.60730  -0.60343
 Alpha  occ. eigenvalues --   -0.59887  -0.59197  -0.59060  -0.58610  -0.58252
 Alpha  occ. eigenvalues --   -0.57666  -0.57068  -0.56945  -0.56858  -0.56660
 Alpha  occ. eigenvalues --   -0.56170  -0.55632  -0.55335  -0.55291  -0.54935
 Alpha  occ. eigenvalues --   -0.54740  -0.54400  -0.54336  -0.53411  -0.53122
 Alpha  occ. eigenvalues --   -0.52710  -0.52363  -0.51688  -0.51425  -0.51000
 Alpha  occ. eigenvalues --   -0.50949  -0.50782  -0.50600  -0.49904  -0.49858
 Alpha  occ. eigenvalues --   -0.49703  -0.49573  -0.49395  -0.48957  -0.48711
 Alpha  occ. eigenvalues --   -0.48507  -0.48111  -0.48030  -0.47649  -0.47427
 Alpha  occ. eigenvalues --   -0.47130  -0.47001  -0.46914  -0.46786  -0.46297
 Alpha  occ. eigenvalues --   -0.46183  -0.46043  -0.45991  -0.45412  -0.45216
 Alpha  occ. eigenvalues --   -0.45158  -0.44831  -0.44710  -0.44509  -0.44200
 Alpha  occ. eigenvalues --   -0.44186  -0.43247  -0.42988  -0.42865  -0.42487
 Alpha  occ. eigenvalues --   -0.42434  -0.41324  -0.40500  -0.39844  -0.38847
 Alpha  occ. eigenvalues --   -0.37770  -0.36951  -0.36297  -0.34813  -0.33962
 Alpha  occ. eigenvalues --   -0.33760  -0.32832  -0.32534  -0.32307  -0.26903
 Alpha  occ. eigenvalues --   -0.21663
 Alpha virt. eigenvalues --   -0.08471  -0.01943  -0.00877   0.00732   0.00927
 Alpha virt. eigenvalues --    0.02986   0.03139   0.03192   0.04188   0.04953
 Alpha virt. eigenvalues --    0.06384   0.06614   0.06886   0.07657   0.07963

 Mulliken charges:
               1
     1  Mg   0.425913
     2  C   -0.044400
     3  C   -0.099807
     4  C   -0.069432
     5  C   -0.061214
     6  N   -0.287380
     7  C    0.119637
     8  C   -0.004382
     9  C    0.000894
    10  C    0.161462
    11  C   -0.054020
    12  C   -0.021560
    13  C    0.011269
    14  C    0.470693
    15  O   -0.508941
    16  O   -0.280647
    17  N   -0.315981
    18  C    0.117595
    19  C    0.037516
    20  C   -0.061960
    21  C    0.146331
    22  C   -0.040524
    23  C    0.338936
    24  O   -0.513603
    25  C   -0.039616
    26  N   -0.268531
    27  C    0.146272
    28  C    0.002848
    29  C    0.005474
    30  C    0.098060
    31  C   -0.053925
    32  C   -0.025358
    33  C   -0.061339
    34  N   -0.288820
    35  C    0.066531
    36  C    0.023234
    37  C   -0.056766
    38  C    0.121054
    39  C   -0.037322
    40  C    0.329048
    41  O   -0.540218
    42  C    0.053324
    43  C    0.490676
    44  O   -0.545106
    45  O   -0.263158
    46  C    0.077509
    47  C    0.117242
    48  C   -0.059969
    49  C   -0.021545
    50  C   -0.058223
    51  C   -0.020602
    52  C   -0.030315
    53  C   -0.031676
    54  C   -0.012127
    55  C   -0.062395
    56  C   -0.026622
    57  C   -0.045263
    58  C   -0.050844
    59  C   -0.012309
    60  C   -0.075180
    61  C   -0.042425
    62  C   -0.040802
    63  C   -0.031872
    64  C   -0.007344
    65  C   -0.059907
    66  C   -0.060440
    67  H    0.027648
    68  H    0.051743
    69  H    0.020881
    70  H    0.028744
    71  H    0.040286
    72  H    0.012028
    73  H    0.032233
    74  H    0.031583
    75  H    0.025446
    76  H    0.028940
    77  H    0.051991
    78  H    0.031781
    79  H    0.041009
    80  H    0.032003
    81  H    0.027351
    82  H    0.034991
    83  H    0.032657
    84  H    0.044951
    85  H    0.029928
    86  H    0.038070
    87  H    0.028486
    88  H    0.018606
    89  H    0.033833
    90  H    0.025877
    91  H    0.011322
    92  H    0.009737
    93  H    0.024166
    94  H    0.027221
    95  H    0.032883
    96  H    0.012925
    97  H    0.039060
    98  H    0.048823
    99  H    0.051576
   100  H    0.020415
   101  H    0.046743
   102  H    0.039743
   103  H    0.061430
   104  H    0.020365
   105  H    0.025323
   106  H    0.017038
   107  H    0.025710
   108  H    0.033272
   109  H    0.016842
   110  H    0.023259
   111  H    0.018571
   112  H    0.015414
   113  H    0.023392
   114  H    0.008752
   115  H    0.019659
   116  H    0.022190
   117  H    0.015694
   118  H    0.005185
   119  H    0.023176
   120  H    0.020047
   121  H    0.020307
   122  H    0.028891
   123  H    0.021228
   124  H    0.033099
   125  H    0.011364
   126  H    0.009056
   127  H    0.030051
   128  H    0.021403
   129  H    0.025122
   130  H    0.019739
   131  H    0.023844
   132  H    0.026368
   133  H    0.010434
   134  H    0.020815
   135  H    0.014624
   136  H    0.004154
   137  H    0.034316
   138  H    0.015464
   139  H    0.010018
   140  H    0.021055
 Sum of Mulliken charges =  -0.00000

 Dipole moment (field-independent basis, Debye):
    X=             -4.2696    Y=              8.7385    Z=              0.8079  Tot=              9.7593
 N-N= 4.248900241286D+03 E-N= 0.000000000000D+00  KE=-9.171899585879D+03
 Leave Link  601 at Wed May  4 06:28:09 2022, MaxMem=  6710886400 cpu:               0.8 elap:               0.1
 (Enter /sw/apps/gaussian-16.0/g16/l9999.exe)
 1\1\GINC-BP1-COMPUTE067\SP\RZINDO CIS\STO-3G\C55H74Mg1N4O6\OF15641\04-
 May-2022\0\\#p ZINDO=(nstates=5)\\step_1401_chromophore_25 ZINDO\\0,1\
 Mg,0,-2.852,34.936,26.406\C,0,-3.862,33.434,29.259\C,0,-1.199,37.274,2
 8.428\C,0,-1.831,36.604,23.581\C,0,-4.731,32.804,24.596\N,0,-2.428,35.
 151,28.587\C,0,-2.955,34.413,29.568\C,0,-2.394,34.755,30.906\C,0,-1.64
 2,36.128,30.581\C,0,-1.806,36.23,29.102\C,0,-2.256,37.387,31.336\C,0,-
 1.557,33.608,31.6\C,0,-1.955,33.102,32.972\C,0,-0.914,33.35,34.044\O,0

 Normal termination of Gaussian 16 at Wed May  4 06:28:09 2022.
