 Gaussian 16, Revision A.03,
 Gaussian 16:  ES64L-G16RevA.03 25-Dec-2016

 ------------------------------
 #p blyp/Def2SVP td=(nstates=5)
 ------------------------------

 --------------------------------------------------
 step_101_chromophore_15 TDDFT with blyp functional
 --------------------------------------------------
 Symbolic Z-matrix:
 Charge =  0 Multiplicity = 1

                         Standard orientation:
 ---------------------------------------------------------------------
 Center     Atomic      Atomic             Coordinates (Angstroms)
 Number     Number       Type             X           Y           Z
 ---------------------------------------------------------------------
      1         12           0       -5.100583    0.826470   -0.020149
      2          6           0       -4.052964   -2.374677    0.687952
      3          6           0       -1.775536    1.670160   -0.290381
      4          6           0       -6.085137    4.158819   -0.410036
      5          6           0       -8.328574   -0.034108    0.582733
      6          7           0       -3.206248   -0.298225    0.020031
      7          6           0       -3.058521   -1.622098    0.236725
      8          6           0       -1.648689   -2.110168   -0.032128
      9          6           0       -0.857696   -0.689259   -0.035765
     10          6           0       -2.003544    0.293745   -0.084033
     11          6           0        0.124203   -0.371146    1.066491
     12          6           0       -1.592235   -2.791803   -1.425547
     13          6           0       -0.253121   -3.372374   -1.910160
     14          6           0        1.004515   -3.555971   -0.947353
     15          8           0        0.946963   -3.763847    0.265672
     16          8           0        2.121402   -3.425576   -1.753617
     17          7           0       -4.119352    2.566348   -0.332920
     18          6           0       -2.715896    2.706741   -0.421963
     19          6           0       -2.403884    4.071106   -0.532227
     20          6           0       -3.624271    4.806971   -0.533512
     21          6           0       -4.737678    3.815967   -0.447577
     22          6           0       -1.039142    4.655272   -0.875725
     23          6           0       -3.743541    6.348504   -0.603726
     24          8           0       -4.820195    6.889755   -0.932237
     25          6           0       -2.607547    7.177851   -0.210325
     26          7           0       -6.868838    1.923180    0.005348
     27          6           0       -7.096996    3.237287   -0.198214
     28          6           0       -8.569874    3.637988    0.129715
     29          6           0       -9.310423    2.243489    0.180964
     30          6           0       -8.129257    1.328229    0.295356
     31          6           0       -8.545736    4.514727    1.408433
     32          6           0      -10.170947    1.883245   -1.061343
     33          6           0      -11.621549    1.439781   -0.677682
     34          7           0       -6.027766   -0.904226    0.560121
     35          6           0       -7.411561   -1.069421    0.729359
     36          6           0       -7.526654   -2.530228    1.025386
     37          6           0       -6.259779   -3.040795    1.164996
     38          6           0       -5.377667   -2.025936    0.753732
     39          6           0       -8.872799   -3.270862    1.152742
     40          6           0       -5.525384   -4.244978    1.427640
     41          8           0       -5.883916   -5.385099    1.690313
     42          6           0       -4.071674   -3.828896    1.246269
     43          6           0       -3.332958   -4.901535    0.548477
     44          8           0       -3.607841   -5.428960   -0.503545
     45          8           0       -2.253971   -5.234279    1.296648
     46          6           0       -1.499809   -6.356172    0.748349
     47          6           0        3.351072   -3.594022   -0.969029
     48          6           0        4.455842   -2.929871   -1.765656
     49          6           0        5.810501   -3.000586   -1.612598
     50          6           0        6.557726   -3.533655   -0.406889
     51          6           0        6.712014   -2.580551   -2.807670
     52          6           0        7.221574   -1.153048   -2.699032
     53          6           0        8.613985   -0.924381   -3.288921
     54          6           0        8.744672    0.596280   -3.579014
     55          6           0        8.510309    0.830009   -5.104593
     56          6           0       10.192134    1.091317   -3.103634
     57          6           0       10.207009    1.852728   -1.736386
     58          6           0       11.079692    1.217018   -0.748901
     59          6           0       11.710571    2.288544    0.190593
     60          6           0       13.005051    2.933641   -0.488428
     61          6           0       12.028931    1.664414    1.562727
     62          6           0       11.102275    2.046941    2.676262
     63          6           0       10.890780    0.947689    3.695126
     64          6           0       10.765596    1.391247    5.159800
     65          6           0       11.062074    0.218207    6.112194
     66          6           0        9.352329    2.063581    5.461583
     67          1           0       -0.725589    1.956375   -0.367463
     68          1           0       -6.313454    5.225825   -0.362781
     69          1           0       -9.341290   -0.437688    0.656485
     70          1           0       -1.369850   -2.809726    0.755311
     71          1           0       -0.127070   -0.706162   -0.844846
     72          1           0       -0.074142   -1.055776    1.891044
     73          1           0        0.080079    0.668259    1.391020
     74          1           0        1.155162   -0.569779    0.773634
     75          1           0       -1.947361   -1.966237   -2.042198
     76          1           0       -2.338019   -3.552424   -1.657348
     77          1           0       -0.078294   -2.738498   -2.779433
     78          1           0       -0.478884   -4.389419   -2.230723
     79          1           0       -1.147017    5.156230   -1.837915
     80          1           0       -0.253071    3.900691   -0.903169
     81          1           0       -0.739783    5.246470   -0.010380
     82          1           0       -2.983982    8.163592    0.064920
     83          1           0       -1.822496    7.211675   -0.966335
     84          1           0       -2.229525    6.700370    0.693193
     85          1           0       -9.055524    4.125056   -0.716232
     86          1           0       -9.768588    2.082332    1.157133
     87          1           0       -9.030352    5.385385    0.965587
     88          1           0       -7.557381    4.675815    1.839032
     89          1           0       -9.191930    4.137281    2.201479
     90          1           0       -9.711495    1.136984   -1.710769
     91          1           0      -10.327589    2.780028   -1.661324
     92          1           0      -12.302932    2.115754   -1.194597
     93          1           0      -11.778030    1.520285    0.398012
     94          1           0      -11.768220    0.414639   -1.018931
     95          1           0       -8.797548   -3.952960    1.999323
     96          1           0       -9.040010   -3.821503    0.226167
     97          1           0       -9.708954   -2.603212    1.359183
     98          1           0       -3.671066   -3.685247    2.249926
     99          1           0       -2.158876   -7.193218    0.516043
    100          1           0       -0.705887   -6.628466    1.443015
    101          1           0       -1.129857   -5.982599   -0.206985
    102          1           0        3.421184   -4.679760   -0.908723
    103          1           0        3.407294   -3.115538    0.008740
    104          1           0        4.160040   -2.574247   -2.752334
    105          1           0        6.991527   -4.419521   -0.870795
    106          1           0        5.987102   -3.853639    0.464696
    107          1           0        7.380910   -2.869812   -0.145001
    108          1           0        6.142894   -2.593977   -3.736758
    109          1           0        7.571858   -3.246161   -2.884791
    110          1           0        7.393915   -1.055671   -1.626888
    111          1           0        6.466253   -0.463544   -3.075050
    112          1           0        8.676693   -1.482197   -4.222610
    113          1           0        9.303955   -1.222984   -2.498909
    114          1           0        8.009176    1.232946   -3.085992
    115          1           0        8.000182    1.786448   -5.221145
    116          1           0        7.720915    0.141215   -5.405999
    117          1           0        9.391950    0.810033   -5.744529
    118          1           0       10.528876    1.805994   -3.854863
    119          1           0       10.907868    0.269460   -3.083279
    120          1           0        9.242897    1.929141   -1.232914
    121          1           0       10.549948    2.856681   -1.990390
    122          1           0       11.923881    0.625663   -1.104111
    123          1           0       10.516851    0.525355   -0.121766
    124          1           0       10.973555    3.077072    0.335843
    125          1           0       13.969557    2.591322   -0.113405
    126          1           0       12.943209    3.978488   -0.186204
    127          1           0       13.166973    2.829264   -1.561579
    128          1           0       13.026343    1.964761    1.883718
    129          1           0       12.080950    0.576409    1.544494
    130          1           0       10.146678    2.369310    2.264367
    131          1           0       11.680279    2.857852    3.119786
    132          1           0       11.732754    0.256517    3.649458
    133          1           0        9.919663    0.515766    3.455070
    134          1           0       11.499376    2.145165    5.445592
    135          1           0       12.007362    0.498281    6.578144
    136          1           0       11.143291   -0.704363    5.537332
    137          1           0       10.252793    0.043436    6.820202
    138          1           0        9.109764    1.745780    6.474910
    139          1           0        8.563476    1.694592    4.805783
    140          1           0        9.358640    3.151468    5.527740
 ---------------------------------------------------------------------

 SCF Done:  E(RB-LYP) =  -3007.36481437     A.U. after   20 cycles

 Excitation energies and oscillator strengths:

 Excited State   1:      Singlet-A      1.8066 eV  686.28 nm  f=0.2780  <S**2>=0.000
     243 -> 247       -0.10363
     245 -> 248        0.16034
     246 -> 247        0.67992
     246 <- 247       -0.14689
 This state for optimization and/or second-order correction.
 Total Energy, E(TD-HF/TD-DFT) =  -3007.29842271
 Copying the excited state density for this state as the 1-particle RhoCI density.

 Excited State   2:      Singlet-A      1.9745 eV  627.91 nm  f=0.0466  <S**2>=0.000
     243 -> 247        0.50082
     244 -> 247        0.19559
     245 -> 247       -0.41796
     246 -> 247        0.13898
     246 -> 248        0.11627

 Excited State   3:      Singlet-A      1.9872 eV  623.90 nm  f=0.0021  <S**2>=0.000
     243 -> 247       -0.19618
     244 -> 247        0.67173

 Excited State   4:      Singlet-A      2.1498 eV  576.72 nm  f=0.0507  <S**2>=0.000
     243 -> 247        0.43606
     245 -> 247        0.47468
     246 -> 248       -0.23338
     246 -> 249        0.10722

 Excited State   5:      Singlet-A      2.4304 eV  510.13 nm  f=0.0000  <S**2>=0.000
     241 -> 247        0.70474

 The electronic state is 1-A.
 Alpha  occ. eigenvalues --  -46.25005 -18.83713 -18.81617 -18.78755 -18.76177
 Alpha  occ. eigenvalues --  -18.75238 -18.75112 -14.03033 -14.02756 -14.00574
 Alpha  occ. eigenvalues --  -14.00083 -10.05748 -10.03041  -9.99617  -9.98751
 Alpha  occ. eigenvalues --   -9.98715  -9.96861  -9.96250  -9.96246  -9.95894
 Alpha  occ. eigenvalues --   -9.95649  -9.95223  -9.95192  -9.95182  -9.93858
 Alpha  occ. eigenvalues --   -9.93841  -9.93749  -9.93491  -9.93460  -9.93429
 Alpha  occ. eigenvalues --   -9.93381  -9.93279  -9.93165  -9.93073  -9.92989
 Alpha  occ. eigenvalues --   -9.92931  -9.92920  -9.92719  -9.92635  -9.92615
 Alpha  occ. eigenvalues --   -9.92383  -9.92297  -9.92268  -9.92254  -9.92246
 Alpha  occ. eigenvalues --   -9.92126  -9.92005  -9.91989  -9.91972  -9.91940
 Alpha  occ. eigenvalues --   -9.91904  -9.91601  -9.91516  -9.91469  -9.91429
 Alpha  occ. eigenvalues --   -9.91192  -9.91188  -9.91105  -9.91022  -9.90974
 Alpha  occ. eigenvalues --   -9.90931  -9.90712  -9.90635  -9.90534  -9.90410
 Alpha  occ. eigenvalues --   -9.89930  -2.89931  -1.70370  -1.69813  -1.69636
 Alpha  occ. eigenvalues --   -0.98586  -0.98284  -0.91335  -0.90815  -0.90016
 Alpha  occ. eigenvalues --   -0.89708  -0.86927  -0.85667  -0.85051  -0.83259
 Alpha  occ. eigenvalues --   -0.75805  -0.74008  -0.73472  -0.72636  -0.72323
 Alpha  occ. eigenvalues --   -0.72061  -0.71529  -0.71130  -0.70836  -0.70153
 Alpha  occ. eigenvalues --   -0.69229  -0.69113  -0.68487  -0.67606  -0.67559
 Alpha  occ. eigenvalues --   -0.66844  -0.66178  -0.65745  -0.65211  -0.64796
 Alpha  occ. eigenvalues --   -0.64404  -0.62549  -0.62343  -0.61504  -0.60844
 Alpha  occ. eigenvalues --   -0.60381  -0.59950  -0.59705  -0.59541  -0.59182
 Alpha  occ. eigenvalues --   -0.58273  -0.57348  -0.56620  -0.55132  -0.54254
 Alpha  occ. eigenvalues --   -0.53757  -0.53560  -0.52188  -0.51653  -0.51313
 Alpha  occ. eigenvalues --   -0.51098  -0.50549  -0.50480  -0.50264  -0.50116
 Alpha  occ. eigenvalues --   -0.49935  -0.49421  -0.48837  -0.48146  -0.46620
 Alpha  occ. eigenvalues --   -0.46252  -0.46156  -0.45558  -0.44880  -0.44455
 Alpha  occ. eigenvalues --   -0.44029  -0.43844  -0.43416  -0.42806  -0.42436
 Alpha  occ. eigenvalues --   -0.42136  -0.41939  -0.41791  -0.41700  -0.41495
 Alpha  occ. eigenvalues --   -0.41152  -0.40867  -0.40726  -0.40612  -0.40446
 Alpha  occ. eigenvalues --   -0.40131  -0.39808  -0.39587  -0.39472  -0.39432
 Alpha  occ. eigenvalues --   -0.39087  -0.38967  -0.38577  -0.38405  -0.38265
 Alpha  occ. eigenvalues --   -0.38208  -0.37962  -0.37840  -0.37784  -0.37393
 Alpha  occ. eigenvalues --   -0.36909  -0.36830  -0.36644  -0.36574  -0.36271
 Alpha  occ. eigenvalues --   -0.36160  -0.36105  -0.35967  -0.35637  -0.35605
 Alpha  occ. eigenvalues --   -0.35293  -0.35070  -0.35032  -0.34906  -0.34786
 Alpha  occ. eigenvalues --   -0.34745  -0.34449  -0.34437  -0.34253  -0.34058
 Alpha  occ. eigenvalues --   -0.33843  -0.33807  -0.33665  -0.33478  -0.32878
 Alpha  occ. eigenvalues --   -0.32748  -0.32642  -0.32578  -0.32371  -0.32253
 Alpha  occ. eigenvalues --   -0.32052  -0.31881  -0.31723  -0.31279  -0.31216
 Alpha  occ. eigenvalues --   -0.31135  -0.30713  -0.30583  -0.30537  -0.30257
 Alpha  occ. eigenvalues --   -0.30029  -0.29914  -0.29865  -0.29790  -0.29634
 Alpha  occ. eigenvalues --   -0.29409  -0.29255  -0.29137  -0.29004  -0.28809
 Alpha  occ. eigenvalues --   -0.28407  -0.28234  -0.28172  -0.28168  -0.27755
 Alpha  occ. eigenvalues --   -0.27381  -0.27206  -0.27144  -0.27041  -0.26866
 Alpha  occ. eigenvalues --   -0.26797  -0.26633  -0.26273  -0.25642  -0.25297
 Alpha  occ. eigenvalues --   -0.25022  -0.24758  -0.24622  -0.23802  -0.23566
 Alpha  occ. eigenvalues --   -0.23187  -0.22877  -0.22209  -0.21432  -0.20468
 Alpha  occ. eigenvalues --   -0.20057  -0.19994  -0.18456  -0.18296  -0.17209
 Alpha  occ. eigenvalues --   -0.15405
 Alpha virt. eigenvalues --   -0.11125  -0.06524  -0.05562  -0.04561  -0.03870
 Alpha virt. eigenvalues --   -0.02312  -0.02020  -0.01640  -0.00335   0.00488
 Alpha virt. eigenvalues --    0.01393   0.01540   0.01841   0.02689   0.02897

 Mulliken charges:
               1
     1  Mg   0.699174
     2  C    0.077709
     3  C   -0.101057
     4  C   -0.077867
     5  C   -0.062873
     6  N   -0.180809
     7  C   -0.179222
     8  C    0.060533
     9  C   -0.018115
    10  C    0.063728
    11  C    0.122904
    12  C    0.061288
    13  C    0.118679
    14  C    0.110292
    15  O   -0.193945
    16  O   -0.268959
    17  N   -0.346997
    18  C    0.193249
    19  C   -0.171146
    20  C    0.001719
    21  C    0.138068
    22  C    0.192579
    23  C   -0.081410
    24  O   -0.194127
    25  C    0.163800
    26  N   -0.244748
    27  C    0.038367
    28  C    0.011222
    29  C    0.035786
    30  C    0.032022
    31  C    0.133879
    32  C    0.097167
    33  C    0.053804
    34  N   -0.268878
    35  C    0.092223
    36  C   -0.189226
    37  C    0.095282
    38  C    0.048247
    39  C    0.161827
    40  C   -0.041534
    41  O   -0.124358
    42  C    0.089254
    43  C    0.086360
    44  O   -0.174153
    45  O   -0.257933
    46  C    0.243262
    47  C    0.305150
    48  C   -0.107354
    49  C   -0.160830
    50  C    0.152845
    51  C    0.135357
    52  C    0.027226
    53  C    0.136004
    54  C   -0.092496
    55  C    0.109232
    56  C    0.109531
    57  C    0.098261
    58  C    0.083758
    59  C   -0.077971
    60  C    0.085514
    61  C    0.103592
    62  C    0.094774
    63  C    0.108404
    64  C   -0.124666
    65  C    0.118289
    66  C    0.093503
    67  H   -0.068339
    68  H   -0.036486
    69  H   -0.071230
    70  H   -0.013565
    71  H   -0.028870
    72  H   -0.008686
    73  H   -0.010320
    74  H   -0.019433
    75  H   -0.033010
    76  H   -0.000041
    77  H    0.005024
    78  H    0.013715
    79  H    0.026306
    80  H   -0.027193
    81  H   -0.008266
    82  H   -0.002701
    83  H    0.016865
    84  H    0.000989
    85  H   -0.029732
    86  H   -0.022701
    87  H    0.005039
    88  H    0.018514
    89  H   -0.013200
    90  H   -0.002224
    91  H   -0.020871
    92  H   -0.005700
    93  H   -0.005335
    94  H    0.001617
    95  H    0.007952
    96  H    0.014274
    97  H   -0.016839
    98  H    0.001986
    99  H    0.014642
   100  H    0.018814
   101  H   -0.009746
   102  H    0.005775
   103  H    0.023375
   104  H   -0.032227
   105  H   -0.003592
   106  H   -0.003902
   107  H   -0.000428
   108  H   -0.029603
   109  H   -0.037020
   110  H   -0.035737
   111  H   -0.019147
   112  H   -0.026016
   113  H   -0.027731
   114  H   -0.031531
   115  H   -0.029414
   116  H   -0.029517
   117  H    0.000278
   118  H   -0.049135
   119  H   -0.027812
   120  H   -0.026538
   121  H   -0.027280
   122  H   -0.034252
   123  H   -0.043461
   124  H   -0.034481
   125  H   -0.020687
   126  H   -0.014659
   127  H   -0.014736
   128  H   -0.049567
   129  H   -0.042432
   130  H   -0.030392
   131  H   -0.037783
   132  H   -0.028372
   133  H   -0.031940
   134  H   -0.040782
   135  H   -0.006228
   136  H   -0.022738
   137  H   -0.020064
   138  H   -0.030407
   139  H   -0.014657
   140  H   -0.009598
 Sum of Mulliken charges =  -0.00000

 Dipole moment (field-independent basis, Debye):
    X=              4.8806    Y=              2.3642    Z=             -0.6718  Tot=              5.4646
 Quadrupole moment (field-independent basis, Debye-Ang):
   XX=           -370.2036   YY=           -439.4549   ZZ=           -407.0078
   XY=            -24.7160   XZ=             -1.0198   YZ=             13.3632

 Normal termination of Gaussian 16 at Tue May  3 21:30:49 2022.
