 Gaussian 16, Revision A.03,
 Gaussian 16:  ES64L-G16RevA.03 25-Dec-2016

 -----------------------------------
 #p cam-b3lyp/Def2SVP td=(nstates=5)
 -----------------------------------

 -------------------------------------------------------
 step_101_chromophore_15 TDDFT with cam-b3lyp functional
 -------------------------------------------------------
 Symbolic Z-matrix:
 Charge =  0 Multiplicity = 1

                         Standard orientation:
 ---------------------------------------------------------------------
 Center     Atomic      Atomic             Coordinates (Angstroms)
 Number     Number       Type             X           Y           Z
 ---------------------------------------------------------------------
      1         12           0       -5.100583    0.826470   -0.020149
      2          6           0       -4.052964   -2.374677    0.687952
      3          6           0       -1.775536    1.670160   -0.290381
      4          6           0       -6.085137    4.158819   -0.410036
      5          6           0       -8.328574   -0.034108    0.582733
      6          7           0       -3.206248   -0.298225    0.020031
      7          6           0       -3.058521   -1.622098    0.236725
      8          6           0       -1.648689   -2.110168   -0.032128
      9          6           0       -0.857696   -0.689259   -0.035765
     10          6           0       -2.003544    0.293745   -0.084033
     11          6           0        0.124203   -0.371146    1.066491
     12          6           0       -1.592235   -2.791803   -1.425547
     13          6           0       -0.253121   -3.372374   -1.910160
     14          6           0        1.004515   -3.555971   -0.947353
     15          8           0        0.946963   -3.763847    0.265672
     16          8           0        2.121402   -3.425576   -1.753617
     17          7           0       -4.119352    2.566348   -0.332920
     18          6           0       -2.715896    2.706741   -0.421963
     19          6           0       -2.403884    4.071106   -0.532227
     20          6           0       -3.624271    4.806971   -0.533512
     21          6           0       -4.737678    3.815967   -0.447577
     22          6           0       -1.039142    4.655272   -0.875725
     23          6           0       -3.743541    6.348504   -0.603726
     24          8           0       -4.820195    6.889755   -0.932237
     25          6           0       -2.607547    7.177851   -0.210325
     26          7           0       -6.868838    1.923180    0.005348
     27          6           0       -7.096996    3.237287   -0.198214
     28          6           0       -8.569874    3.637988    0.129715
     29          6           0       -9.310423    2.243489    0.180964
     30          6           0       -8.129257    1.328229    0.295356
     31          6           0       -8.545736    4.514727    1.408433
     32          6           0      -10.170947    1.883245   -1.061343
     33          6           0      -11.621549    1.439781   -0.677682
     34          7           0       -6.027766   -0.904226    0.560121
     35          6           0       -7.411561   -1.069421    0.729359
     36          6           0       -7.526654   -2.530228    1.025386
     37          6           0       -6.259779   -3.040795    1.164996
     38          6           0       -5.377667   -2.025936    0.753732
     39          6           0       -8.872799   -3.270862    1.152742
     40          6           0       -5.525384   -4.244978    1.427640
     41          8           0       -5.883916   -5.385099    1.690313
     42          6           0       -4.071674   -3.828896    1.246269
     43          6           0       -3.332958   -4.901535    0.548477
     44          8           0       -3.607841   -5.428960   -0.503545
     45          8           0       -2.253971   -5.234279    1.296648
     46          6           0       -1.499809   -6.356172    0.748349
     47          6           0        3.351072   -3.594022   -0.969029
     48          6           0        4.455842   -2.929871   -1.765656
     49          6           0        5.810501   -3.000586   -1.612598
     50          6           0        6.557726   -3.533655   -0.406889
     51          6           0        6.712014   -2.580551   -2.807670
     52          6           0        7.221574   -1.153048   -2.699032
     53          6           0        8.613985   -0.924381   -3.288921
     54          6           0        8.744672    0.596280   -3.579014
     55          6           0        8.510309    0.830009   -5.104593
     56          6           0       10.192134    1.091317   -3.103634
     57          6           0       10.207009    1.852728   -1.736386
     58          6           0       11.079692    1.217018   -0.748901
     59          6           0       11.710571    2.288544    0.190593
     60          6           0       13.005051    2.933641   -0.488428
     61          6           0       12.028931    1.664414    1.562727
     62          6           0       11.102275    2.046941    2.676262
     63          6           0       10.890780    0.947689    3.695126
     64          6           0       10.765596    1.391247    5.159800
     65          6           0       11.062074    0.218207    6.112194
     66          6           0        9.352329    2.063581    5.461583
     67          1           0       -0.725589    1.956375   -0.367463
     68          1           0       -6.313454    5.225825   -0.362781
     69          1           0       -9.341290   -0.437688    0.656485
     70          1           0       -1.369850   -2.809726    0.755311
     71          1           0       -0.127070   -0.706162   -0.844846
     72          1           0       -0.074142   -1.055776    1.891044
     73          1           0        0.080079    0.668259    1.391020
     74          1           0        1.155162   -0.569779    0.773634
     75          1           0       -1.947361   -1.966237   -2.042198
     76          1           0       -2.338019   -3.552424   -1.657348
     77          1           0       -0.078294   -2.738498   -2.779433
     78          1           0       -0.478884   -4.389419   -2.230723
     79          1           0       -1.147017    5.156230   -1.837915
     80          1           0       -0.253071    3.900691   -0.903169
     81          1           0       -0.739783    5.246470   -0.010380
     82          1           0       -2.983982    8.163592    0.064920
     83          1           0       -1.822496    7.211675   -0.966335
     84          1           0       -2.229525    6.700370    0.693193
     85          1           0       -9.055524    4.125056   -0.716232
     86          1           0       -9.768588    2.082332    1.157133
     87          1           0       -9.030352    5.385385    0.965587
     88          1           0       -7.557381    4.675815    1.839032
     89          1           0       -9.191930    4.137281    2.201479
     90          1           0       -9.711495    1.136984   -1.710769
     91          1           0      -10.327589    2.780028   -1.661324
     92          1           0      -12.302932    2.115754   -1.194597
     93          1           0      -11.778030    1.520285    0.398012
     94          1           0      -11.768220    0.414639   -1.018931
     95          1           0       -8.797548   -3.952960    1.999323
     96          1           0       -9.040010   -3.821503    0.226167
     97          1           0       -9.708954   -2.603212    1.359183
     98          1           0       -3.671066   -3.685247    2.249926
     99          1           0       -2.158876   -7.193218    0.516043
    100          1           0       -0.705887   -6.628466    1.443015
    101          1           0       -1.129857   -5.982599   -0.206985
    102          1           0        3.421184   -4.679760   -0.908723
    103          1           0        3.407294   -3.115538    0.008740
    104          1           0        4.160040   -2.574247   -2.752334
    105          1           0        6.991527   -4.419521   -0.870795
    106          1           0        5.987102   -3.853639    0.464696
    107          1           0        7.380910   -2.869812   -0.145001
    108          1           0        6.142894   -2.593977   -3.736758
    109          1           0        7.571858   -3.246161   -2.884791
    110          1           0        7.393915   -1.055671   -1.626888
    111          1           0        6.466253   -0.463544   -3.075050
    112          1           0        8.676693   -1.482197   -4.222610
    113          1           0        9.303955   -1.222984   -2.498909
    114          1           0        8.009176    1.232946   -3.085992
    115          1           0        8.000182    1.786448   -5.221145
    116          1           0        7.720915    0.141215   -5.405999
    117          1           0        9.391950    0.810033   -5.744529
    118          1           0       10.528876    1.805994   -3.854863
    119          1           0       10.907868    0.269460   -3.083279
    120          1           0        9.242897    1.929141   -1.232914
    121          1           0       10.549948    2.856681   -1.990390
    122          1           0       11.923881    0.625663   -1.104111
    123          1           0       10.516851    0.525355   -0.121766
    124          1           0       10.973555    3.077072    0.335843
    125          1           0       13.969557    2.591322   -0.113405
    126          1           0       12.943209    3.978488   -0.186204
    127          1           0       13.166973    2.829264   -1.561579
    128          1           0       13.026343    1.964761    1.883718
    129          1           0       12.080950    0.576409    1.544494
    130          1           0       10.146678    2.369310    2.264367
    131          1           0       11.680279    2.857852    3.119786
    132          1           0       11.732754    0.256517    3.649458
    133          1           0        9.919663    0.515766    3.455070
    134          1           0       11.499376    2.145165    5.445592
    135          1           0       12.007362    0.498281    6.578144
    136          1           0       11.143291   -0.704363    5.537332
    137          1           0       10.252793    0.043436    6.820202
    138          1           0        9.109764    1.745780    6.474910
    139          1           0        8.563476    1.694592    4.805783
    140          1           0        9.358640    3.151468    5.527740
 ---------------------------------------------------------------------

 SCF Done:  E(RCAM-B3LYP) =  -3007.16869626     A.U. after   18 cycles

 Excitation energies and oscillator strengths:

 Excited State   1:      Singlet-A      1.7147 eV  723.07 nm  f=0.3710  <S**2>=0.000
     245 -> 248        0.17044
     246 -> 247        0.68803
     245 <- 248        0.10608
 This state for optimization and/or second-order correction.
 Total Energy, E(TD-HF/TD-DFT) =  -3007.10568273
 Copying the excited state density for this state as the 1-particle RhoCI density.

 Excited State   2:      Singlet-A      2.3319 eV  531.69 nm  f=0.0884  <S**2>=0.000
     245 -> 247        0.62272
     246 -> 248       -0.32015

 Excited State   3:      Singlet-A      3.3538 eV  369.68 nm  f=0.0042  <S**2>=0.000
     242 -> 247       -0.35764
     244 -> 247        0.58136

 Excited State   4:      Singlet-A      3.5336 eV  350.87 nm  f=0.2893  <S**2>=0.000
     241 -> 247       -0.13588
     241 -> 249        0.11280
     242 -> 247        0.33153
     244 -> 247        0.28197
     245 -> 247        0.19424
     246 -> 248        0.44022

 Excited State   5:      Singlet-A      3.6188 eV  342.61 nm  f=0.0203  <S**2>=0.000
     239 -> 247        0.23216
     239 -> 249        0.12962
     239 -> 250       -0.10575
     240 -> 247        0.46947
     240 -> 248        0.13443
     240 -> 249        0.27544
     240 -> 250       -0.18949
     241 -> 247       -0.10055

 The electronic state is 1-A.
 Alpha  occ. eigenvalues --  -46.86467 -19.26589 -19.24456 -19.21732 -19.19180
 Alpha  occ. eigenvalues --  -19.18743 -19.18176 -14.41939 -14.41706 -14.39154
 Alpha  occ. eigenvalues --  -14.38407 -10.41169 -10.38340 -10.35119 -10.33855
 Alpha  occ. eigenvalues --  -10.32793 -10.30960 -10.30781 -10.30525 -10.30464
 Alpha  occ. eigenvalues --  -10.30392 -10.29868 -10.29423 -10.29175 -10.27969
 Alpha  occ. eigenvalues --  -10.27848 -10.27837 -10.27793 -10.27628 -10.27542
 Alpha  occ. eigenvalues --  -10.27424 -10.27315 -10.27269 -10.27249 -10.27198
 Alpha  occ. eigenvalues --  -10.27015 -10.26983 -10.26820 -10.26617 -10.26565
 Alpha  occ. eigenvalues --  -10.26529 -10.26451 -10.26133 -10.26094 -10.26013
 Alpha  occ. eigenvalues --  -10.25987 -10.25928 -10.25926 -10.25684 -10.25619
 Alpha  occ. eigenvalues --  -10.25569 -10.25555 -10.25334 -10.25147 -10.25094
 Alpha  occ. eigenvalues --  -10.24919 -10.24813 -10.24750 -10.24674 -10.24600
 Alpha  occ. eigenvalues --  -10.24577 -10.24316 -10.24266 -10.24147 -10.24071
 Alpha  occ. eigenvalues --  -10.23760  -3.15312  -1.90222  -1.89771  -1.89621
 Alpha  occ. eigenvalues --   -1.16997  -1.16788  -1.09198  -1.09081  -1.08646
 Alpha  occ. eigenvalues --   -1.07593  -1.04723  -1.03202  -1.02664  -1.00950
 Alpha  occ. eigenvalues --   -0.92854  -0.90906  -0.90322  -0.89370  -0.89051
 Alpha  occ. eigenvalues --   -0.88780  -0.88235  -0.87737  -0.87500  -0.86923
 Alpha  occ. eigenvalues --   -0.85686  -0.85461  -0.84831  -0.83785  -0.83676
 Alpha  occ. eigenvalues --   -0.82953  -0.82534  -0.81662  -0.81006  -0.80757
 Alpha  occ. eigenvalues --   -0.80244  -0.78152  -0.77958  -0.77307  -0.76214
 Alpha  occ. eigenvalues --   -0.75741  -0.75314  -0.75017  -0.74842  -0.74453
 Alpha  occ. eigenvalues --   -0.73325  -0.72345  -0.71530  -0.69919  -0.68751
 Alpha  occ. eigenvalues --   -0.68382  -0.68134  -0.66692  -0.65997  -0.65406
 Alpha  occ. eigenvalues --   -0.65267  -0.64700  -0.64621  -0.64282  -0.64201
 Alpha  occ. eigenvalues --   -0.63851  -0.63400  -0.62767  -0.61866  -0.60221
 Alpha  occ. eigenvalues --   -0.59881  -0.59699  -0.58933  -0.58375  -0.58004
 Alpha  occ. eigenvalues --   -0.57387  -0.57246  -0.56633  -0.55996  -0.55620
 Alpha  occ. eigenvalues --   -0.55347  -0.55132  -0.54968  -0.54823  -0.54319
 Alpha  occ. eigenvalues --   -0.53899  -0.53602  -0.53566  -0.53343  -0.53279
 Alpha  occ. eigenvalues --   -0.52863  -0.52466  -0.52316  -0.52096  -0.51826
 Alpha  occ. eigenvalues --   -0.51639  -0.51404  -0.51109  -0.50975  -0.50911
 Alpha  occ. eigenvalues --   -0.50646  -0.50525  -0.50119  -0.49908  -0.49705
 Alpha  occ. eigenvalues --   -0.49494  -0.49134  -0.49065  -0.48908  -0.48844
 Alpha  occ. eigenvalues --   -0.48433  -0.48313  -0.48183  -0.48051  -0.47568
 Alpha  occ. eigenvalues --   -0.47511  -0.47466  -0.47077  -0.47009  -0.46821
 Alpha  occ. eigenvalues --   -0.46556  -0.46455  -0.46195  -0.46016  -0.45955
 Alpha  occ. eigenvalues --   -0.45896  -0.45631  -0.45471  -0.45264  -0.44597
 Alpha  occ. eigenvalues --   -0.44480  -0.44395  -0.44283  -0.44089  -0.43752
 Alpha  occ. eigenvalues --   -0.43699  -0.43376  -0.43276  -0.42962  -0.42862
 Alpha  occ. eigenvalues --   -0.42539  -0.42378  -0.42278  -0.41792  -0.41595
 Alpha  occ. eigenvalues --   -0.41513  -0.41247  -0.41225  -0.41032  -0.41021
 Alpha  occ. eigenvalues --   -0.40893  -0.40713  -0.40247  -0.40072  -0.40014
 Alpha  occ. eigenvalues --   -0.39390  -0.39338  -0.39114  -0.39053  -0.38655
 Alpha  occ. eigenvalues --   -0.38488  -0.38275  -0.38137  -0.37959  -0.37887
 Alpha  occ. eigenvalues --   -0.37624  -0.37564  -0.36992  -0.36621  -0.36310
 Alpha  occ. eigenvalues --   -0.35881  -0.35853  -0.35283  -0.34882  -0.34330
 Alpha  occ. eigenvalues --   -0.33924  -0.33849  -0.33087  -0.31235  -0.31043
 Alpha  occ. eigenvalues --   -0.30606  -0.29716  -0.29659  -0.29333  -0.24165
 Alpha  occ. eigenvalues --   -0.20671
 Alpha virt. eigenvalues --   -0.08166  -0.01303   0.00862   0.02426   0.03832
 Alpha virt. eigenvalues --    0.04180   0.05204   0.05661   0.05934   0.06733
 Alpha virt. eigenvalues --    0.07611   0.08103   0.08734   0.09111   0.09276

 Mulliken charges:
               1
     1  Mg   0.837115
     2  C    0.043206
     3  C   -0.110885
     4  C   -0.094351
     5  C   -0.069584
     6  N   -0.251851
     7  C   -0.132943
     8  C    0.003944
     9  C   -0.067356
    10  C    0.077049
    11  C    0.065864
    12  C    0.016339
    13  C    0.053437
    14  C    0.182552
    15  O   -0.234155
    16  O   -0.332500
    17  N   -0.437776
    18  C    0.204041
    19  C   -0.176953
    20  C   -0.063032
    21  C    0.165182
    22  C    0.129675
    23  C    0.003046
    24  O   -0.232541
    25  C    0.072513
    26  N   -0.317308
    27  C    0.055430
    28  C   -0.036370
    29  C   -0.022641
    30  C    0.048285
    31  C    0.072266
    32  C    0.041002
    33  C   -0.006694
    34  N   -0.359673
    35  C    0.092064
    36  C   -0.186759
    37  C    0.014206
    38  C    0.089869
    39  C    0.115233
    40  C    0.060307
    41  O   -0.164567
    42  C    0.014528
    43  C    0.168818
    44  O   -0.212080
    45  O   -0.320173
    46  C    0.202944
    47  C    0.274175
    48  C   -0.129110
    49  C   -0.184622
    50  C    0.091596
    51  C    0.075222
    52  C   -0.017825
    53  C    0.079958
    54  C   -0.147812
    55  C    0.051653
    56  C    0.054922
    57  C    0.040975
    58  C    0.033992
    59  C   -0.134968
    60  C    0.027197
    61  C    0.050202
    62  C    0.041690
    63  C    0.047521
    64  C   -0.179583
    65  C    0.056654
    66  C    0.036112
    67  H   -0.033316
    68  H    0.005022
    69  H   -0.037069
    70  H    0.022876
    71  H    0.005929
    72  H    0.018200
    73  H    0.015109
    74  H    0.005080
    75  H   -0.002332
    76  H    0.032159
    77  H    0.037768
    78  H    0.043812
    79  H    0.052323
    80  H    0.003443
    81  H    0.019922
    82  H    0.034012
    83  H    0.046127
    84  H    0.029593
    85  H    0.005991
    86  H    0.012552
    87  H    0.028118
    88  H    0.043303
    89  H    0.012713
    90  H    0.027564
    91  H    0.006731
    92  H    0.017663
    93  H    0.016737
    94  H    0.023814
    95  H    0.033073
    96  H    0.039296
    97  H    0.006248
    98  H    0.047763
    99  H    0.039702
   100  H    0.043586
   101  H    0.008666
   102  H    0.033820
   103  H    0.049708
   104  H    0.001299
   105  H    0.020335
   106  H    0.021090
   107  H    0.022399
   108  H    0.000634
   109  H   -0.005323
   110  H   -0.010529
   111  H    0.006840
   112  H    0.002755
   113  H   -0.000628
   114  H    0.000443
   115  H   -0.004010
   116  H   -0.006281
   117  H    0.023640
   118  H   -0.017950
   119  H    0.000167
   120  H    0.000938
   121  H    0.001511
   122  H   -0.006214
   123  H   -0.015632
   124  H   -0.002582
   125  H    0.003682
   126  H    0.009124
   127  H    0.009026
   128  H   -0.018647
   129  H   -0.013298
   130  H   -0.003734
   131  H   -0.008737
   132  H    0.000589
   133  H   -0.004463
   134  H   -0.008612
   135  H    0.017257
   136  H    0.002336
   137  H    0.004613
   138  H   -0.006317
   139  H    0.007635
   140  H    0.014256
 Sum of Mulliken charges =  -0.00000

 Dipole moment (field-independent basis, Debye):
    X=              5.4143    Y=              3.2203    Z=             -0.7403  Tot=              6.3429
 Quadrupole moment (field-independent basis, Debye-Ang):
   XX=           -371.9776   YY=           -435.6539   ZZ=           -407.1693
   XY=            -27.3152   XZ=             -0.8057   YZ=             13.5157

 Normal termination of Gaussian 16 at Tue May  3 20:28:25 2022.
