 Gaussian 16, Revision A.03,
 Gaussian 16:  ES64L-G16RevA.03 25-Dec-2016

 ---------------------------------
 #p PBE1PBE/Def2SVP td=(nstates=5)
 ---------------------------------

 -----------------------------------------------------
 step_101_chromophore_15 TDDFT with PBE1PBE functional
 -----------------------------------------------------
 Symbolic Z-matrix:
 Charge =  0 Multiplicity = 1

                         Standard orientation:
 ---------------------------------------------------------------------
 Center     Atomic      Atomic             Coordinates (Angstroms)
 Number     Number       Type             X           Y           Z
 ---------------------------------------------------------------------
      1         12           0       -5.100583    0.826470   -0.020149
      2          6           0       -4.052964   -2.374677    0.687952
      3          6           0       -1.775536    1.670160   -0.290381
      4          6           0       -6.085137    4.158819   -0.410036
      5          6           0       -8.328574   -0.034108    0.582733
      6          7           0       -3.206248   -0.298225    0.020031
      7          6           0       -3.058521   -1.622098    0.236725
      8          6           0       -1.648689   -2.110168   -0.032128
      9          6           0       -0.857696   -0.689259   -0.035765
     10          6           0       -2.003544    0.293745   -0.084033
     11          6           0        0.124203   -0.371146    1.066491
     12          6           0       -1.592235   -2.791803   -1.425547
     13          6           0       -0.253121   -3.372374   -1.910160
     14          6           0        1.004515   -3.555971   -0.947353
     15          8           0        0.946963   -3.763847    0.265672
     16          8           0        2.121402   -3.425576   -1.753617
     17          7           0       -4.119352    2.566348   -0.332920
     18          6           0       -2.715896    2.706741   -0.421963
     19          6           0       -2.403884    4.071106   -0.532227
     20          6           0       -3.624271    4.806971   -0.533512
     21          6           0       -4.737678    3.815967   -0.447577
     22          6           0       -1.039142    4.655272   -0.875725
     23          6           0       -3.743541    6.348504   -0.603726
     24          8           0       -4.820195    6.889755   -0.932237
     25          6           0       -2.607547    7.177851   -0.210325
     26          7           0       -6.868838    1.923180    0.005348
     27          6           0       -7.096996    3.237287   -0.198214
     28          6           0       -8.569874    3.637988    0.129715
     29          6           0       -9.310423    2.243489    0.180964
     30          6           0       -8.129257    1.328229    0.295356
     31          6           0       -8.545736    4.514727    1.408433
     32          6           0      -10.170947    1.883245   -1.061343
     33          6           0      -11.621549    1.439781   -0.677682
     34          7           0       -6.027766   -0.904226    0.560121
     35          6           0       -7.411561   -1.069421    0.729359
     36          6           0       -7.526654   -2.530228    1.025386
     37          6           0       -6.259779   -3.040795    1.164996
     38          6           0       -5.377667   -2.025936    0.753732
     39          6           0       -8.872799   -3.270862    1.152742
     40          6           0       -5.525384   -4.244978    1.427640
     41          8           0       -5.883916   -5.385099    1.690313
     42          6           0       -4.071674   -3.828896    1.246269
     43          6           0       -3.332958   -4.901535    0.548477
     44          8           0       -3.607841   -5.428960   -0.503545
     45          8           0       -2.253971   -5.234279    1.296648
     46          6           0       -1.499809   -6.356172    0.748349
     47          6           0        3.351072   -3.594022   -0.969029
     48          6           0        4.455842   -2.929871   -1.765656
     49          6           0        5.810501   -3.000586   -1.612598
     50          6           0        6.557726   -3.533655   -0.406889
     51          6           0        6.712014   -2.580551   -2.807670
     52          6           0        7.221574   -1.153048   -2.699032
     53          6           0        8.613985   -0.924381   -3.288921
     54          6           0        8.744672    0.596280   -3.579014
     55          6           0        8.510309    0.830009   -5.104593
     56          6           0       10.192134    1.091317   -3.103634
     57          6           0       10.207009    1.852728   -1.736386
     58          6           0       11.079692    1.217018   -0.748901
     59          6           0       11.710571    2.288544    0.190593
     60          6           0       13.005051    2.933641   -0.488428
     61          6           0       12.028931    1.664414    1.562727
     62          6           0       11.102275    2.046941    2.676262
     63          6           0       10.890780    0.947689    3.695126
     64          6           0       10.765596    1.391247    5.159800
     65          6           0       11.062074    0.218207    6.112194
     66          6           0        9.352329    2.063581    5.461583
     67          1           0       -0.725589    1.956375   -0.367463
     68          1           0       -6.313454    5.225825   -0.362781
     69          1           0       -9.341290   -0.437688    0.656485
     70          1           0       -1.369850   -2.809726    0.755311
     71          1           0       -0.127070   -0.706162   -0.844846
     72          1           0       -0.074142   -1.055776    1.891044
     73          1           0        0.080079    0.668259    1.391020
     74          1           0        1.155162   -0.569779    0.773634
     75          1           0       -1.947361   -1.966237   -2.042198
     76          1           0       -2.338019   -3.552424   -1.657348
     77          1           0       -0.078294   -2.738498   -2.779433
     78          1           0       -0.478884   -4.389419   -2.230723
     79          1           0       -1.147017    5.156230   -1.837915
     80          1           0       -0.253071    3.900691   -0.903169
     81          1           0       -0.739783    5.246470   -0.010380
     82          1           0       -2.983982    8.163592    0.064920
     83          1           0       -1.822496    7.211675   -0.966335
     84          1           0       -2.229525    6.700370    0.693193
     85          1           0       -9.055524    4.125056   -0.716232
     86          1           0       -9.768588    2.082332    1.157133
     87          1           0       -9.030352    5.385385    0.965587
     88          1           0       -7.557381    4.675815    1.839032
     89          1           0       -9.191930    4.137281    2.201479
     90          1           0       -9.711495    1.136984   -1.710769
     91          1           0      -10.327589    2.780028   -1.661324
     92          1           0      -12.302932    2.115754   -1.194597
     93          1           0      -11.778030    1.520285    0.398012
     94          1           0      -11.768220    0.414639   -1.018931
     95          1           0       -8.797548   -3.952960    1.999323
     96          1           0       -9.040010   -3.821503    0.226167
     97          1           0       -9.708954   -2.603212    1.359183
     98          1           0       -3.671066   -3.685247    2.249926
     99          1           0       -2.158876   -7.193218    0.516043
    100          1           0       -0.705887   -6.628466    1.443015
    101          1           0       -1.129857   -5.982599   -0.206985
    102          1           0        3.421184   -4.679760   -0.908723
    103          1           0        3.407294   -3.115538    0.008740
    104          1           0        4.160040   -2.574247   -2.752334
    105          1           0        6.991527   -4.419521   -0.870795
    106          1           0        5.987102   -3.853639    0.464696
    107          1           0        7.380910   -2.869812   -0.145001
    108          1           0        6.142894   -2.593977   -3.736758
    109          1           0        7.571858   -3.246161   -2.884791
    110          1           0        7.393915   -1.055671   -1.626888
    111          1           0        6.466253   -0.463544   -3.075050
    112          1           0        8.676693   -1.482197   -4.222610
    113          1           0        9.303955   -1.222984   -2.498909
    114          1           0        8.009176    1.232946   -3.085992
    115          1           0        8.000182    1.786448   -5.221145
    116          1           0        7.720915    0.141215   -5.405999
    117          1           0        9.391950    0.810033   -5.744529
    118          1           0       10.528876    1.805994   -3.854863
    119          1           0       10.907868    0.269460   -3.083279
    120          1           0        9.242897    1.929141   -1.232914
    121          1           0       10.549948    2.856681   -1.990390
    122          1           0       11.923881    0.625663   -1.104111
    123          1           0       10.516851    0.525355   -0.121766
    124          1           0       10.973555    3.077072    0.335843
    125          1           0       13.969557    2.591322   -0.113405
    126          1           0       12.943209    3.978488   -0.186204
    127          1           0       13.166973    2.829264   -1.561579
    128          1           0       13.026343    1.964761    1.883718
    129          1           0       12.080950    0.576409    1.544494
    130          1           0       10.146678    2.369310    2.264367
    131          1           0       11.680279    2.857852    3.119786
    132          1           0       11.732754    0.256517    3.649458
    133          1           0        9.919663    0.515766    3.455070
    134          1           0       11.499376    2.145165    5.445592
    135          1           0       12.007362    0.498281    6.578144
    136          1           0       11.143291   -0.704363    5.537332
    137          1           0       10.252793    0.043436    6.820202
    138          1           0        9.109764    1.745780    6.474910
    139          1           0        8.563476    1.694592    4.805783
    140          1           0        9.358640    3.151468    5.527740
 ---------------------------------------------------------------------

 SCF Done:  E(RPBE1PBE) =  -3005.35566095     A.U. after   15 cycles

 Excitation energies and oscillator strengths:

 Excited State   1:      Singlet-A      1.8618 eV  665.95 nm  f=0.3605  <S**2>=0.000
     245 -> 248        0.16107
     246 -> 247        0.69525
     246 <- 247       -0.10850
 This state for optimization and/or second-order correction.
 Total Energy, E(TD-HF/TD-DFT) =  -3005.28724210
 Copying the excited state density for this state as the 1-particle RhoCI density.

 Excited State   2:      Singlet-A      2.3298 eV  532.16 nm  f=0.0921  <S**2>=0.000
     245 -> 247        0.63625
     246 -> 248       -0.28810

 Excited State   3:      Singlet-A      3.0037 eV  412.77 nm  f=0.0036  <S**2>=0.000
     241 -> 247        0.10131
     244 -> 247        0.68499

 Excited State   4:      Singlet-A      3.0958 eV  400.49 nm  f=0.0003  <S**2>=0.000
     240 -> 247        0.26947
     241 -> 249       -0.11488
     242 -> 247        0.60361
     246 -> 248       -0.14089

 Excited State   5:      Singlet-A      3.1800 eV  389.89 nm  f=0.0005  <S**2>=0.000
     240 -> 247       -0.33403
     240 -> 249       -0.10352
     241 -> 247        0.56183
     242 -> 247        0.11790
     244 -> 247       -0.12520

 The electronic state is 1-A.
 Alpha  occ. eigenvalues --  -46.89862 -19.27318 -19.25139 -19.22026 -19.19459
 Alpha  occ. eigenvalues --  -19.18804 -19.18525 -14.41491 -14.41157 -14.38788
 Alpha  occ. eigenvalues --  -14.38133 -10.38249 -10.35385 -10.32092 -10.31084
 Alpha  occ. eigenvalues --  -10.30199 -10.28491 -10.28436 -10.28134 -10.28019
 Alpha  occ. eigenvalues --  -10.27903 -10.27312 -10.27220 -10.27169 -10.25661
 Alpha  occ. eigenvalues --  -10.25649 -10.25526 -10.25392 -10.25287 -10.25230
 Alpha  occ. eigenvalues --  -10.25229 -10.25197 -10.25177 -10.24882 -10.24548
 Alpha  occ. eigenvalues --  -10.24542 -10.24525 -10.24332 -10.24321 -10.24300
 Alpha  occ. eigenvalues --  -10.24208 -10.24118 -10.23824 -10.23641 -10.23568
 Alpha  occ. eigenvalues --  -10.23551 -10.23416 -10.23354 -10.23281 -10.23202
 Alpha  occ. eigenvalues --  -10.23108 -10.23076 -10.22738 -10.22705 -10.22625
 Alpha  occ. eigenvalues --  -10.22504 -10.22213 -10.22209 -10.22164 -10.22100
 Alpha  occ. eigenvalues --  -10.21977 -10.21780 -10.21711 -10.21635 -10.21626
 Alpha  occ. eigenvalues --  -10.21603  -3.12280  -1.85134  -1.84659  -1.84514
 Alpha  occ. eigenvalues --   -1.11825  -1.11602  -1.04074  -1.03922  -1.03194
 Alpha  occ. eigenvalues --   -1.02472  -0.99337  -0.97941  -0.97294  -0.95448
 Alpha  occ. eigenvalues --   -0.87313  -0.85012  -0.84415  -0.83695  -0.83237
 Alpha  occ. eigenvalues --   -0.82921  -0.82541  -0.81863  -0.81767  -0.81106
 Alpha  occ. eigenvalues --   -0.80080  -0.79675  -0.79007  -0.78056  -0.77974
 Alpha  occ. eigenvalues --   -0.77194  -0.76646  -0.75888  -0.75346  -0.75098
 Alpha  occ. eigenvalues --   -0.74384  -0.72479  -0.72252  -0.71511  -0.70394
 Alpha  occ. eigenvalues --   -0.70096  -0.69393  -0.69200  -0.69125  -0.68629
 Alpha  occ. eigenvalues --   -0.67659  -0.66806  -0.65965  -0.64228  -0.63153
 Alpha  occ. eigenvalues --   -0.62775  -0.62458  -0.61060  -0.60260  -0.59871
 Alpha  occ. eigenvalues --   -0.59722  -0.59122  -0.58905  -0.58803  -0.58352
 Alpha  occ. eigenvalues --   -0.58295  -0.57565  -0.56930  -0.56464  -0.54673
 Alpha  occ. eigenvalues --   -0.54364  -0.54239  -0.53501  -0.52942  -0.52492
 Alpha  occ. eigenvalues --   -0.51928  -0.51662  -0.51064  -0.50537  -0.50177
 Alpha  occ. eigenvalues --   -0.49929  -0.49675  -0.49483  -0.49231  -0.48757
 Alpha  occ. eigenvalues --   -0.48426  -0.48106  -0.47980  -0.47789  -0.47712
 Alpha  occ. eigenvalues --   -0.47458  -0.47001  -0.46968  -0.46605  -0.46475
 Alpha  occ. eigenvalues --   -0.46175  -0.45900  -0.45742  -0.45474  -0.45406
 Alpha  occ. eigenvalues --   -0.45175  -0.45041  -0.44776  -0.44436  -0.44266
 Alpha  occ. eigenvalues --   -0.43994  -0.43739  -0.43619  -0.43558  -0.43442
 Alpha  occ. eigenvalues --   -0.43054  -0.42967  -0.42808  -0.42670  -0.42173
 Alpha  occ. eigenvalues --   -0.42097  -0.42029  -0.41759  -0.41647  -0.41485
 Alpha  occ. eigenvalues --   -0.41157  -0.41084  -0.40809  -0.40709  -0.40654
 Alpha  occ. eigenvalues --   -0.40589  -0.40429  -0.40242  -0.40020  -0.39355
 Alpha  occ. eigenvalues --   -0.39265  -0.39183  -0.38940  -0.38932  -0.38552
 Alpha  occ. eigenvalues --   -0.38423  -0.38155  -0.38092  -0.37785  -0.37587
 Alpha  occ. eigenvalues --   -0.37286  -0.37231  -0.37150  -0.36516  -0.36483
 Alpha  occ. eigenvalues --   -0.36254  -0.36065  -0.36011  -0.35927  -0.35807
 Alpha  occ. eigenvalues --   -0.35739  -0.35544  -0.35025  -0.34977  -0.34804
 Alpha  occ. eigenvalues --   -0.34204  -0.34128  -0.34119  -0.33782  -0.33449
 Alpha  occ. eigenvalues --   -0.33378  -0.33152  -0.33001  -0.32888  -0.32722
 Alpha  occ. eigenvalues --   -0.32626  -0.32452  -0.31773  -0.31630  -0.31321
 Alpha  occ. eigenvalues --   -0.30871  -0.30786  -0.30187  -0.29819  -0.29320
 Alpha  occ. eigenvalues --   -0.29064  -0.28898  -0.28514  -0.26811  -0.25765
 Alpha  occ. eigenvalues --   -0.25683  -0.25162  -0.24946  -0.24810  -0.21022
 Alpha  occ. eigenvalues --   -0.18328
 Alpha virt. eigenvalues --   -0.10686  -0.04835  -0.03326  -0.01996  -0.00563
 Alpha virt. eigenvalues --    0.00663   0.00949   0.01171   0.01999   0.03268
 Alpha virt. eigenvalues --    0.04116   0.04428   0.04812   0.05705   0.05861

 Mulliken charges:
               1
     1  Mg   0.994012
     2  C    0.029322
     3  C   -0.093961
     4  C   -0.078641
     5  C   -0.071446
     6  N   -0.362041
     7  C   -0.062184
     8  C   -0.074155
     9  C   -0.134732
    10  C    0.103539
    11  C    0.010656
    12  C   -0.021685
    13  C   -0.019811
    14  C    0.240641
    15  O   -0.265731
    16  O   -0.361823
    17  N   -0.554730
    18  C    0.221321
    19  C   -0.202681
    20  C   -0.108960
    21  C    0.190602
    22  C    0.064550
    23  C    0.053553
    24  O   -0.269197
    25  C   -0.004924
    26  N   -0.418590
    27  C    0.087615
    28  C   -0.111468
    29  C   -0.098990
    30  C    0.079337
    31  C    0.015935
    32  C   -0.014471
    33  C   -0.078668
    34  N   -0.495461
    35  C    0.127425
    36  C   -0.209470
    37  C   -0.035886
    38  C    0.155714
    39  C    0.064400
    40  C    0.155322
    41  O   -0.212839
    42  C   -0.083033
    43  C    0.256542
    44  O   -0.249864
    45  O   -0.353433
    46  C    0.142579
    47  C    0.235875
    48  C   -0.138424
    49  C   -0.234265
    50  C    0.029922
    51  C    0.011852
    52  C   -0.080415
    53  C    0.020851
    54  C   -0.231094
    55  C   -0.009466
    56  C    0.001545
    57  C   -0.021497
    58  C   -0.018860
    59  C   -0.224052
    60  C   -0.030727
    61  C    0.000155
    62  C   -0.018431
    63  C   -0.017787
    64  C   -0.266800
    65  C   -0.004144
    66  C   -0.022897
    67  H   -0.001291
    68  H    0.035798
    69  H   -0.001572
    70  H    0.061519
    71  H    0.043907
    72  H    0.045873
    73  H    0.042528
    74  H    0.032463
    75  H    0.032258
    76  H    0.064717
    77  H    0.067990
    78  H    0.075507
    79  H    0.079140
    80  H    0.031074
    81  H    0.047481
    82  H    0.060898
    83  H    0.071738
    84  H    0.057407
    85  H    0.042398
    86  H    0.049279
    87  H    0.055216
    88  H    0.070965
    89  H    0.040305
    90  H    0.059252
    91  H    0.039994
    92  H    0.045711
    93  H    0.043710
    94  H    0.050924
    95  H    0.060923
    96  H    0.067688
    97  H    0.032997
    98  H    0.086266
    99  H    0.062038
   100  H    0.065302
   101  H    0.035828
   102  H    0.061126
   103  H    0.075041
   104  H    0.031147
   105  H    0.049337
   106  H    0.047731
   107  H    0.048831
   108  H    0.033220
   109  H    0.027243
   110  H    0.026984
   111  H    0.038174
   112  H    0.035370
   113  H    0.032915
   114  H    0.036905
   115  H    0.025057
   116  H    0.022455
   117  H    0.049961
   118  H    0.015782
   119  H    0.031239
   120  H    0.032821
   121  H    0.034599
   122  H    0.025716
   123  H    0.018508
   124  H    0.034477
   125  H    0.030428
   126  H    0.037287
   127  H    0.035414
   128  H    0.014609
   129  H    0.018278
   130  H    0.028036
   131  H    0.025040
   132  H    0.033180
   133  H    0.029831
   134  H    0.029111
   135  H    0.044360
   136  H    0.029690
   137  H    0.031315
   138  H    0.021313
   139  H    0.034188
   140  H    0.041520
 Sum of Mulliken charges =  -0.00000

 Dipole moment (field-independent basis, Debye):
    X=              5.1735    Y=              2.8863    Z=             -0.7026  Tot=              5.9657
 Quadrupole moment (field-independent basis, Debye-Ang):
   XX=           -363.2576   YY=           -433.8659   ZZ=           -404.5677
   XY=            -26.4523   XZ=             -1.0408   YZ=             13.6591

 Normal termination of Gaussian 16 at Tue May  3 20:46:27 2022.
