 Gaussian 16, Revision A.03,
 Gaussian 16:  ES64L-G16RevA.03 25-Dec-2016

 --------------------------------
 #p wB97XD/Def2SVP td=(nstates=5)
 --------------------------------

 ----------------------------------------------------
 step_101_chromophore_15 TDDFT with wB97XD functional
 ----------------------------------------------------
 Symbolic Z-matrix:
 Charge =  0 Multiplicity = 1

                         Standard orientation:
 ---------------------------------------------------------------------
 Center     Atomic      Atomic             Coordinates (Angstroms)
 Number     Number       Type             X           Y           Z
 ---------------------------------------------------------------------
      1         12           0       -5.100583    0.826470   -0.020149
      2          6           0       -4.052964   -2.374677    0.687952
      3          6           0       -1.775536    1.670160   -0.290381
      4          6           0       -6.085137    4.158819   -0.410036
      5          6           0       -8.328574   -0.034108    0.582733
      6          7           0       -3.206248   -0.298225    0.020031
      7          6           0       -3.058521   -1.622098    0.236725
      8          6           0       -1.648689   -2.110168   -0.032128
      9          6           0       -0.857696   -0.689259   -0.035765
     10          6           0       -2.003544    0.293745   -0.084033
     11          6           0        0.124203   -0.371146    1.066491
     12          6           0       -1.592235   -2.791803   -1.425547
     13          6           0       -0.253121   -3.372374   -1.910160
     14          6           0        1.004515   -3.555971   -0.947353
     15          8           0        0.946963   -3.763847    0.265672
     16          8           0        2.121402   -3.425576   -1.753617
     17          7           0       -4.119352    2.566348   -0.332920
     18          6           0       -2.715896    2.706741   -0.421963
     19          6           0       -2.403884    4.071106   -0.532227
     20          6           0       -3.624271    4.806971   -0.533512
     21          6           0       -4.737678    3.815967   -0.447577
     22          6           0       -1.039142    4.655272   -0.875725
     23          6           0       -3.743541    6.348504   -0.603726
     24          8           0       -4.820195    6.889755   -0.932237
     25          6           0       -2.607547    7.177851   -0.210325
     26          7           0       -6.868838    1.923180    0.005348
     27          6           0       -7.096996    3.237287   -0.198214
     28          6           0       -8.569874    3.637988    0.129715
     29          6           0       -9.310423    2.243489    0.180964
     30          6           0       -8.129257    1.328229    0.295356
     31          6           0       -8.545736    4.514727    1.408433
     32          6           0      -10.170947    1.883245   -1.061343
     33          6           0      -11.621549    1.439781   -0.677682
     34          7           0       -6.027766   -0.904226    0.560121
     35          6           0       -7.411561   -1.069421    0.729359
     36          6           0       -7.526654   -2.530228    1.025386
     37          6           0       -6.259779   -3.040795    1.164996
     38          6           0       -5.377667   -2.025936    0.753732
     39          6           0       -8.872799   -3.270862    1.152742
     40          6           0       -5.525384   -4.244978    1.427640
     41          8           0       -5.883916   -5.385099    1.690313
     42          6           0       -4.071674   -3.828896    1.246269
     43          6           0       -3.332958   -4.901535    0.548477
     44          8           0       -3.607841   -5.428960   -0.503545
     45          8           0       -2.253971   -5.234279    1.296648
     46          6           0       -1.499809   -6.356172    0.748349
     47          6           0        3.351072   -3.594022   -0.969029
     48          6           0        4.455842   -2.929871   -1.765656
     49          6           0        5.810501   -3.000586   -1.612598
     50          6           0        6.557726   -3.533655   -0.406889
     51          6           0        6.712014   -2.580551   -2.807670
     52          6           0        7.221574   -1.153048   -2.699032
     53          6           0        8.613985   -0.924381   -3.288921
     54          6           0        8.744672    0.596280   -3.579014
     55          6           0        8.510309    0.830009   -5.104593
     56          6           0       10.192134    1.091317   -3.103634
     57          6           0       10.207009    1.852728   -1.736386
     58          6           0       11.079692    1.217018   -0.748901
     59          6           0       11.710571    2.288544    0.190593
     60          6           0       13.005051    2.933641   -0.488428
     61          6           0       12.028931    1.664414    1.562727
     62          6           0       11.102275    2.046941    2.676262
     63          6           0       10.890780    0.947689    3.695126
     64          6           0       10.765596    1.391247    5.159800
     65          6           0       11.062074    0.218207    6.112194
     66          6           0        9.352329    2.063581    5.461583
     67          1           0       -0.725589    1.956375   -0.367463
     68          1           0       -6.313454    5.225825   -0.362781
     69          1           0       -9.341290   -0.437688    0.656485
     70          1           0       -1.369850   -2.809726    0.755311
     71          1           0       -0.127070   -0.706162   -0.844846
     72          1           0       -0.074142   -1.055776    1.891044
     73          1           0        0.080079    0.668259    1.391020
     74          1           0        1.155162   -0.569779    0.773634
     75          1           0       -1.947361   -1.966237   -2.042198
     76          1           0       -2.338019   -3.552424   -1.657348
     77          1           0       -0.078294   -2.738498   -2.779433
     78          1           0       -0.478884   -4.389419   -2.230723
     79          1           0       -1.147017    5.156230   -1.837915
     80          1           0       -0.253071    3.900691   -0.903169
     81          1           0       -0.739783    5.246470   -0.010380
     82          1           0       -2.983982    8.163592    0.064920
     83          1           0       -1.822496    7.211675   -0.966335
     84          1           0       -2.229525    6.700370    0.693193
     85          1           0       -9.055524    4.125056   -0.716232
     86          1           0       -9.768588    2.082332    1.157133
     87          1           0       -9.030352    5.385385    0.965587
     88          1           0       -7.557381    4.675815    1.839032
     89          1           0       -9.191930    4.137281    2.201479
     90          1           0       -9.711495    1.136984   -1.710769
     91          1           0      -10.327589    2.780028   -1.661324
     92          1           0      -12.302932    2.115754   -1.194597
     93          1           0      -11.778030    1.520285    0.398012
     94          1           0      -11.768220    0.414639   -1.018931
     95          1           0       -8.797548   -3.952960    1.999323
     96          1           0       -9.040010   -3.821503    0.226167
     97          1           0       -9.708954   -2.603212    1.359183
     98          1           0       -3.671066   -3.685247    2.249926
     99          1           0       -2.158876   -7.193218    0.516043
    100          1           0       -0.705887   -6.628466    1.443015
    101          1           0       -1.129857   -5.982599   -0.206985
    102          1           0        3.421184   -4.679760   -0.908723
    103          1           0        3.407294   -3.115538    0.008740
    104          1           0        4.160040   -2.574247   -2.752334
    105          1           0        6.991527   -4.419521   -0.870795
    106          1           0        5.987102   -3.853639    0.464696
    107          1           0        7.380910   -2.869812   -0.145001
    108          1           0        6.142894   -2.593977   -3.736758
    109          1           0        7.571858   -3.246161   -2.884791
    110          1           0        7.393915   -1.055671   -1.626888
    111          1           0        6.466253   -0.463544   -3.075050
    112          1           0        8.676693   -1.482197   -4.222610
    113          1           0        9.303955   -1.222984   -2.498909
    114          1           0        8.009176    1.232946   -3.085992
    115          1           0        8.000182    1.786448   -5.221145
    116          1           0        7.720915    0.141215   -5.405999
    117          1           0        9.391950    0.810033   -5.744529
    118          1           0       10.528876    1.805994   -3.854863
    119          1           0       10.907868    0.269460   -3.083279
    120          1           0        9.242897    1.929141   -1.232914
    121          1           0       10.549948    2.856681   -1.990390
    122          1           0       11.923881    0.625663   -1.104111
    123          1           0       10.516851    0.525355   -0.121766
    124          1           0       10.973555    3.077072    0.335843
    125          1           0       13.969557    2.591322   -0.113405
    126          1           0       12.943209    3.978488   -0.186204
    127          1           0       13.166973    2.829264   -1.561579
    128          1           0       13.026343    1.964761    1.883718
    129          1           0       12.080950    0.576409    1.544494
    130          1           0       10.146678    2.369310    2.264367
    131          1           0       11.680279    2.857852    3.119786
    132          1           0       11.732754    0.256517    3.649458
    133          1           0        9.919663    0.515766    3.455070
    134          1           0       11.499376    2.145165    5.445592
    135          1           0       12.007362    0.498281    6.578144
    136          1           0       11.143291   -0.704363    5.537332
    137          1           0       10.252793    0.043436    6.820202
    138          1           0        9.109764    1.745780    6.474910
    139          1           0        8.563476    1.694592    4.805783
    140          1           0        9.358640    3.151468    5.527740
 ---------------------------------------------------------------------

 SCF Done:  E(RwB97XD) =  -3007.86479791     A.U. after   19 cycles

 Excitation energies and oscillator strengths:

 Excited State   1:      Singlet-A      1.6655 eV  744.43 nm  f=0.3696  <S**2>=0.000
     245 -> 248        0.17551
     246 -> 247        0.68582
     245 <- 248        0.11467
 This state for optimization and/or second-order correction.
 Total Energy, E(TD-HF/TD-DFT) =  -3007.80359204
 Copying the excited state density for this state as the 1-particle RhoCI density.

 Excited State   2:      Singlet-A      2.2771 eV  544.47 nm  f=0.0861  <S**2>=0.000
     245 -> 247        0.62092
     246 -> 248       -0.32134

 Excited State   3:      Singlet-A      3.3563 eV  369.41 nm  f=0.0070  <S**2>=0.000
     242 -> 247       -0.44039
     244 -> 247        0.50916
     246 -> 248       -0.12777

 Excited State   4:      Singlet-A      3.5575 eV  348.52 nm  f=0.3788  <S**2>=0.000
     241 -> 249        0.10007
     242 -> 247        0.24364
     244 -> 247        0.32778
     244 -> 249       -0.11431
     245 -> 247        0.21862
     246 -> 248        0.46955

 Excited State   5:      Singlet-A      3.6242 eV  342.10 nm  f=0.0352  <S**2>=0.000
     240 -> 247        0.50713
     240 -> 248        0.14369
     240 -> 249        0.31361
     240 -> 250       -0.21250
     246 -> 248        0.11944

 The electronic state is 1-A.
 Alpha  occ. eigenvalues --  -46.92830 -19.31848 -19.29656 -19.26661 -19.24105
 Alpha  occ. eigenvalues --  -19.23827 -19.23193 -14.46559 -14.46322 -14.43830
 Alpha  occ. eigenvalues --  -14.42978 -10.45012 -10.42163 -10.39128 -10.37821
 Alpha  occ. eigenvalues --  -10.36687 -10.35024 -10.34573 -10.34508 -10.34501
 Alpha  occ. eigenvalues --  -10.34452 -10.33983 -10.33393 -10.33147 -10.32002
 Alpha  occ. eigenvalues --  -10.31983 -10.31884 -10.31772 -10.31702 -10.31598
 Alpha  occ. eigenvalues --  -10.31412 -10.31337 -10.31306 -10.31238 -10.31212
 Alpha  occ. eigenvalues --  -10.31180 -10.31075 -10.30654 -10.30615 -10.30606
 Alpha  occ. eigenvalues --  -10.30489 -10.30437 -10.30107 -10.30029 -10.29963
 Alpha  occ. eigenvalues --  -10.29946 -10.29928 -10.29793 -10.29676 -10.29631
 Alpha  occ. eigenvalues --  -10.29390 -10.29377 -10.29190 -10.29090 -10.29023
 Alpha  occ. eigenvalues --  -10.28871 -10.28657 -10.28599 -10.28590 -10.28505
 Alpha  occ. eigenvalues --  -10.28403 -10.28171 -10.28129 -10.28034 -10.27984
 Alpha  occ. eigenvalues --  -10.27736  -3.19064  -1.92674  -1.92200  -1.92052
 Alpha  occ. eigenvalues --   -1.19186  -1.18935  -1.11396  -1.11272  -1.10900
 Alpha  occ. eigenvalues --   -1.09775  -1.06726  -1.05198  -1.04671  -1.03036
 Alpha  occ. eigenvalues --   -0.94814  -0.92702  -0.92089  -0.91269  -0.90878
 Alpha  occ. eigenvalues --   -0.90585  -0.90171  -0.89536  -0.89424  -0.88872
 Alpha  occ. eigenvalues --   -0.87623  -0.87330  -0.86671  -0.85680  -0.85555
 Alpha  occ. eigenvalues --   -0.84836  -0.84485  -0.83543  -0.82934  -0.82726
 Alpha  occ. eigenvalues --   -0.82064  -0.80069  -0.79890  -0.79270  -0.78071
 Alpha  occ. eigenvalues --   -0.77656  -0.77104  -0.76837  -0.76792  -0.76296
 Alpha  occ. eigenvalues --   -0.75259  -0.74316  -0.73501  -0.71852  -0.70646
 Alpha  occ. eigenvalues --   -0.70321  -0.70060  -0.68698  -0.67888  -0.67359
 Alpha  occ. eigenvalues --   -0.67211  -0.66631  -0.66552  -0.66275  -0.66007
 Alpha  occ. eigenvalues --   -0.65817  -0.65237  -0.64588  -0.63831  -0.62167
 Alpha  occ. eigenvalues --   -0.61857  -0.61660  -0.60913  -0.60368  -0.59929
 Alpha  occ. eigenvalues --   -0.59360  -0.59151  -0.58541  -0.57909  -0.57583
 Alpha  occ. eigenvalues --   -0.57307  -0.57144  -0.56873  -0.56695  -0.56196
 Alpha  occ. eigenvalues --   -0.55800  -0.55527  -0.55470  -0.55258  -0.55139
 Alpha  occ. eigenvalues --   -0.54801  -0.54396  -0.54243  -0.54020  -0.53739
 Alpha  occ. eigenvalues --   -0.53573  -0.53282  -0.53019  -0.52922  -0.52827
 Alpha  occ. eigenvalues --   -0.52567  -0.52409  -0.52042  -0.51789  -0.51635
 Alpha  occ. eigenvalues --   -0.51441  -0.51028  -0.50945  -0.50848  -0.50775
 Alpha  occ. eigenvalues --   -0.50331  -0.50209  -0.50086  -0.49962  -0.49503
 Alpha  occ. eigenvalues --   -0.49442  -0.49367  -0.49003  -0.48931  -0.48711
 Alpha  occ. eigenvalues --   -0.48449  -0.48353  -0.48064  -0.47968  -0.47865
 Alpha  occ. eigenvalues --   -0.47813  -0.47553  -0.47367  -0.47164  -0.46513
 Alpha  occ. eigenvalues --   -0.46377  -0.46305  -0.46147  -0.46041  -0.45686
 Alpha  occ. eigenvalues --   -0.45581  -0.45270  -0.45251  -0.44914  -0.44807
 Alpha  occ. eigenvalues --   -0.44483  -0.44290  -0.44168  -0.43649  -0.43535
 Alpha  occ. eigenvalues --   -0.43379  -0.43279  -0.43113  -0.42955  -0.42928
 Alpha  occ. eigenvalues --   -0.42801  -0.42611  -0.42091  -0.42001  -0.41876
 Alpha  occ. eigenvalues --   -0.41267  -0.41227  -0.40995  -0.40890  -0.40513
 Alpha  occ. eigenvalues --   -0.40435  -0.40188  -0.40042  -0.39852  -0.39795
 Alpha  occ. eigenvalues --   -0.39578  -0.39469  -0.38827  -0.38603  -0.38263
 Alpha  occ. eigenvalues --   -0.37831  -0.37718  -0.37138  -0.36811  -0.36328
 Alpha  occ. eigenvalues --   -0.35838  -0.35765  -0.35290  -0.33416  -0.33048
 Alpha  occ. eigenvalues --   -0.32574  -0.31884  -0.31691  -0.31480  -0.26105
 Alpha  occ. eigenvalues --   -0.22488
 Alpha virt. eigenvalues --   -0.06503   0.00603   0.02910   0.04528   0.06313
 Alpha virt. eigenvalues --    0.06952   0.07483   0.07962   0.08338   0.09527
 Alpha virt. eigenvalues --    0.10713   0.11135   0.11595   0.12537   0.12706

 Mulliken charges:
               1
     1  Mg   0.980911
     2  C    0.026144
     3  C   -0.116814
     4  C   -0.101105
     5  C   -0.080936
     6  N   -0.324332
     7  C   -0.094494
     8  C   -0.041392
     9  C   -0.113634
    10  C    0.097972
    11  C    0.019200
    12  C   -0.013440
    13  C   -0.004722
    14  C    0.229431
    15  O   -0.261704
    16  O   -0.361261
    17  N   -0.523752
    18  C    0.219268
    19  C   -0.192507
    20  C   -0.101885
    21  C    0.187948
    22  C    0.078604
    23  C    0.048831
    24  O   -0.262315
    25  C    0.008998
    26  N   -0.389632
    27  C    0.077391
    28  C   -0.085440
    29  C   -0.071681
    30  C    0.069327
    31  C    0.024091
    32  C   -0.004290
    33  C   -0.061926
    34  N   -0.452499
    35  C    0.110051
    36  C   -0.205102
    37  C   -0.030450
    38  C    0.131383
    39  C    0.074976
    40  C    0.138152
    41  O   -0.203221
    42  C   -0.048179
    43  C    0.230839
    44  O   -0.242254
    45  O   -0.351093
    46  C    0.163262
    47  C    0.247316
    48  C   -0.148709
    49  C   -0.215862
    50  C    0.041472
    51  C    0.029181
    52  C   -0.060313
    53  C    0.037346
    54  C   -0.203151
    55  C    0.002386
    56  C    0.016207
    57  C   -0.006117
    58  C   -0.004075
    59  C   -0.191091
    60  C   -0.021323
    61  C    0.014682
    62  C   -0.004362
    63  C    0.003422
    64  C   -0.240835
    65  C    0.007925
    66  C   -0.010405
    67  H   -0.009598
    68  H    0.032275
    69  H   -0.011140
    70  H    0.045707
    71  H    0.032247
    72  H    0.041272
    73  H    0.035768
    74  H    0.027887
    75  H    0.021825
    76  H    0.056600
    77  H    0.063481
    78  H    0.070253
    79  H    0.074670
    80  H    0.028231
    81  H    0.041905
    82  H    0.060667
    83  H    0.067645
    84  H    0.050250
    85  H    0.032156
    86  H    0.036366
    87  H    0.049731
    88  H    0.064375
    89  H    0.035813
    90  H    0.051827
    91  H    0.030632
    92  H    0.040032
    93  H    0.036858
    94  H    0.045193
    95  H    0.055899
    96  H    0.062176
    97  H    0.027057
    98  H    0.079112
    99  H    0.057767
   100  H    0.063241
   101  H    0.024474
   102  H    0.056682
   103  H    0.069797
   104  H    0.027235
   105  H    0.041863
   106  H    0.044280
   107  H    0.043473
   108  H    0.025775
   109  H    0.019480
   110  H    0.012014
   111  H    0.029785
   112  H    0.025881
   113  H    0.022996
   114  H    0.024103
   115  H    0.019306
   116  H    0.014497
   117  H    0.045230
   118  H    0.007960
   119  H    0.021671
   120  H    0.024432
   121  H    0.025296
   122  H    0.015842
   123  H    0.008161
   124  H    0.020811
   125  H    0.024532
   126  H    0.031366
   127  H    0.029953
   128  H    0.006145
   129  H    0.007420
   130  H    0.019193
   131  H    0.015821
   132  H    0.022405
   133  H    0.019326
   134  H    0.018332
   135  H    0.039345
   136  H    0.023296
   137  H    0.025393
   138  H    0.013753
   139  H    0.027711
   140  H    0.036374
 Sum of Mulliken charges =  -0.00000

 Dipole moment (field-independent basis, Debye):
    X=              5.5597    Y=              3.3779    Z=             -0.7655  Tot=              6.5503
 Quadrupole moment (field-independent basis, Debye-Ang):
   XX=           -367.4657   YY=           -431.4554   ZZ=           -404.2166
   XY=            -27.8919   XZ=             -0.8197   YZ=             13.4606

 Normal termination of Gaussian 16 at Tue May  3 21:16:55 2022.
