 Gaussian 16, Revision A.03,
 Gaussian 16:  ES64L-G16RevA.03 25-Dec-2016

 --------------------
 #p ZINDO=(nstates=5)
 --------------------

 -----------------------------
 step_101_chromophore_15 ZINDO
 -----------------------------
 Symbolic Z-matrix:
 Charge =  0 Multiplicity = 1

                         Standard orientation:
 ---------------------------------------------------------------------
 Center     Atomic      Atomic             Coordinates (Angstroms)
 Number     Number       Type             X           Y           Z
 ---------------------------------------------------------------------
      1         12           0       -5.100583    0.826470   -0.020149
      2          6           0       -4.052964   -2.374677    0.687952
      3          6           0       -1.775536    1.670160   -0.290381
      4          6           0       -6.085137    4.158819   -0.410036
      5          6           0       -8.328574   -0.034108    0.582733
      6          7           0       -3.206248   -0.298225    0.020031
      7          6           0       -3.058521   -1.622098    0.236725
      8          6           0       -1.648689   -2.110168   -0.032128
      9          6           0       -0.857696   -0.689259   -0.035765
     10          6           0       -2.003544    0.293745   -0.084033
     11          6           0        0.124203   -0.371146    1.066491
     12          6           0       -1.592235   -2.791803   -1.425547
     13          6           0       -0.253121   -3.372374   -1.910160
     14          6           0        1.004515   -3.555971   -0.947353
     15          8           0        0.946963   -3.763847    0.265672
     16          8           0        2.121402   -3.425576   -1.753617
     17          7           0       -4.119352    2.566348   -0.332920
     18          6           0       -2.715896    2.706741   -0.421963
     19          6           0       -2.403884    4.071106   -0.532227
     20          6           0       -3.624271    4.806971   -0.533512
     21          6           0       -4.737678    3.815967   -0.447577
     22          6           0       -1.039142    4.655272   -0.875725
     23          6           0       -3.743541    6.348504   -0.603726
     24          8           0       -4.820195    6.889755   -0.932237
     25          6           0       -2.607547    7.177851   -0.210325
     26          7           0       -6.868838    1.923180    0.005348
     27          6           0       -7.096996    3.237287   -0.198214
     28          6           0       -8.569874    3.637988    0.129715
     29          6           0       -9.310423    2.243489    0.180964
     30          6           0       -8.129257    1.328229    0.295356
     31          6           0       -8.545736    4.514727    1.408433
     32          6           0      -10.170947    1.883245   -1.061343
     33          6           0      -11.621549    1.439781   -0.677682
     34          7           0       -6.027766   -0.904226    0.560121
     35          6           0       -7.411561   -1.069421    0.729359
     36          6           0       -7.526654   -2.530228    1.025386
     37          6           0       -6.259779   -3.040795    1.164996
     38          6           0       -5.377667   -2.025936    0.753732
     39          6           0       -8.872799   -3.270862    1.152742
     40          6           0       -5.525384   -4.244978    1.427640
     41          8           0       -5.883916   -5.385099    1.690313
     42          6           0       -4.071674   -3.828896    1.246269
     43          6           0       -3.332958   -4.901535    0.548477
     44          8           0       -3.607841   -5.428960   -0.503545
     45          8           0       -2.253971   -5.234279    1.296648
     46          6           0       -1.499809   -6.356172    0.748349
     47          6           0        3.351072   -3.594022   -0.969029
     48          6           0        4.455842   -2.929871   -1.765656
     49          6           0        5.810501   -3.000586   -1.612598
     50          6           0        6.557726   -3.533655   -0.406889
     51          6           0        6.712014   -2.580551   -2.807670
     52          6           0        7.221574   -1.153048   -2.699032
     53          6           0        8.613985   -0.924381   -3.288921
     54          6           0        8.744672    0.596280   -3.579014
     55          6           0        8.510309    0.830009   -5.104593
     56          6           0       10.192134    1.091317   -3.103634
     57          6           0       10.207009    1.852728   -1.736386
     58          6           0       11.079692    1.217018   -0.748901
     59          6           0       11.710571    2.288544    0.190593
     60          6           0       13.005051    2.933641   -0.488428
     61          6           0       12.028931    1.664414    1.562727
     62          6           0       11.102275    2.046941    2.676262
     63          6           0       10.890780    0.947689    3.695126
     64          6           0       10.765596    1.391247    5.159800
     65          6           0       11.062074    0.218207    6.112194
     66          6           0        9.352329    2.063581    5.461583
     67          1           0       -0.725589    1.956375   -0.367463
     68          1           0       -6.313454    5.225825   -0.362781
     69          1           0       -9.341290   -0.437688    0.656485
     70          1           0       -1.369850   -2.809726    0.755311
     71          1           0       -0.127070   -0.706162   -0.844846
     72          1           0       -0.074142   -1.055776    1.891044
     73          1           0        0.080079    0.668259    1.391020
     74          1           0        1.155162   -0.569779    0.773634
     75          1           0       -1.947361   -1.966237   -2.042198
     76          1           0       -2.338019   -3.552424   -1.657348
     77          1           0       -0.078294   -2.738498   -2.779433
     78          1           0       -0.478884   -4.389419   -2.230723
     79          1           0       -1.147017    5.156230   -1.837915
     80          1           0       -0.253071    3.900691   -0.903169
     81          1           0       -0.739783    5.246470   -0.010380
     82          1           0       -2.983982    8.163592    0.064920
     83          1           0       -1.822496    7.211675   -0.966335
     84          1           0       -2.229525    6.700370    0.693193
     85          1           0       -9.055524    4.125056   -0.716232
     86          1           0       -9.768588    2.082332    1.157133
     87          1           0       -9.030352    5.385385    0.965587
     88          1           0       -7.557381    4.675815    1.839032
     89          1           0       -9.191930    4.137281    2.201479
     90          1           0       -9.711495    1.136984   -1.710769
     91          1           0      -10.327589    2.780028   -1.661324
     92          1           0      -12.302932    2.115754   -1.194597
     93          1           0      -11.778030    1.520285    0.398012
     94          1           0      -11.768220    0.414639   -1.018931
     95          1           0       -8.797548   -3.952960    1.999323
     96          1           0       -9.040010   -3.821503    0.226167
     97          1           0       -9.708954   -2.603212    1.359183
     98          1           0       -3.671066   -3.685247    2.249926
     99          1           0       -2.158876   -7.193218    0.516043
    100          1           0       -0.705887   -6.628466    1.443015
    101          1           0       -1.129857   -5.982599   -0.206985
    102          1           0        3.421184   -4.679760   -0.908723
    103          1           0        3.407294   -3.115538    0.008740
    104          1           0        4.160040   -2.574247   -2.752334
    105          1           0        6.991527   -4.419521   -0.870795
    106          1           0        5.987102   -3.853639    0.464696
    107          1           0        7.380910   -2.869812   -0.145001
    108          1           0        6.142894   -2.593977   -3.736758
    109          1           0        7.571858   -3.246161   -2.884791
    110          1           0        7.393915   -1.055671   -1.626888
    111          1           0        6.466253   -0.463544   -3.075050
    112          1           0        8.676693   -1.482197   -4.222610
    113          1           0        9.303955   -1.222984   -2.498909
    114          1           0        8.009176    1.232946   -3.085992
    115          1           0        8.000182    1.786448   -5.221145
    116          1           0        7.720915    0.141215   -5.405999
    117          1           0        9.391950    0.810033   -5.744529
    118          1           0       10.528876    1.805994   -3.854863
    119          1           0       10.907868    0.269460   -3.083279
    120          1           0        9.242897    1.929141   -1.232914
    121          1           0       10.549948    2.856681   -1.990390
    122          1           0       11.923881    0.625663   -1.104111
    123          1           0       10.516851    0.525355   -0.121766
    124          1           0       10.973555    3.077072    0.335843
    125          1           0       13.969557    2.591322   -0.113405
    126          1           0       12.943209    3.978488   -0.186204
    127          1           0       13.166973    2.829264   -1.561579
    128          1           0       13.026343    1.964761    1.883718
    129          1           0       12.080950    0.576409    1.544494
    130          1           0       10.146678    2.369310    2.264367
    131          1           0       11.680279    2.857852    3.119786
    132          1           0       11.732754    0.256517    3.649458
    133          1           0        9.919663    0.515766    3.455070
    134          1           0       11.499376    2.145165    5.445592
    135          1           0       12.007362    0.498281    6.578144
    136          1           0       11.143291   -0.704363    5.537332
    137          1           0       10.252793    0.043436    6.820202
    138          1           0        9.109764    1.745780    6.474910
    139          1           0        8.563476    1.694592    4.805783
    140          1           0        9.358640    3.151468    5.527740
 ---------------------------------------------------------------------

 SCF Done:  E(RZINDO/S) =  -474.513884690     A.U. after   20 cycles

 Excitation energies and oscillator strengths:

 Excited State   1:      Singlet-A      1.2348 eV 1004.07 nm  f=0.5883  <S**2>=0.000
     175 ->178        -0.18379
     176 ->177         0.66581
 This state for optimization and/or second-order correction.
 Total Energy, E(CIS/TDA) =  -474.468506155
 Copying the excited state density for this state as the 1-particle RhoCI density.

 Excited State   2:      Singlet-A      1.9889 eV  623.37 nm  f=0.0122  <S**2>=0.000
     175 ->177         0.50920
     176 ->178         0.47052

 Excited State   3:      Singlet-A      2.9922 eV  414.35 nm  f=0.0266  <S**2>=0.000
     167 ->179        -0.13402
     167 ->181        -0.11825
     168 ->177         0.24437
     168 ->178        -0.11182
     168 ->179        -0.30607
     168 ->181        -0.27258
     168 ->186        -0.20542
     169 ->177         0.11628
     169 ->179        -0.15105
     169 ->181        -0.14339
     176 ->179         0.19873

 Excited State   4:      Singlet-A      3.0096 eV  411.96 nm  f=0.0799  <S**2>=0.000
     168 ->179         0.10966
     170 ->177        -0.23798
     170 ->179        -0.29174
     170 ->181         0.29031
     170 ->186        -0.11021
     170 ->187         0.14276
     172 ->177         0.10556
     175 ->177         0.12345
     176 ->178        -0.13697
     176 ->179         0.24373
     176 ->181        -0.10916

 Excited State   5:      Singlet-A      3.0583 eV  405.41 nm  f=0.1902  <S**2>=0.000
     168 ->177        -0.10320
     168 ->181         0.14467
     175 ->177        -0.15214
     176 ->178         0.19735
     176 ->179         0.55470

 The electronic state is 1-A.
 Alpha  occ. eigenvalues --   -1.86628  -1.80783  -1.80195  -1.74925  -1.72270
 Alpha  occ. eigenvalues --   -1.70465  -1.66079  -1.62179  -1.59615  -1.57960
 Alpha  occ. eigenvalues --   -1.56352  -1.51517  -1.49156  -1.47768  -1.47202
 Alpha  occ. eigenvalues --   -1.44693  -1.42594  -1.41089  -1.40525  -1.39904
 Alpha  occ. eigenvalues --   -1.37843  -1.33382  -1.32312  -1.31957  -1.29469
 Alpha  occ. eigenvalues --   -1.27741  -1.25219  -1.22898  -1.21532  -1.19325
 Alpha  occ. eigenvalues --   -1.18823  -1.15352  -1.15160  -1.14201  -1.13915
 Alpha  occ. eigenvalues --   -1.12927  -1.11079  -1.09295  -1.04081  -1.03084
 Alpha  occ. eigenvalues --   -1.02371  -1.00045  -0.98678  -0.97724  -0.95970
 Alpha  occ. eigenvalues --   -0.95677  -0.93693  -0.93102  -0.92487  -0.91816
 Alpha  occ. eigenvalues --   -0.90246  -0.89207  -0.88713  -0.88271  -0.87406
 Alpha  occ. eigenvalues --   -0.85961  -0.84848  -0.83264  -0.82117  -0.81251
 Alpha  occ. eigenvalues --   -0.80697  -0.79215  -0.77868  -0.76997  -0.76714
 Alpha  occ. eigenvalues --   -0.75057  -0.74616  -0.74320  -0.73732  -0.73229
 Alpha  occ. eigenvalues --   -0.72456  -0.72034  -0.71472  -0.70681  -0.70321
 Alpha  occ. eigenvalues --   -0.70267  -0.69690  -0.69388  -0.68978  -0.68375
 Alpha  occ. eigenvalues --   -0.68166  -0.67708  -0.67616  -0.67050  -0.65509
 Alpha  occ. eigenvalues --   -0.65305  -0.65003  -0.64304  -0.64131  -0.63525
 Alpha  occ. eigenvalues --   -0.63282  -0.63214  -0.62966  -0.62345  -0.61906
 Alpha  occ. eigenvalues --   -0.61466  -0.61205  -0.60392  -0.60003  -0.59690
 Alpha  occ. eigenvalues --   -0.59404  -0.59278  -0.58934  -0.58699  -0.58137
 Alpha  occ. eigenvalues --   -0.57911  -0.57610  -0.57274  -0.56917  -0.56275
 Alpha  occ. eigenvalues --   -0.55935  -0.55811  -0.55198  -0.54918  -0.54800
 Alpha  occ. eigenvalues --   -0.54550  -0.54121  -0.53292  -0.52431  -0.52286
 Alpha  occ. eigenvalues --   -0.52075  -0.51870  -0.51691  -0.51684  -0.51231
 Alpha  occ. eigenvalues --   -0.51106  -0.50857  -0.50612  -0.50363  -0.50066
 Alpha  occ. eigenvalues --   -0.49904  -0.49528  -0.49455  -0.49232  -0.49156
 Alpha  occ. eigenvalues --   -0.48676  -0.48084  -0.48067  -0.47896  -0.47728
 Alpha  occ. eigenvalues --   -0.47646  -0.46964  -0.46790  -0.46634  -0.46580
 Alpha  occ. eigenvalues --   -0.46229  -0.46017  -0.45731  -0.45493  -0.45093
 Alpha  occ. eigenvalues --   -0.45054  -0.44329  -0.44315  -0.44081  -0.43708
 Alpha  occ. eigenvalues --   -0.43601  -0.43432  -0.43154  -0.42468  -0.42263
 Alpha  occ. eigenvalues --   -0.41451  -0.40995  -0.40682  -0.39576  -0.39124
 Alpha  occ. eigenvalues --   -0.37710  -0.36564  -0.35487  -0.35033  -0.34403
 Alpha  occ. eigenvalues --   -0.33157  -0.32406  -0.32394  -0.31832  -0.26866
 Alpha  occ. eigenvalues --   -0.21239
 Alpha virt. eigenvalues --   -0.08047  -0.01736   0.00065   0.01188   0.01536
 Alpha virt. eigenvalues --    0.02895   0.03431   0.03815   0.04109   0.04984
 Alpha virt. eigenvalues --    0.06820   0.07149   0.07684   0.08244   0.08421

 Mulliken charges:
               1
     1  Mg   0.411039
     2  C   -0.038190
     3  C   -0.083758
     4  C   -0.062243
     5  C   -0.056704
     6  N   -0.279103
     7  C    0.130852
     8  C    0.000924
     9  C   -0.001019
    10  C    0.150402
    11  C   -0.046945
    12  C   -0.026166
    13  C   -0.004005
    14  C    0.464609
    15  O   -0.511430
    16  O   -0.260896
    17  N   -0.344673
    18  C    0.117135
    19  C    0.004039
    20  C   -0.055870
    21  C    0.141056
    22  C   -0.048374
    23  C    0.330278
    24  O   -0.536942
    25  C   -0.023787
    26  N   -0.272469
    27  C    0.153146
    28  C   -0.001086
    29  C   -0.001290
    30  C    0.099813
    31  C   -0.050797
    32  C   -0.026184
    33  C   -0.061811
    34  N   -0.315216
    35  C    0.059272
    36  C    0.032636
    37  C   -0.055183
    38  C    0.123716
    39  C   -0.044043
    40  C    0.338800
    41  O   -0.519843
    42  C    0.049325
    43  C    0.497743
    44  O   -0.522950
    45  O   -0.269068
    46  C    0.074334
    47  C    0.108109
    48  C   -0.110894
    49  C   -0.005332
    50  C   -0.043620
    51  C   -0.024677
    52  C   -0.037664
    53  C   -0.033233
    54  C   -0.021021
    55  C   -0.062157
    56  C   -0.047776
    57  C   -0.028046
    58  C   -0.026717
    59  C   -0.015378
    60  C   -0.066422
    61  C   -0.034655
    62  C   -0.036823
    63  C   -0.029504
    64  C   -0.018112
    65  C   -0.061024
    66  C   -0.066573
    67  H    0.026519
    68  H    0.054507
    69  H    0.024323
    70  H    0.045678
    71  H    0.033542
    72  H    0.022352
    73  H    0.023113
    74  H    0.016694
    75  H    0.015718
    76  H    0.037970
    77  H    0.038658
    78  H    0.046155
    79  H    0.041074
    80  H    0.019115
    81  H    0.030952
    82  H    0.038842
    83  H    0.049612
    84  H    0.030064
    85  H    0.033292
    86  H    0.037329
    87  H    0.025686
    88  H    0.038533
    89  H    0.019487
    90  H    0.032657
    91  H    0.017503
    92  H    0.019988
    93  H    0.023375
    94  H    0.022927
    95  H    0.032267
    96  H    0.038767
    97  H    0.020458
    98  H    0.052314
    99  H    0.048460
   100  H    0.037419
   101  H    0.038163
   102  H    0.050658
   103  H    0.059433
   104  H    0.025231
   105  H    0.027273
   106  H    0.029991
   107  H    0.030191
   108  H    0.019591
   109  H    0.024020
   110  H    0.014258
   111  H    0.028153
   112  H    0.028508
   113  H    0.024456
   114  H    0.028029
   115  H    0.008291
   116  H    0.014849
   117  H    0.031372
   118  H    0.011441
   119  H    0.024630
   120  H    0.022604
   121  H    0.018314
   122  H    0.018969
   123  H    0.009651
   124  H    0.022509
   125  H    0.016860
   126  H    0.012992
   127  H    0.023731
   128  H    0.009945
   129  H    0.014707
   130  H    0.021443
   131  H    0.018322
   132  H    0.021678
   133  H    0.021924
   134  H    0.017621
   135  H    0.022519
   136  H    0.016582
   137  H    0.022142
   138  H    0.011305
   139  H    0.023132
   140  H    0.021611
 Sum of Mulliken charges =  -0.00000

 Dipole moment (field-independent basis, Debye):
    X=              7.0030    Y=              4.6075    Z=             -0.6473  Tot=              8.4078
 N-N= 4.321441752583D+03 E-N= 0.000000000000D+00  KE=-9.317575394681D+03
 Leave Link  601 at Tue May  3 21:30:57 2022, MaxMem=  6710886400 cpu:               3.2 elap:               0.2
 (Enter /sw/apps/gaussian-16.0/g16/l9999.exe)
 1\1\GINC-BP1-COMPUTE174\SP\RZINDO CIS\STO-3G\C55H74Mg1N4O6\OF15641\03-
 May-2022\0\\#p ZINDO=(nstates=5)\\step_101_chromophore_15 ZINDO\\0,1\M
 g,0,47.224,35.103,28.298\C,0,45.383,33.507,30.729\C,0,47.534,37.729,30
 .5\C,0,48.808,36.91,25.758\C,0,46.59,32.601,26.093\N,0,46.665,35.437,3
 0.403\C,0,45.995,34.583,31.205\C,0,45.979,35.025,32.655\C,0,46.417,36.
 581,32.477\C,0,46.882,36.601,31.04\C,0,45.426,37.681,32.774\C,0,47.044
 ,34.226,33.453\C,0,47.203,34.505,34.957\C,0,46.15,35.366,35.789\O,0,44

 Normal termination of Gaussian 16 at Tue May  3 21:30:57 2022.
