 Gaussian 16, Revision A.03,
 Gaussian 16:  ES64L-G16RevA.03 25-Dec-2016

 ------------------------------
 #p blyp/Def2SVP td=(nstates=5)
 ------------------------------

 --------------------------------------------------
 step_901_chromophore_25 TDDFT with blyp functional
 --------------------------------------------------
 Symbolic Z-matrix:
 Charge =  0 Multiplicity = 1

                         Standard orientation:
 ---------------------------------------------------------------------
 Center     Atomic      Atomic             Coordinates (Angstroms)
 Number     Number       Type             X           Y           Z
 ---------------------------------------------------------------------
      1         12           0        5.865441    0.336644    0.457343
      2          6           0        3.335358   -2.244677    0.182297
      3          6           0        3.452355    2.705287   -0.133416
      4          6           0        8.305632    2.567581   -0.251062
      5          6           0        8.309511   -2.174387    0.253060
      6          7           0        3.645667    0.239811   -0.016369
      7          6           0        2.833058   -0.873607    0.003930
      8          6           0        1.271678   -0.435477   -0.106204
      9          6           0        1.418462    1.100570   -0.198677
     10          6           0        2.919409    1.365250   -0.011341
     11          6           0        0.781472    1.799361   -1.427928
     12          6           0        0.293449   -0.958911    1.063468
     13          6           0       -0.970272   -1.781425    0.624295
     14          6           0       -2.213686   -1.479173    1.343564
     15          8           0       -2.486226   -1.724914    2.472445
     16          8           0       -3.160269   -0.954313    0.512340
     17          7           0        5.838142    2.386042    0.019581
     18          6           0        4.766289    3.163314   -0.200715
     19          6           0        5.203129    4.624126   -0.255589
     20          6           0        6.687961    4.455520   -0.337888
     21          6           0        7.044264    3.050731   -0.240262
     22          6           0        4.242101    5.831330   -0.252303
     23          6           0        7.646115    5.570668   -0.599421
     24          8           0        8.792048    5.471911   -0.920461
     25          6           0        7.226889    6.970885   -0.415386
     26          7           0        8.075601    0.258831   -0.087731
     27          6           0        8.796043    1.320531   -0.174364
     28          6           0       10.283256    0.972580   -0.092107
     29          6           0       10.234659   -0.589839    0.314746
     30          6           0        8.775256   -0.895717    0.145407
     31          6           0       11.041781    1.412576   -1.352817
     32          6           0       11.032749   -0.877045    1.638856
     33          6           0       10.168355   -0.600710    2.936236
     34          7           0        5.906106   -1.796507    0.331818
     35          6           0        6.966099   -2.670344    0.346251
     36          6           0        6.414559   -4.022983    0.410158
     37          6           0        5.034559   -3.870891    0.329118
     38          6           0        4.771746   -2.504985    0.225779
     39          6           0        7.113006   -5.278755    0.248198
     40          6           0        3.779076   -4.546775    0.221452
     41          8           0        3.491387   -5.744922    0.208601
     42          6           0        2.601246   -3.520455    0.087181
     43          6           0        1.804728   -3.814084   -1.200300
     44          8           0        2.265599   -3.761118   -2.371409
     45          8           0        0.575285   -4.271530   -0.918626
     46          6           0       -0.240257   -4.854199   -1.980478
     47          6           0       -4.542019   -0.776862    1.026355
     48          6           0       -5.453428   -0.139382   -0.056508
     49          6           0       -6.295546   -0.726521   -0.877978
     50          6           0       -6.633399   -2.232993   -0.809506
     51          6           0       -6.967173   -0.014889   -2.048327
     52          6           0       -8.208620    0.814881   -1.759204
     53          6           0       -8.906362    1.133245   -3.126885
     54          6           0      -10.311998    0.436717   -3.314390
     55          6           0      -10.605966    0.005070   -4.731715
     56          6           0      -11.494103    1.335326   -2.726593
     57          6           0      -12.451172    0.565059   -1.791876
     58          6           0      -12.953773    1.273814   -0.507500
     59          6           0      -13.077138    0.313373    0.660737
     60          6           0      -13.975467   -0.917503    0.515274
     61          6           0      -13.447169    1.068395    2.042624
     62          6           0      -12.313346    0.806045    3.083421
     63          6           0      -11.539442    2.094111    3.496125
     64          6           0       -9.961594    1.876206    3.467047
     65          6           0       -9.401448    1.623348    1.982159
     66          6           0       -9.562543    0.733963    4.535326
     67          1           0        2.738709    3.529866   -0.198513
     68          1           0        9.175141    3.204638   -0.424070
     69          1           0        9.047054   -2.979128    0.227276
     70          1           0        0.779804   -0.814056   -1.002020
     71          1           0        0.898412    1.644118    0.590895
     72          1           0        0.037460    1.126424   -1.854657
     73          1           0        1.365870    1.959331   -2.333826
     74          1           0        0.291792    2.748128   -1.212617
     75          1           0       -0.030958   -0.119555    1.678897
     76          1           0        0.832638   -1.517465    1.828804
     77          1           0       -0.878248   -2.841470    0.857895
     78          1           0       -1.019075   -1.775451   -0.464488
     79          1           0        4.227353    6.273818   -1.248289
     80          1           0        4.430342    6.639738    0.455036
     81          1           0        3.217913    5.536846   -0.024371
     82          1           0        6.543450    7.223335   -1.225700
     83          1           0        8.034215    7.703466   -0.406981
     84          1           0        6.791501    7.088299    0.576775
     85          1           0       10.761779    1.492689    0.737498
     86          1           0       10.728369   -1.151444   -0.478585
     87          1           0       11.808935    0.669889   -1.571570
     88          1           0       11.607141    2.321971   -1.148448
     89          1           0       10.353494    1.419317   -2.197331
     90          1           0       11.856008   -0.162883    1.626216
     91          1           0       11.338491   -1.922335    1.692155
     92          1           0       10.439154    0.409064    3.247603
     93          1           0       10.539701   -1.279303    3.703593
     94          1           0        9.093663   -0.540755    2.764707
     95          1           0        8.086752   -5.170012    0.726615
     96          1           0        7.222353   -5.489497   -0.815716
     97          1           0        6.675344   -6.166643    0.703486
     98          1           0        2.050469   -3.453938    1.024928
     99          1           0       -1.000327   -5.494280   -1.533515
    100          1           0        0.362775   -5.443490   -2.670518
    101          1           0       -0.801318   -4.088128   -2.514147
    102          1           0       -4.691995   -0.149235    1.904215
    103          1           0       -4.878389   -1.786812    1.260883
    104          1           0       -5.324766    0.921257   -0.269801
    105          1           0       -6.718059   -2.582305    0.219455
    106          1           0       -5.841023   -2.837306   -1.251147
    107          1           0       -7.516423   -2.469800   -1.403950
    108          1           0       -7.307875   -0.687133   -2.836212
    109          1           0       -6.241887    0.620535   -2.555848
    110          1           0       -7.936171    1.753795   -1.279181
    111          1           0       -8.962648    0.307896   -1.155963
    112          1           0       -8.296350    0.908748   -4.002029
    113          1           0       -9.023541    2.210833   -3.014750
    114          1           0      -10.295050   -0.466411   -2.704663
    115          1           0      -11.143942   -0.933913   -4.865602
    116          1           0       -9.645168   -0.239742   -5.184463
    117          1           0      -11.114419    0.816270   -5.252506
    118          1           0      -12.209357    1.755828   -3.433040
    119          1           0      -10.979061    2.161926   -2.238304
    120          1           0      -12.043466   -0.399589   -1.487718
    121          1           0      -13.383007    0.299431   -2.289998
    122          1           0      -13.938392    1.638225   -0.800878
    123          1           0      -12.254930    2.075851   -0.271859
    124          1           0      -12.061842   -0.077677    0.725625
    125          1           0      -13.558419   -1.715202   -0.099733
    126          1           0      -14.910995   -0.635695    0.032379
    127          1           0      -14.252457   -1.250968    1.514947
    128          1           0      -14.381244    0.684590    2.454682
    129          1           0      -13.612056    2.131310    1.867383
    130          1           0      -11.690589   -0.044680    2.809695
    131          1           0      -12.844439    0.384029    3.936562
    132          1           0      -11.899957    2.548248    4.418494
    133          1           0      -11.644598    2.868838    2.735836
    134          1           0       -9.465314    2.772510    3.837649
    135          1           0      -10.223307    1.720093    1.273068
    136          1           0       -9.011308    0.609974    1.885350
    137          1           0       -8.626665    2.358193    1.759242
    138          1           0       -8.883792    1.163660    5.271966
    139          1           0       -9.048491   -0.107985    4.071641
    140          1           0      -10.381230    0.189775    5.005281
 ---------------------------------------------------------------------

 SCF Done:  E(RB-LYP) =  -3007.34453244     A.U. after   22 cycles

 Excitation energies and oscillator strengths:

 Excited State   1:      Singlet-A      1.7264 eV  718.18 nm  f=0.0249  <S**2>=0.000
     244 -> 247        0.60948
     245 -> 247       -0.27757
     246 -> 247        0.22098
 This state for optimization and/or second-order correction.
 Total Energy, E(TD-HF/TD-DFT) =  -3007.28108961
 Copying the excited state density for this state as the 1-particle RhoCI density.

 Excited State   2:      Singlet-A      1.8706 eV  662.82 nm  f=0.2716  <S**2>=0.000
     244 -> 247       -0.18440
     245 -> 247        0.12140
     245 -> 248       -0.21046
     246 -> 247        0.63922
     246 <- 247       -0.12708

 Excited State   3:      Singlet-A      1.8924 eV  655.18 nm  f=0.0054  <S**2>=0.000
     243 -> 247        0.69220

 Excited State   4:      Singlet-A      2.0165 eV  614.84 nm  f=0.0614  <S**2>=0.000
     243 -> 247       -0.11407
     244 -> 247        0.28131
     245 -> 247        0.57623
     246 -> 248        0.24952

 Excited State   5:      Singlet-A      2.5745 eV  481.58 nm  f=0.0008  <S**2>=0.000
     240 -> 247       -0.17632
     241 -> 247       -0.22549
     242 -> 247        0.62831

 The electronic state is 1-A.
 Alpha  occ. eigenvalues --  -46.29067 -18.83132 -18.80930 -18.76345 -18.76075
 Alpha  occ. eigenvalues --  -18.75007 -18.74781 -14.03986 -14.02337 -14.01334
 Alpha  occ. eigenvalues --  -14.01096 -10.04688 -10.03209  -9.99246  -9.98702
 Alpha  occ. eigenvalues --   -9.98312  -9.98080  -9.97523  -9.97185  -9.96257
 Alpha  occ. eigenvalues --   -9.95983  -9.95825  -9.95719  -9.95586  -9.95283
 Alpha  occ. eigenvalues --   -9.95105  -9.94474  -9.94447  -9.94420  -9.94201
 Alpha  occ. eigenvalues --   -9.94118  -9.94074  -9.93322  -9.93316  -9.93293
 Alpha  occ. eigenvalues --   -9.93258  -9.93234  -9.93121  -9.93087  -9.93058
 Alpha  occ. eigenvalues --   -9.92764  -9.92747  -9.92569  -9.92380  -9.92261
 Alpha  occ. eigenvalues --   -9.92249  -9.92016  -9.92014  -9.92005  -9.91675
 Alpha  occ. eigenvalues --   -9.91608  -9.91568  -9.91558  -9.91437  -9.91418
 Alpha  occ. eigenvalues --   -9.91252  -9.91162  -9.91126  -9.90984  -9.90902
 Alpha  occ. eigenvalues --   -9.90887  -9.90877  -9.90813  -9.90783  -9.90680
 Alpha  occ. eigenvalues --   -9.90388  -2.93402  -1.73791  -1.73326  -1.73096
 Alpha  occ. eigenvalues --   -0.98353  -0.98154  -0.92787  -0.90451  -0.89736
 Alpha  occ. eigenvalues --   -0.88216  -0.87282  -0.86333  -0.85816  -0.84760
 Alpha  occ. eigenvalues --   -0.75563  -0.73725  -0.72901  -0.72685  -0.72426
 Alpha  occ. eigenvalues --   -0.71486  -0.71341  -0.70770  -0.70251  -0.69985
 Alpha  occ. eigenvalues --   -0.69566  -0.69499  -0.68082  -0.67679  -0.67044
 Alpha  occ. eigenvalues --   -0.66369  -0.66164  -0.65605  -0.64735  -0.64312
 Alpha  occ. eigenvalues --   -0.63936  -0.62624  -0.62516  -0.61943  -0.61008
 Alpha  occ. eigenvalues --   -0.60532  -0.59826  -0.59792  -0.59664  -0.58652
 Alpha  occ. eigenvalues --   -0.58399  -0.57648  -0.56887  -0.56063  -0.55158
 Alpha  occ. eigenvalues --   -0.54109  -0.54022  -0.52910  -0.52599  -0.51710
 Alpha  occ. eigenvalues --   -0.51650  -0.51282  -0.51049  -0.50319  -0.49737
 Alpha  occ. eigenvalues --   -0.49386  -0.49026  -0.48732  -0.47782  -0.46812
 Alpha  occ. eigenvalues --   -0.46394  -0.46050  -0.45842  -0.45432  -0.44740
 Alpha  occ. eigenvalues --   -0.44143  -0.43715  -0.42995  -0.42796  -0.42542
 Alpha  occ. eigenvalues --   -0.42011  -0.41868  -0.41569  -0.41442  -0.41268
 Alpha  occ. eigenvalues --   -0.41128  -0.40639  -0.40457  -0.40339  -0.40081
 Alpha  occ. eigenvalues --   -0.39993  -0.39779  -0.39518  -0.39268  -0.38975
 Alpha  occ. eigenvalues --   -0.38798  -0.38699  -0.38604  -0.38308  -0.38140
 Alpha  occ. eigenvalues --   -0.37987  -0.37873  -0.37675  -0.37479  -0.37239
 Alpha  occ. eigenvalues --   -0.36837  -0.36655  -0.36623  -0.36497  -0.36233
 Alpha  occ. eigenvalues --   -0.36081  -0.36032  -0.35832  -0.35535  -0.35386
 Alpha  occ. eigenvalues --   -0.35209  -0.35150  -0.34910  -0.34840  -0.34579
 Alpha  occ. eigenvalues --   -0.34455  -0.34363  -0.34098  -0.33977  -0.33710
 Alpha  occ. eigenvalues --   -0.33488  -0.33381  -0.33353  -0.33305  -0.33210
 Alpha  occ. eigenvalues --   -0.32902  -0.32540  -0.32357  -0.32205  -0.32135
 Alpha  occ. eigenvalues --   -0.32004  -0.31951  -0.31653  -0.31237  -0.31182
 Alpha  occ. eigenvalues --   -0.31030  -0.30937  -0.30765  -0.30723  -0.30660
 Alpha  occ. eigenvalues --   -0.30570  -0.30319  -0.30310  -0.30231  -0.29885
 Alpha  occ. eigenvalues --   -0.29725  -0.29682  -0.29484  -0.29460  -0.29087
 Alpha  occ. eigenvalues --   -0.28843  -0.28534  -0.28215  -0.28155  -0.27710
 Alpha  occ. eigenvalues --   -0.27551  -0.27337  -0.26836  -0.26679  -0.26571
 Alpha  occ. eigenvalues --   -0.26314  -0.25945  -0.25893  -0.25194  -0.25093
 Alpha  occ. eigenvalues --   -0.25028  -0.24911  -0.24726  -0.24061  -0.23270
 Alpha  occ. eigenvalues --   -0.23140  -0.22130  -0.22028  -0.21250  -0.20856
 Alpha  occ. eigenvalues --   -0.20423  -0.20187  -0.18228  -0.17730  -0.17127
 Alpha  occ. eigenvalues --   -0.15960
 Alpha virt. eigenvalues --   -0.11366  -0.07018  -0.06140  -0.04747  -0.04355
 Alpha virt. eigenvalues --   -0.03241  -0.02545  -0.02122  -0.01241   0.00313
 Alpha virt. eigenvalues --    0.01648   0.01927   0.02039   0.02507   0.02737

 Mulliken charges:
               1
     1  Mg   0.682702
     2  C   -0.119468
     3  C   -0.063324
     4  C   -0.053899
     5  C   -0.054279
     6  N   -0.184634
     7  C   -0.036056
     8  C    0.043403
     9  C    0.013207
    10  C    0.036158
    11  C    0.101641
    12  C    0.088470
    13  C    0.151812
    14  C    0.024498
    15  O   -0.167097
    16  O   -0.280470
    17  N   -0.308555
    18  C    0.123407
    19  C   -0.112775
    20  C    0.002314
    21  C    0.240548
    22  C    0.150413
    23  C   -0.103811
    24  O   -0.138734
    25  C    0.141259
    26  N   -0.152396
    27  C   -0.076042
    28  C   -0.027306
    29  C    0.047815
    30  C    0.022575
    31  C    0.144929
    32  C    0.090160
    33  C    0.043648
    34  N   -0.243063
    35  C    0.074906
    36  C   -0.174230
    37  C    0.147112
    38  C    0.057632
    39  C    0.155471
    40  C   -0.103151
    41  O   -0.149204
    42  C    0.173455
    43  C    0.151604
    44  O   -0.218710
    45  O   -0.244581
    46  C    0.217542
    47  C    0.339196
    48  C   -0.102097
    49  C   -0.105894
    50  C    0.122880
    51  C    0.108351
    52  C    0.065028
    53  C    0.086801
    54  C   -0.073783
    55  C    0.118487
    56  C    0.131442
    57  C    0.019959
    58  C    0.112640
    59  C   -0.104667
    60  C    0.112328
    61  C    0.103498
    62  C    0.062897
    63  C    0.099809
    64  C   -0.100403
    65  C    0.081855
    66  C    0.077439
    67  H   -0.071479
    68  H   -0.053779
    69  H   -0.063997
    70  H   -0.012990
    71  H   -0.020731
    72  H   -0.018203
    73  H   -0.008893
    74  H   -0.007110
    75  H   -0.017308
    76  H   -0.014958
    77  H    0.011895
    78  H   -0.017201
    79  H    0.011929
    80  H    0.007786
    81  H   -0.013992
    82  H    0.000028
    83  H   -0.015633
    84  H   -0.005171
    85  H   -0.028135
    86  H   -0.038174
    87  H   -0.023473
    88  H    0.008069
    89  H    0.005244
    90  H   -0.010756
    91  H   -0.013445
    92  H   -0.017475
    93  H   -0.000447
    94  H    0.012612
    95  H   -0.018746
    96  H    0.016313
    97  H    0.001608
    98  H   -0.001616
    99  H    0.014239
   100  H    0.031541
   101  H    0.012462
   102  H    0.005263
   103  H   -0.025282
   104  H   -0.050492
   105  H    0.003052
   106  H    0.000230
   107  H   -0.014082
   108  H   -0.037290
   109  H   -0.021137
   110  H   -0.024004
   111  H   -0.014732
   112  H   -0.032492
   113  H   -0.033603
   114  H   -0.036252
   115  H   -0.018609
   116  H   -0.032033
   117  H   -0.009740
   118  H   -0.025379
   119  H   -0.036405
   120  H   -0.035328
   121  H   -0.035270
   122  H   -0.038948
   123  H   -0.025920
   124  H   -0.029900
   125  H   -0.012335
   126  H   -0.027049
   127  H   -0.013844
   128  H   -0.039654
   129  H   -0.032516
   130  H   -0.021172
   131  H   -0.038106
   132  H   -0.023606
   133  H   -0.031336
   134  H   -0.035587
   135  H   -0.007904
   136  H   -0.004741
   137  H   -0.004193
   138  H   -0.009367
   139  H   -0.029868
   140  H   -0.011048
 Sum of Mulliken charges =  -0.00000

 Dipole moment (field-independent basis, Debye):
    X=             -2.1687    Y=              3.3458    Z=              0.7624  Tot=              4.0595
 Quadrupole moment (field-independent basis, Debye-Ang):
   XX=           -376.5898   YY=           -419.2924   ZZ=           -414.4087
   XY=             -3.0901   XZ=             30.7920   YZ=              8.1421

 Normal termination of Gaussian 16 at Thu May  5 14:10:48 2022.
