 Gaussian 16, Revision A.03,
 Gaussian 16:  ES64L-G16RevA.03 25-Dec-2016

 -----------------------------------
 #p cam-b3lyp/Def2SVP td=(nstates=5)
 -----------------------------------

 -------------------------------------------------------
 step_901_chromophore_25 TDDFT with cam-b3lyp functional
 -------------------------------------------------------
 Symbolic Z-matrix:
 Charge =  0 Multiplicity = 1

                         Standard orientation:
 ---------------------------------------------------------------------
 Center     Atomic      Atomic             Coordinates (Angstroms)
 Number     Number       Type             X           Y           Z
 ---------------------------------------------------------------------
      1         12           0        5.865441    0.336644    0.457343
      2          6           0        3.335358   -2.244677    0.182297
      3          6           0        3.452355    2.705287   -0.133416
      4          6           0        8.305632    2.567581   -0.251062
      5          6           0        8.309511   -2.174387    0.253060
      6          7           0        3.645667    0.239811   -0.016369
      7          6           0        2.833058   -0.873607    0.003930
      8          6           0        1.271678   -0.435477   -0.106204
      9          6           0        1.418462    1.100570   -0.198677
     10          6           0        2.919409    1.365250   -0.011341
     11          6           0        0.781472    1.799361   -1.427928
     12          6           0        0.293449   -0.958911    1.063468
     13          6           0       -0.970272   -1.781425    0.624295
     14          6           0       -2.213686   -1.479173    1.343564
     15          8           0       -2.486226   -1.724914    2.472445
     16          8           0       -3.160269   -0.954313    0.512340
     17          7           0        5.838142    2.386042    0.019581
     18          6           0        4.766289    3.163314   -0.200715
     19          6           0        5.203129    4.624126   -0.255589
     20          6           0        6.687961    4.455520   -0.337888
     21          6           0        7.044264    3.050731   -0.240262
     22          6           0        4.242101    5.831330   -0.252303
     23          6           0        7.646115    5.570668   -0.599421
     24          8           0        8.792048    5.471911   -0.920461
     25          6           0        7.226889    6.970885   -0.415386
     26          7           0        8.075601    0.258831   -0.087731
     27          6           0        8.796043    1.320531   -0.174364
     28          6           0       10.283256    0.972580   -0.092107
     29          6           0       10.234659   -0.589839    0.314746
     30          6           0        8.775256   -0.895717    0.145407
     31          6           0       11.041781    1.412576   -1.352817
     32          6           0       11.032749   -0.877045    1.638856
     33          6           0       10.168355   -0.600710    2.936236
     34          7           0        5.906106   -1.796507    0.331818
     35          6           0        6.966099   -2.670344    0.346251
     36          6           0        6.414559   -4.022983    0.410158
     37          6           0        5.034559   -3.870891    0.329118
     38          6           0        4.771746   -2.504985    0.225779
     39          6           0        7.113006   -5.278755    0.248198
     40          6           0        3.779076   -4.546775    0.221452
     41          8           0        3.491387   -5.744922    0.208601
     42          6           0        2.601246   -3.520455    0.087181
     43          6           0        1.804728   -3.814084   -1.200300
     44          8           0        2.265599   -3.761118   -2.371409
     45          8           0        0.575285   -4.271530   -0.918626
     46          6           0       -0.240257   -4.854199   -1.980478
     47          6           0       -4.542019   -0.776862    1.026355
     48          6           0       -5.453428   -0.139382   -0.056508
     49          6           0       -6.295546   -0.726521   -0.877978
     50          6           0       -6.633399   -2.232993   -0.809506
     51          6           0       -6.967173   -0.014889   -2.048327
     52          6           0       -8.208620    0.814881   -1.759204
     53          6           0       -8.906362    1.133245   -3.126885
     54          6           0      -10.311998    0.436717   -3.314390
     55          6           0      -10.605966    0.005070   -4.731715
     56          6           0      -11.494103    1.335326   -2.726593
     57          6           0      -12.451172    0.565059   -1.791876
     58          6           0      -12.953773    1.273814   -0.507500
     59          6           0      -13.077138    0.313373    0.660737
     60          6           0      -13.975467   -0.917503    0.515274
     61          6           0      -13.447169    1.068395    2.042624
     62          6           0      -12.313346    0.806045    3.083421
     63          6           0      -11.539442    2.094111    3.496125
     64          6           0       -9.961594    1.876206    3.467047
     65          6           0       -9.401448    1.623348    1.982159
     66          6           0       -9.562543    0.733963    4.535326
     67          1           0        2.738709    3.529866   -0.198513
     68          1           0        9.175141    3.204638   -0.424070
     69          1           0        9.047054   -2.979128    0.227276
     70          1           0        0.779804   -0.814056   -1.002020
     71          1           0        0.898412    1.644118    0.590895
     72          1           0        0.037460    1.126424   -1.854657
     73          1           0        1.365870    1.959331   -2.333826
     74          1           0        0.291792    2.748128   -1.212617
     75          1           0       -0.030958   -0.119555    1.678897
     76          1           0        0.832638   -1.517465    1.828804
     77          1           0       -0.878248   -2.841470    0.857895
     78          1           0       -1.019075   -1.775451   -0.464488
     79          1           0        4.227353    6.273818   -1.248289
     80          1           0        4.430342    6.639738    0.455036
     81          1           0        3.217913    5.536846   -0.024371
     82          1           0        6.543450    7.223335   -1.225700
     83          1           0        8.034215    7.703466   -0.406981
     84          1           0        6.791501    7.088299    0.576775
     85          1           0       10.761779    1.492689    0.737498
     86          1           0       10.728369   -1.151444   -0.478585
     87          1           0       11.808935    0.669889   -1.571570
     88          1           0       11.607141    2.321971   -1.148448
     89          1           0       10.353494    1.419317   -2.197331
     90          1           0       11.856008   -0.162883    1.626216
     91          1           0       11.338491   -1.922335    1.692155
     92          1           0       10.439154    0.409064    3.247603
     93          1           0       10.539701   -1.279303    3.703593
     94          1           0        9.093663   -0.540755    2.764707
     95          1           0        8.086752   -5.170012    0.726615
     96          1           0        7.222353   -5.489497   -0.815716
     97          1           0        6.675344   -6.166643    0.703486
     98          1           0        2.050469   -3.453938    1.024928
     99          1           0       -1.000327   -5.494280   -1.533515
    100          1           0        0.362775   -5.443490   -2.670518
    101          1           0       -0.801318   -4.088128   -2.514147
    102          1           0       -4.691995   -0.149235    1.904215
    103          1           0       -4.878389   -1.786812    1.260883
    104          1           0       -5.324766    0.921257   -0.269801
    105          1           0       -6.718059   -2.582305    0.219455
    106          1           0       -5.841023   -2.837306   -1.251147
    107          1           0       -7.516423   -2.469800   -1.403950
    108          1           0       -7.307875   -0.687133   -2.836212
    109          1           0       -6.241887    0.620535   -2.555848
    110          1           0       -7.936171    1.753795   -1.279181
    111          1           0       -8.962648    0.307896   -1.155963
    112          1           0       -8.296350    0.908748   -4.002029
    113          1           0       -9.023541    2.210833   -3.014750
    114          1           0      -10.295050   -0.466411   -2.704663
    115          1           0      -11.143942   -0.933913   -4.865602
    116          1           0       -9.645168   -0.239742   -5.184463
    117          1           0      -11.114419    0.816270   -5.252506
    118          1           0      -12.209357    1.755828   -3.433040
    119          1           0      -10.979061    2.161926   -2.238304
    120          1           0      -12.043466   -0.399589   -1.487718
    121          1           0      -13.383007    0.299431   -2.289998
    122          1           0      -13.938392    1.638225   -0.800878
    123          1           0      -12.254930    2.075851   -0.271859
    124          1           0      -12.061842   -0.077677    0.725625
    125          1           0      -13.558419   -1.715202   -0.099733
    126          1           0      -14.910995   -0.635695    0.032379
    127          1           0      -14.252457   -1.250968    1.514947
    128          1           0      -14.381244    0.684590    2.454682
    129          1           0      -13.612056    2.131310    1.867383
    130          1           0      -11.690589   -0.044680    2.809695
    131          1           0      -12.844439    0.384029    3.936562
    132          1           0      -11.899957    2.548248    4.418494
    133          1           0      -11.644598    2.868838    2.735836
    134          1           0       -9.465314    2.772510    3.837649
    135          1           0      -10.223307    1.720093    1.273068
    136          1           0       -9.011308    0.609974    1.885350
    137          1           0       -8.626665    2.358193    1.759242
    138          1           0       -8.883792    1.163660    5.271966
    139          1           0       -9.048491   -0.107985    4.071641
    140          1           0      -10.381230    0.189775    5.005281
 ---------------------------------------------------------------------

 SCF Done:  E(RCAM-B3LYP) =  -3007.13406724     A.U. after   18 cycles

 Excitation energies and oscillator strengths:

 Excited State   1:      Singlet-A      1.8378 eV  674.65 nm  f=0.3728  <S**2>=0.000
     245 -> 248        0.19512
     246 -> 247        0.68086
     245 <- 248        0.10536
 This state for optimization and/or second-order correction.
 Total Energy, E(TD-HF/TD-DFT) =  -3007.06653054
 Copying the excited state density for this state as the 1-particle RhoCI density.

 Excited State   2:      Singlet-A      2.2572 eV  549.28 nm  f=0.0885  <S**2>=0.000
     245 -> 247        0.63140
     246 -> 248       -0.30447

 Excited State   3:      Singlet-A      3.3853 eV  366.24 nm  f=0.0911  <S**2>=0.000
     241 -> 247       -0.10956
     241 -> 250       -0.10062
     242 -> 247       -0.21917
     243 -> 247        0.52845
     246 -> 248        0.32333

 Excited State   4:      Singlet-A      3.4514 eV  359.23 nm  f=0.0057  <S**2>=0.000
     241 -> 247        0.57141
     241 -> 250        0.25117
     241 -> 251        0.15257
     243 -> 247        0.15206
     244 -> 247       -0.16657

 Excited State   5:      Singlet-A      3.5164 eV  352.59 nm  f=0.1045  <S**2>=0.000
     242 -> 247        0.26943
     242 -> 250       -0.13765
     242 -> 251        0.14541
     244 -> 247        0.48849
     244 -> 250       -0.11488
     245 -> 247        0.11187
     246 -> 248        0.26186

 The electronic state is 1-A.
 Alpha  occ. eigenvalues --  -46.90761 -19.25941 -19.23768 -19.19207 -19.19056
 Alpha  occ. eigenvalues --  -19.18362 -19.17730 -14.42906 -14.41114 -14.39919
 Alpha  occ. eigenvalues --  -14.39232 -10.40046 -10.38366 -10.34152 -10.34144
 Alpha  occ. eigenvalues --  -10.32246 -10.32188 -10.32110 -10.31862 -10.31258
 Alpha  occ. eigenvalues --  -10.31230 -10.30911 -10.29778 -10.29758 -10.29424
 Alpha  occ. eigenvalues --  -10.29154 -10.28712 -10.28604 -10.28518 -10.28298
 Alpha  occ. eigenvalues --  -10.28283 -10.28271 -10.28017 -10.27308 -10.27258
 Alpha  occ. eigenvalues --  -10.27257 -10.27193 -10.27092 -10.26974 -10.26790
 Alpha  occ. eigenvalues --  -10.26623 -10.26614 -10.26398 -10.26154 -10.25962
 Alpha  occ. eigenvalues --  -10.25902 -10.25714 -10.25700 -10.25537 -10.25529
 Alpha  occ. eigenvalues --  -10.25425 -10.25294 -10.25224 -10.25146 -10.25123
 Alpha  occ. eigenvalues --  -10.25114 -10.24915 -10.24854 -10.24835 -10.24771
 Alpha  occ. eigenvalues --  -10.24484 -10.24478 -10.24474 -10.24470 -10.24322
 Alpha  occ. eigenvalues --  -10.23844  -3.18980  -1.93850  -1.93455  -1.93256
 Alpha  occ. eigenvalues --   -1.16696  -1.16675  -1.11647  -1.08425  -1.07571
 Alpha  occ. eigenvalues --   -1.05956  -1.05043  -1.03939  -1.03201  -1.02538
 Alpha  occ. eigenvalues --   -0.92454  -0.90604  -0.89724  -0.89479  -0.89178
 Alpha  occ. eigenvalues --   -0.88156  -0.87934  -0.87319  -0.86679  -0.86526
 Alpha  occ. eigenvalues --   -0.86416  -0.85991  -0.84323  -0.83710  -0.83175
 Alpha  occ. eigenvalues --   -0.82348  -0.82058  -0.81851  -0.80739  -0.80109
 Alpha  occ. eigenvalues --   -0.79715  -0.78593  -0.78094  -0.77367  -0.76393
 Alpha  occ. eigenvalues --   -0.75884  -0.75135  -0.75069  -0.74982  -0.73847
 Alpha  occ. eigenvalues --   -0.73497  -0.72508  -0.71805  -0.70864  -0.69745
 Alpha  occ. eigenvalues --   -0.68733  -0.68536  -0.67697  -0.67001  -0.65866
 Alpha  occ. eigenvalues --   -0.65556  -0.65542  -0.65028  -0.64361  -0.63750
 Alpha  occ. eigenvalues --   -0.63027  -0.62657  -0.62577  -0.61569  -0.60767
 Alpha  occ. eigenvalues --   -0.59815  -0.59609  -0.59330  -0.58832  -0.58004
 Alpha  occ. eigenvalues --   -0.57462  -0.57004  -0.56210  -0.55963  -0.55679
 Alpha  occ. eigenvalues --   -0.54873  -0.54862  -0.54719  -0.54353  -0.54254
 Alpha  occ. eigenvalues --   -0.54107  -0.53573  -0.53380  -0.53201  -0.53054
 Alpha  occ. eigenvalues --   -0.52779  -0.52276  -0.52065  -0.52050  -0.51888
 Alpha  occ. eigenvalues --   -0.51505  -0.51211  -0.50936  -0.50664  -0.50515
 Alpha  occ. eigenvalues --   -0.50355  -0.50268  -0.50094  -0.49816  -0.49693
 Alpha  occ. eigenvalues --   -0.49403  -0.49183  -0.48801  -0.48671  -0.48653
 Alpha  occ. eigenvalues --   -0.48462  -0.48152  -0.48014  -0.47758  -0.47744
 Alpha  occ. eigenvalues --   -0.47561  -0.47124  -0.46918  -0.46826  -0.46452
 Alpha  occ. eigenvalues --   -0.46269  -0.46219  -0.45989  -0.45781  -0.45409
 Alpha  occ. eigenvalues --   -0.45309  -0.45041  -0.45000  -0.44940  -0.44885
 Alpha  occ. eigenvalues --   -0.44707  -0.44250  -0.44118  -0.43939  -0.43665
 Alpha  occ. eigenvalues --   -0.43467  -0.43365  -0.43107  -0.43044  -0.42614
 Alpha  occ. eigenvalues --   -0.42544  -0.42444  -0.42299  -0.42212  -0.41939
 Alpha  occ. eigenvalues --   -0.41897  -0.41739  -0.41690  -0.41539  -0.41467
 Alpha  occ. eigenvalues --   -0.41106  -0.40958  -0.40848  -0.40700  -0.40270
 Alpha  occ. eigenvalues --   -0.39893  -0.39587  -0.39351  -0.39140  -0.38574
 Alpha  occ. eigenvalues --   -0.38391  -0.38164  -0.37587  -0.37392  -0.37295
 Alpha  occ. eigenvalues --   -0.37133  -0.36874  -0.36634  -0.36339  -0.36186
 Alpha  occ. eigenvalues --   -0.35923  -0.35817  -0.35434  -0.34197  -0.34064
 Alpha  occ. eigenvalues --   -0.33871  -0.33587  -0.33281  -0.30934  -0.30810
 Alpha  occ. eigenvalues --   -0.30324  -0.30124  -0.29939  -0.29160  -0.23951
 Alpha  occ. eigenvalues --   -0.21343
 Alpha virt. eigenvalues --   -0.08305  -0.02020   0.00290   0.00391   0.02640
 Alpha virt. eigenvalues --    0.04643   0.04908   0.05173   0.06492   0.07588
 Alpha virt. eigenvalues --    0.07863   0.08042   0.08379   0.08997   0.09065

 Mulliken charges:
               1
     1  Mg   0.809014
     2  C   -0.125895
     3  C   -0.086428
     4  C   -0.078138
     5  C   -0.054930
     6  N   -0.254199
     7  C   -0.000210
     8  C   -0.001118
     9  C   -0.044235
    10  C    0.067565
    11  C    0.042594
    12  C    0.034811
    13  C    0.079641
    14  C    0.109540
    15  O   -0.207853
    16  O   -0.345050
    17  N   -0.399234
    18  C    0.140429
    19  C   -0.114956
    20  C   -0.063456
    21  C    0.266403
    22  C    0.096027
    23  C   -0.021579
    24  O   -0.177107
    25  C    0.055406
    26  N   -0.223714
    27  C   -0.047496
    28  C   -0.075945
    29  C   -0.006911
    30  C    0.031240
    31  C    0.081594
    32  C    0.036782
    33  C   -0.014005
    34  N   -0.329539
    35  C    0.074175
    36  C   -0.170280
    37  C    0.059856
    38  C    0.089855
    39  C    0.100710
    40  C   -0.002370
    41  O   -0.191597
    42  C    0.091737
    43  C    0.232708
    44  O   -0.257332
    45  O   -0.308722
    46  C    0.179370
    47  C    0.309834
    48  C   -0.124141
    49  C   -0.129971
    50  C    0.062091
    51  C    0.048065
    52  C    0.023179
    53  C    0.029886
    54  C   -0.130480
    55  C    0.062658
    56  C    0.076840
    57  C   -0.029750
    58  C    0.067637
    59  C   -0.159310
    60  C    0.056005
    61  C    0.049252
    62  C    0.001327
    63  C    0.050090
    64  C   -0.153949
    65  C    0.032675
    66  C    0.017370
    67  H   -0.037845
    68  H   -0.011232
    69  H   -0.028645
    70  H    0.018706
    71  H    0.014459
    72  H    0.008222
    73  H    0.018782
    74  H    0.016795
    75  H    0.013354
    76  H    0.015714
    77  H    0.043842
    78  H    0.016459
    79  H    0.040060
    80  H    0.036812
    81  H    0.015874
    82  H    0.027216
    83  H    0.021982
    84  H    0.022450
    85  H    0.006120
    86  H   -0.001903
    87  H    0.003636
    88  H    0.031484
    89  H    0.030923
    90  H    0.015214
    91  H    0.013755
    92  H    0.003827
    93  H    0.023521
    94  H    0.032682
    95  H    0.002772
    96  H    0.040231
    97  H    0.028100
    98  H    0.040068
    99  H    0.036933
   100  H    0.056391
   101  H    0.032206
   102  H    0.032082
   103  H    0.004630
   104  H   -0.017039
   105  H    0.025377
   106  H    0.025815
   107  H    0.010825
   108  H   -0.007582
   109  H    0.009106
   110  H    0.001840
   111  H    0.007732
   112  H   -0.003843
   113  H   -0.004013
   114  H   -0.005886
   115  H    0.006950
   116  H   -0.008181
   117  H    0.013058
   118  H    0.003216
   119  H   -0.009212
   120  H   -0.010419
   121  H   -0.007124
   122  H   -0.010880
   123  H   -0.001532
   124  H   -0.002747
   125  H    0.011375
   126  H   -0.003188
   127  H    0.010091
   128  H   -0.009036
   129  H   -0.002668
   130  H    0.006039
   131  H   -0.008323
   132  H    0.005349
   133  H   -0.004645
   134  H   -0.002828
   135  H    0.006629
   136  H    0.015035
   137  H    0.018092
   138  H    0.014747
   139  H   -0.006059
   140  H    0.011788
 Sum of Mulliken charges =  -0.00000

 Dipole moment (field-independent basis, Debye):
    X=             -2.2895    Y=              5.0040    Z=              0.7171  Tot=              5.5494
 Quadrupole moment (field-independent basis, Debye-Ang):
   XX=           -374.8231   YY=           -414.2679   ZZ=           -415.0673
   XY=              6.2070   XZ=             31.4673   YZ=              8.2246

 Normal termination of Gaussian 16 at Thu May  5 13:07:49 2022.
