 Gaussian 16, Revision A.03,
 Gaussian 16:  ES64L-G16RevA.03 25-Dec-2016

 ---------------------------------
 #p PBE1PBE/Def2SVP td=(nstates=5)
 ---------------------------------

 -----------------------------------------------------
 step_901_chromophore_25 TDDFT with PBE1PBE functional
 -----------------------------------------------------
 Symbolic Z-matrix:
 Charge =  0 Multiplicity = 1

                         Standard orientation:
 ---------------------------------------------------------------------
 Center     Atomic      Atomic             Coordinates (Angstroms)
 Number     Number       Type             X           Y           Z
 ---------------------------------------------------------------------
      1         12           0        5.865441    0.336644    0.457343
      2          6           0        3.335358   -2.244677    0.182297
      3          6           0        3.452355    2.705287   -0.133416
      4          6           0        8.305632    2.567581   -0.251062
      5          6           0        8.309511   -2.174387    0.253060
      6          7           0        3.645667    0.239811   -0.016369
      7          6           0        2.833058   -0.873607    0.003930
      8          6           0        1.271678   -0.435477   -0.106204
      9          6           0        1.418462    1.100570   -0.198677
     10          6           0        2.919409    1.365250   -0.011341
     11          6           0        0.781472    1.799361   -1.427928
     12          6           0        0.293449   -0.958911    1.063468
     13          6           0       -0.970272   -1.781425    0.624295
     14          6           0       -2.213686   -1.479173    1.343564
     15          8           0       -2.486226   -1.724914    2.472445
     16          8           0       -3.160269   -0.954313    0.512340
     17          7           0        5.838142    2.386042    0.019581
     18          6           0        4.766289    3.163314   -0.200715
     19          6           0        5.203129    4.624126   -0.255589
     20          6           0        6.687961    4.455520   -0.337888
     21          6           0        7.044264    3.050731   -0.240262
     22          6           0        4.242101    5.831330   -0.252303
     23          6           0        7.646115    5.570668   -0.599421
     24          8           0        8.792048    5.471911   -0.920461
     25          6           0        7.226889    6.970885   -0.415386
     26          7           0        8.075601    0.258831   -0.087731
     27          6           0        8.796043    1.320531   -0.174364
     28          6           0       10.283256    0.972580   -0.092107
     29          6           0       10.234659   -0.589839    0.314746
     30          6           0        8.775256   -0.895717    0.145407
     31          6           0       11.041781    1.412576   -1.352817
     32          6           0       11.032749   -0.877045    1.638856
     33          6           0       10.168355   -0.600710    2.936236
     34          7           0        5.906106   -1.796507    0.331818
     35          6           0        6.966099   -2.670344    0.346251
     36          6           0        6.414559   -4.022983    0.410158
     37          6           0        5.034559   -3.870891    0.329118
     38          6           0        4.771746   -2.504985    0.225779
     39          6           0        7.113006   -5.278755    0.248198
     40          6           0        3.779076   -4.546775    0.221452
     41          8           0        3.491387   -5.744922    0.208601
     42          6           0        2.601246   -3.520455    0.087181
     43          6           0        1.804728   -3.814084   -1.200300
     44          8           0        2.265599   -3.761118   -2.371409
     45          8           0        0.575285   -4.271530   -0.918626
     46          6           0       -0.240257   -4.854199   -1.980478
     47          6           0       -4.542019   -0.776862    1.026355
     48          6           0       -5.453428   -0.139382   -0.056508
     49          6           0       -6.295546   -0.726521   -0.877978
     50          6           0       -6.633399   -2.232993   -0.809506
     51          6           0       -6.967173   -0.014889   -2.048327
     52          6           0       -8.208620    0.814881   -1.759204
     53          6           0       -8.906362    1.133245   -3.126885
     54          6           0      -10.311998    0.436717   -3.314390
     55          6           0      -10.605966    0.005070   -4.731715
     56          6           0      -11.494103    1.335326   -2.726593
     57          6           0      -12.451172    0.565059   -1.791876
     58          6           0      -12.953773    1.273814   -0.507500
     59          6           0      -13.077138    0.313373    0.660737
     60          6           0      -13.975467   -0.917503    0.515274
     61          6           0      -13.447169    1.068395    2.042624
     62          6           0      -12.313346    0.806045    3.083421
     63          6           0      -11.539442    2.094111    3.496125
     64          6           0       -9.961594    1.876206    3.467047
     65          6           0       -9.401448    1.623348    1.982159
     66          6           0       -9.562543    0.733963    4.535326
     67          1           0        2.738709    3.529866   -0.198513
     68          1           0        9.175141    3.204638   -0.424070
     69          1           0        9.047054   -2.979128    0.227276
     70          1           0        0.779804   -0.814056   -1.002020
     71          1           0        0.898412    1.644118    0.590895
     72          1           0        0.037460    1.126424   -1.854657
     73          1           0        1.365870    1.959331   -2.333826
     74          1           0        0.291792    2.748128   -1.212617
     75          1           0       -0.030958   -0.119555    1.678897
     76          1           0        0.832638   -1.517465    1.828804
     77          1           0       -0.878248   -2.841470    0.857895
     78          1           0       -1.019075   -1.775451   -0.464488
     79          1           0        4.227353    6.273818   -1.248289
     80          1           0        4.430342    6.639738    0.455036
     81          1           0        3.217913    5.536846   -0.024371
     82          1           0        6.543450    7.223335   -1.225700
     83          1           0        8.034215    7.703466   -0.406981
     84          1           0        6.791501    7.088299    0.576775
     85          1           0       10.761779    1.492689    0.737498
     86          1           0       10.728369   -1.151444   -0.478585
     87          1           0       11.808935    0.669889   -1.571570
     88          1           0       11.607141    2.321971   -1.148448
     89          1           0       10.353494    1.419317   -2.197331
     90          1           0       11.856008   -0.162883    1.626216
     91          1           0       11.338491   -1.922335    1.692155
     92          1           0       10.439154    0.409064    3.247603
     93          1           0       10.539701   -1.279303    3.703593
     94          1           0        9.093663   -0.540755    2.764707
     95          1           0        8.086752   -5.170012    0.726615
     96          1           0        7.222353   -5.489497   -0.815716
     97          1           0        6.675344   -6.166643    0.703486
     98          1           0        2.050469   -3.453938    1.024928
     99          1           0       -1.000327   -5.494280   -1.533515
    100          1           0        0.362775   -5.443490   -2.670518
    101          1           0       -0.801318   -4.088128   -2.514147
    102          1           0       -4.691995   -0.149235    1.904215
    103          1           0       -4.878389   -1.786812    1.260883
    104          1           0       -5.324766    0.921257   -0.269801
    105          1           0       -6.718059   -2.582305    0.219455
    106          1           0       -5.841023   -2.837306   -1.251147
    107          1           0       -7.516423   -2.469800   -1.403950
    108          1           0       -7.307875   -0.687133   -2.836212
    109          1           0       -6.241887    0.620535   -2.555848
    110          1           0       -7.936171    1.753795   -1.279181
    111          1           0       -8.962648    0.307896   -1.155963
    112          1           0       -8.296350    0.908748   -4.002029
    113          1           0       -9.023541    2.210833   -3.014750
    114          1           0      -10.295050   -0.466411   -2.704663
    115          1           0      -11.143942   -0.933913   -4.865602
    116          1           0       -9.645168   -0.239742   -5.184463
    117          1           0      -11.114419    0.816270   -5.252506
    118          1           0      -12.209357    1.755828   -3.433040
    119          1           0      -10.979061    2.161926   -2.238304
    120          1           0      -12.043466   -0.399589   -1.487718
    121          1           0      -13.383007    0.299431   -2.289998
    122          1           0      -13.938392    1.638225   -0.800878
    123          1           0      -12.254930    2.075851   -0.271859
    124          1           0      -12.061842   -0.077677    0.725625
    125          1           0      -13.558419   -1.715202   -0.099733
    126          1           0      -14.910995   -0.635695    0.032379
    127          1           0      -14.252457   -1.250968    1.514947
    128          1           0      -14.381244    0.684590    2.454682
    129          1           0      -13.612056    2.131310    1.867383
    130          1           0      -11.690589   -0.044680    2.809695
    131          1           0      -12.844439    0.384029    3.936562
    132          1           0      -11.899957    2.548248    4.418494
    133          1           0      -11.644598    2.868838    2.735836
    134          1           0       -9.465314    2.772510    3.837649
    135          1           0      -10.223307    1.720093    1.273068
    136          1           0       -9.011308    0.609974    1.885350
    137          1           0       -8.626665    2.358193    1.759242
    138          1           0       -8.883792    1.163660    5.271966
    139          1           0       -9.048491   -0.107985    4.071641
    140          1           0      -10.381230    0.189775    5.005281
 ---------------------------------------------------------------------

 SCF Done:  E(RPBE1PBE) =  -3005.32125522     A.U. after   16 cycles

 Excitation energies and oscillator strengths:

 Excited State   1:      Singlet-A      1.9324 eV  641.59 nm  f=0.3590  <S**2>=0.000
     245 -> 248        0.19713
     246 -> 247        0.68522
 This state for optimization and/or second-order correction.
 Total Energy, E(TD-HF/TD-DFT) =  -3005.25023919
 Copying the excited state density for this state as the 1-particle RhoCI density.

 Excited State   2:      Singlet-A      2.2401 eV  553.48 nm  f=0.0890  <S**2>=0.000
     245 -> 247        0.64655
     246 -> 248       -0.27438

 Excited State   3:      Singlet-A      2.8697 eV  432.05 nm  f=0.0001  <S**2>=0.000
     244 -> 247        0.67189
     244 -> 249        0.14593

 Excited State   4:      Singlet-A      2.9853 eV  415.31 nm  f=0.0001  <S**2>=0.000
     241 -> 247        0.18303
     242 -> 247        0.20309
     243 -> 247        0.61177
     243 -> 249       -0.12697

 Excited State   5:      Singlet-A      3.1191 eV  397.50 nm  f=0.0007  <S**2>=0.000
     241 -> 247       -0.13636
     242 -> 247        0.65128
     243 -> 247       -0.19221

 The electronic state is 1-A.
 Alpha  occ. eigenvalues --  -46.94135 -19.26664 -19.24480 -19.19593 -19.19327
 Alpha  occ. eigenvalues --  -19.18283 -19.18272 -14.42398 -14.40557 -14.39463
 Alpha  occ. eigenvalues --  -14.39051 -10.37183 -10.35389 -10.31573 -10.30951
 Alpha  occ. eigenvalues --  -10.29886 -10.29643 -10.29548 -10.29480 -10.28533
 Alpha  occ. eigenvalues --  -10.28505 -10.28192 -10.27718 -10.27346 -10.27302
 Alpha  occ. eigenvalues --  -10.27141 -10.26616 -10.26318 -10.26227 -10.26028
 Alpha  occ. eigenvalues --  -10.25751 -10.25709 -10.25606 -10.25015 -10.25003
 Alpha  occ. eigenvalues --  -10.24918 -10.24905 -10.24887 -10.24748 -10.24677
 Alpha  occ. eigenvalues --  -10.24364 -10.24320 -10.23892 -10.23801 -10.23518
 Alpha  occ. eigenvalues --  -10.23307 -10.23255 -10.23135 -10.23126 -10.23087
 Alpha  occ. eigenvalues --  -10.22996 -10.22932 -10.22737 -10.22682 -10.22577
 Alpha  occ. eigenvalues --  -10.22460 -10.22458 -10.22391 -10.22285 -10.22253
 Alpha  occ. eigenvalues --  -10.22021 -10.22014 -10.21935 -10.21865 -10.21865
 Alpha  occ. eigenvalues --  -10.21719  -3.15943  -1.88749  -1.88334  -1.88140
 Alpha  occ. eigenvalues --   -1.11573  -1.11531  -1.06114  -1.03439  -1.02478
 Alpha  occ. eigenvalues --   -1.00867  -0.99636  -0.98603  -0.98034  -0.97022
 Alpha  occ. eigenvalues --   -0.87001  -0.84739  -0.84013  -0.83595  -0.83365
 Alpha  occ. eigenvalues --   -0.82275  -0.82183  -0.81635  -0.80990  -0.80616
 Alpha  occ. eigenvalues --   -0.80530  -0.80225  -0.78515  -0.78080  -0.77424
 Alpha  occ. eigenvalues --   -0.76524  -0.76321  -0.75957  -0.74914  -0.74373
 Alpha  occ. eigenvalues --   -0.73878  -0.72726  -0.72411  -0.71774  -0.70758
 Alpha  occ. eigenvalues --   -0.70049  -0.69416  -0.69253  -0.69064  -0.68028
 Alpha  occ. eigenvalues --   -0.67778  -0.67044  -0.66187  -0.65263  -0.64107
 Alpha  occ. eigenvalues --   -0.63091  -0.62889  -0.61951  -0.61217  -0.60298
 Alpha  occ. eigenvalues --   -0.60168  -0.59737  -0.59498  -0.58934  -0.57882
 Alpha  occ. eigenvalues --   -0.57612  -0.57276  -0.56836  -0.55819  -0.55077
 Alpha  occ. eigenvalues --   -0.54463  -0.54113  -0.53749  -0.53407  -0.52729
 Alpha  occ. eigenvalues --   -0.52004  -0.51548  -0.50683  -0.50416  -0.50264
 Alpha  occ. eigenvalues --   -0.49396  -0.49302  -0.49205  -0.48868  -0.48731
 Alpha  occ. eigenvalues --   -0.48550  -0.48207  -0.48038  -0.47577  -0.47374
 Alpha  occ. eigenvalues --   -0.47250  -0.46852  -0.46662  -0.46470  -0.46298
 Alpha  occ. eigenvalues --   -0.46017  -0.45934  -0.45651  -0.45261  -0.45020
 Alpha  occ. eigenvalues --   -0.44870  -0.44788  -0.44623  -0.44353  -0.44232
 Alpha  occ. eigenvalues --   -0.43910  -0.43877  -0.43419  -0.43248  -0.43137
 Alpha  occ. eigenvalues --   -0.43006  -0.42763  -0.42605  -0.42366  -0.42312
 Alpha  occ. eigenvalues --   -0.42144  -0.41712  -0.41561  -0.41487  -0.41169
 Alpha  occ. eigenvalues --   -0.41041  -0.40746  -0.40712  -0.40501  -0.40130
 Alpha  occ. eigenvalues --   -0.40024  -0.39925  -0.39730  -0.39672  -0.39622
 Alpha  occ. eigenvalues --   -0.39495  -0.39088  -0.38840  -0.38699  -0.38367
 Alpha  occ. eigenvalues --   -0.38265  -0.38155  -0.38006  -0.37581  -0.37463
 Alpha  occ. eigenvalues --   -0.37280  -0.37163  -0.37068  -0.36983  -0.36764
 Alpha  occ. eigenvalues --   -0.36634  -0.36624  -0.36539  -0.36439  -0.36194
 Alpha  occ. eigenvalues --   -0.35951  -0.35890  -0.35606  -0.35542  -0.35189
 Alpha  occ. eigenvalues --   -0.34836  -0.34368  -0.34238  -0.33943  -0.33427
 Alpha  occ. eigenvalues --   -0.33194  -0.33163  -0.32424  -0.32226  -0.32178
 Alpha  occ. eigenvalues --   -0.32122  -0.31951  -0.31547  -0.31389  -0.31130
 Alpha  occ. eigenvalues --   -0.30996  -0.30668  -0.30333  -0.29283  -0.29176
 Alpha  occ. eigenvalues --   -0.28881  -0.28596  -0.28586  -0.26488  -0.26187
 Alpha  occ. eigenvalues --   -0.25462  -0.25254  -0.24916  -0.24744  -0.20843
 Alpha  occ. eigenvalues --   -0.18913
 Alpha virt. eigenvalues --   -0.10875  -0.05474  -0.03832  -0.02487  -0.01770
 Alpha virt. eigenvalues --   -0.00125   0.00414   0.00767   0.01924   0.03497
 Alpha virt. eigenvalues --    0.04572   0.04705   0.04764   0.05486   0.05643

 Mulliken charges:
               1
     1  Mg   0.939602
     2  C   -0.120412
     3  C   -0.083829
     4  C   -0.064947
     5  C   -0.048465
     6  N   -0.356822
     7  C    0.076416
     8  C   -0.071600
     9  C   -0.118002
    10  C    0.108185
    11  C   -0.013459
    12  C   -0.010225
    13  C    0.000155
    14  C    0.182328
    15  O   -0.243478
    16  O   -0.376065
    17  N   -0.506144
    18  C    0.158620
    19  C   -0.134235
    20  C   -0.115924
    21  C    0.285183
    22  C    0.037761
    23  C    0.031647
    24  O   -0.217507
    25  C   -0.020715
    26  N   -0.332242
    27  C   -0.005896
    28  C   -0.147927
    29  C   -0.074540
    30  C    0.064075
    31  C    0.021468
    32  C   -0.032926
    33  C   -0.085994
    34  N   -0.453862
    35  C    0.107349
    36  C   -0.189179
    37  C    0.006034
    38  C    0.143024
    39  C    0.048681
    40  C    0.096832
    41  O   -0.234327
    42  C   -0.030294
    43  C    0.317149
    44  O   -0.291041
    45  O   -0.342520
    46  C    0.125724
    47  C    0.265890
    48  C   -0.135221
    49  C   -0.170835
    50  C   -0.000529
    51  C   -0.019875
    52  C   -0.038476
    53  C   -0.026619
    54  C   -0.217613
    55  C    0.004891
    56  C    0.025635
    57  C   -0.089938
    58  C    0.013577
    59  C   -0.247963
    60  C   -0.002739
    61  C   -0.004071
    62  C   -0.061340
    63  C   -0.009546
    64  C   -0.239825
    65  C   -0.034767
    66  C   -0.041335
    67  H   -0.003579
    68  H    0.021242
    69  H    0.003322
    70  H    0.056266
    71  H    0.051756
    72  H    0.035686
    73  H    0.046276
    74  H    0.042952
    75  H    0.045713
    76  H    0.046835
    77  H    0.076753
    78  H    0.049058
    79  H    0.065850
    80  H    0.061129
    81  H    0.040641
    82  H    0.054048
    83  H    0.048718
    84  H    0.048618
    85  H    0.043926
    86  H    0.036802
    87  H    0.031683
    88  H    0.057922
    89  H    0.059012
    90  H    0.049183
    91  H    0.045141
    92  H    0.032799
    93  H    0.051231
    94  H    0.063215
    95  H    0.031832
    96  H    0.069850
    97  H    0.056601
    98  H    0.079176
    99  H    0.058613
   100  H    0.076976
   101  H    0.053944
   102  H    0.058017
   103  H    0.031613
   104  H    0.013540
   105  H    0.051856
   106  H    0.054050
   107  H    0.037994
   108  H    0.026208
   109  H    0.041950
   110  H    0.034765
   111  H    0.042482
   112  H    0.026484
   113  H    0.029181
   114  H    0.032241
   115  H    0.034746
   116  H    0.019432
   117  H    0.040305
   118  H    0.034845
   119  H    0.022345
   120  H    0.020996
   121  H    0.026178
   122  H    0.022876
   123  H    0.031043
   124  H    0.036366
   125  H    0.037939
   126  H    0.025195
   127  H    0.038267
   128  H    0.023282
   129  H    0.028758
   130  H    0.037164
   131  H    0.024828
   132  H    0.037083
   133  H    0.028847
   134  H    0.035035
   135  H    0.040674
   136  H    0.041079
   137  H    0.044833
   138  H    0.042157
   139  H    0.020829
   140  H    0.038373
 Sum of Mulliken charges =  -0.00000

 Dipole moment (field-independent basis, Debye):
    X=             -2.3200    Y=              4.1589    Z=              0.7611  Tot=              4.8227
 Quadrupole moment (field-independent basis, Debye-Ang):
   XX=           -368.8169   YY=           -411.7555   ZZ=           -412.5993
   XY=              0.7965   XZ=             32.5112   YZ=              8.3727

 Normal termination of Gaussian 16 at Thu May  5 13:27:15 2022.
