 Gaussian 16, Revision A.03,
 Gaussian 16:  ES64L-G16RevA.03 25-Dec-2016

 --------------------------------
 #p wB97XD/Def2SVP td=(nstates=5)
 --------------------------------

 ----------------------------------------------------
 step_901_chromophore_25 TDDFT with wB97XD functional
 ----------------------------------------------------
 Symbolic Z-matrix:
 Charge =  0 Multiplicity = 1

                         Standard orientation:
 ---------------------------------------------------------------------
 Center     Atomic      Atomic             Coordinates (Angstroms)
 Number     Number       Type             X           Y           Z
 ---------------------------------------------------------------------
      1         12           0        5.865441    0.336644    0.457343
      2          6           0        3.335358   -2.244677    0.182297
      3          6           0        3.452355    2.705287   -0.133416
      4          6           0        8.305632    2.567581   -0.251062
      5          6           0        8.309511   -2.174387    0.253060
      6          7           0        3.645667    0.239811   -0.016369
      7          6           0        2.833058   -0.873607    0.003930
      8          6           0        1.271678   -0.435477   -0.106204
      9          6           0        1.418462    1.100570   -0.198677
     10          6           0        2.919409    1.365250   -0.011341
     11          6           0        0.781472    1.799361   -1.427928
     12          6           0        0.293449   -0.958911    1.063468
     13          6           0       -0.970272   -1.781425    0.624295
     14          6           0       -2.213686   -1.479173    1.343564
     15          8           0       -2.486226   -1.724914    2.472445
     16          8           0       -3.160269   -0.954313    0.512340
     17          7           0        5.838142    2.386042    0.019581
     18          6           0        4.766289    3.163314   -0.200715
     19          6           0        5.203129    4.624126   -0.255589
     20          6           0        6.687961    4.455520   -0.337888
     21          6           0        7.044264    3.050731   -0.240262
     22          6           0        4.242101    5.831330   -0.252303
     23          6           0        7.646115    5.570668   -0.599421
     24          8           0        8.792048    5.471911   -0.920461
     25          6           0        7.226889    6.970885   -0.415386
     26          7           0        8.075601    0.258831   -0.087731
     27          6           0        8.796043    1.320531   -0.174364
     28          6           0       10.283256    0.972580   -0.092107
     29          6           0       10.234659   -0.589839    0.314746
     30          6           0        8.775256   -0.895717    0.145407
     31          6           0       11.041781    1.412576   -1.352817
     32          6           0       11.032749   -0.877045    1.638856
     33          6           0       10.168355   -0.600710    2.936236
     34          7           0        5.906106   -1.796507    0.331818
     35          6           0        6.966099   -2.670344    0.346251
     36          6           0        6.414559   -4.022983    0.410158
     37          6           0        5.034559   -3.870891    0.329118
     38          6           0        4.771746   -2.504985    0.225779
     39          6           0        7.113006   -5.278755    0.248198
     40          6           0        3.779076   -4.546775    0.221452
     41          8           0        3.491387   -5.744922    0.208601
     42          6           0        2.601246   -3.520455    0.087181
     43          6           0        1.804728   -3.814084   -1.200300
     44          8           0        2.265599   -3.761118   -2.371409
     45          8           0        0.575285   -4.271530   -0.918626
     46          6           0       -0.240257   -4.854199   -1.980478
     47          6           0       -4.542019   -0.776862    1.026355
     48          6           0       -5.453428   -0.139382   -0.056508
     49          6           0       -6.295546   -0.726521   -0.877978
     50          6           0       -6.633399   -2.232993   -0.809506
     51          6           0       -6.967173   -0.014889   -2.048327
     52          6           0       -8.208620    0.814881   -1.759204
     53          6           0       -8.906362    1.133245   -3.126885
     54          6           0      -10.311998    0.436717   -3.314390
     55          6           0      -10.605966    0.005070   -4.731715
     56          6           0      -11.494103    1.335326   -2.726593
     57          6           0      -12.451172    0.565059   -1.791876
     58          6           0      -12.953773    1.273814   -0.507500
     59          6           0      -13.077138    0.313373    0.660737
     60          6           0      -13.975467   -0.917503    0.515274
     61          6           0      -13.447169    1.068395    2.042624
     62          6           0      -12.313346    0.806045    3.083421
     63          6           0      -11.539442    2.094111    3.496125
     64          6           0       -9.961594    1.876206    3.467047
     65          6           0       -9.401448    1.623348    1.982159
     66          6           0       -9.562543    0.733963    4.535326
     67          1           0        2.738709    3.529866   -0.198513
     68          1           0        9.175141    3.204638   -0.424070
     69          1           0        9.047054   -2.979128    0.227276
     70          1           0        0.779804   -0.814056   -1.002020
     71          1           0        0.898412    1.644118    0.590895
     72          1           0        0.037460    1.126424   -1.854657
     73          1           0        1.365870    1.959331   -2.333826
     74          1           0        0.291792    2.748128   -1.212617
     75          1           0       -0.030958   -0.119555    1.678897
     76          1           0        0.832638   -1.517465    1.828804
     77          1           0       -0.878248   -2.841470    0.857895
     78          1           0       -1.019075   -1.775451   -0.464488
     79          1           0        4.227353    6.273818   -1.248289
     80          1           0        4.430342    6.639738    0.455036
     81          1           0        3.217913    5.536846   -0.024371
     82          1           0        6.543450    7.223335   -1.225700
     83          1           0        8.034215    7.703466   -0.406981
     84          1           0        6.791501    7.088299    0.576775
     85          1           0       10.761779    1.492689    0.737498
     86          1           0       10.728369   -1.151444   -0.478585
     87          1           0       11.808935    0.669889   -1.571570
     88          1           0       11.607141    2.321971   -1.148448
     89          1           0       10.353494    1.419317   -2.197331
     90          1           0       11.856008   -0.162883    1.626216
     91          1           0       11.338491   -1.922335    1.692155
     92          1           0       10.439154    0.409064    3.247603
     93          1           0       10.539701   -1.279303    3.703593
     94          1           0        9.093663   -0.540755    2.764707
     95          1           0        8.086752   -5.170012    0.726615
     96          1           0        7.222353   -5.489497   -0.815716
     97          1           0        6.675344   -6.166643    0.703486
     98          1           0        2.050469   -3.453938    1.024928
     99          1           0       -1.000327   -5.494280   -1.533515
    100          1           0        0.362775   -5.443490   -2.670518
    101          1           0       -0.801318   -4.088128   -2.514147
    102          1           0       -4.691995   -0.149235    1.904215
    103          1           0       -4.878389   -1.786812    1.260883
    104          1           0       -5.324766    0.921257   -0.269801
    105          1           0       -6.718059   -2.582305    0.219455
    106          1           0       -5.841023   -2.837306   -1.251147
    107          1           0       -7.516423   -2.469800   -1.403950
    108          1           0       -7.307875   -0.687133   -2.836212
    109          1           0       -6.241887    0.620535   -2.555848
    110          1           0       -7.936171    1.753795   -1.279181
    111          1           0       -8.962648    0.307896   -1.155963
    112          1           0       -8.296350    0.908748   -4.002029
    113          1           0       -9.023541    2.210833   -3.014750
    114          1           0      -10.295050   -0.466411   -2.704663
    115          1           0      -11.143942   -0.933913   -4.865602
    116          1           0       -9.645168   -0.239742   -5.184463
    117          1           0      -11.114419    0.816270   -5.252506
    118          1           0      -12.209357    1.755828   -3.433040
    119          1           0      -10.979061    2.161926   -2.238304
    120          1           0      -12.043466   -0.399589   -1.487718
    121          1           0      -13.383007    0.299431   -2.289998
    122          1           0      -13.938392    1.638225   -0.800878
    123          1           0      -12.254930    2.075851   -0.271859
    124          1           0      -12.061842   -0.077677    0.725625
    125          1           0      -13.558419   -1.715202   -0.099733
    126          1           0      -14.910995   -0.635695    0.032379
    127          1           0      -14.252457   -1.250968    1.514947
    128          1           0      -14.381244    0.684590    2.454682
    129          1           0      -13.612056    2.131310    1.867383
    130          1           0      -11.690589   -0.044680    2.809695
    131          1           0      -12.844439    0.384029    3.936562
    132          1           0      -11.899957    2.548248    4.418494
    133          1           0      -11.644598    2.868838    2.735836
    134          1           0       -9.465314    2.772510    3.837649
    135          1           0      -10.223307    1.720093    1.273068
    136          1           0       -9.011308    0.609974    1.885350
    137          1           0       -8.626665    2.358193    1.759242
    138          1           0       -8.883792    1.163660    5.271966
    139          1           0       -9.048491   -0.107985    4.071641
    140          1           0      -10.381230    0.189775    5.005281
 ---------------------------------------------------------------------

 SCF Done:  E(RwB97XD) =  -3007.83459106     A.U. after   19 cycles

 Excitation energies and oscillator strengths:

 Excited State   1:      Singlet-A      1.8092 eV  685.29 nm  f=0.3724  <S**2>=0.000
     245 -> 248        0.19706
     246 -> 247        0.67912
     245 <- 248        0.11237
 This state for optimization and/or second-order correction.
 Total Energy, E(TD-HF/TD-DFT) =  -3007.76810307
 Copying the excited state density for this state as the 1-particle RhoCI density.

 Excited State   2:      Singlet-A      2.2075 eV  561.64 nm  f=0.0863  <S**2>=0.000
     245 -> 247        0.62875
     246 -> 248       -0.30564

 Excited State   3:      Singlet-A      3.3731 eV  367.57 nm  f=0.0827  <S**2>=0.000
     241 -> 247       -0.12674
     242 -> 247        0.52741
     242 -> 249        0.15129
     243 -> 247       -0.20917
     246 -> 248       -0.31575

 Excited State   4:      Singlet-A      3.4434 eV  360.06 nm  f=0.0157  <S**2>=0.000
     241 -> 247        0.57059
     241 -> 249        0.22852
     241 -> 251        0.10821
     242 -> 247        0.13935
     242 -> 249        0.16202
     242 -> 251        0.11864
     244 -> 247       -0.11016
     246 -> 248        0.11441

 Excited State   5:      Singlet-A      3.5604 eV  348.23 nm  f=0.2061  <S**2>=0.000
     242 -> 247        0.19774
     243 -> 249       -0.15211
     243 -> 251        0.13854
     244 -> 247        0.47479
     244 -> 249       -0.14184
     245 -> 247        0.15775
     246 -> 248        0.33118

 The electronic state is 1-A.
 Alpha  occ. eigenvalues --  -46.97098 -19.31123 -19.29030 -19.24151 -19.23992
 Alpha  occ. eigenvalues --  -19.23422 -19.22712 -14.47480 -14.45662 -14.44542
 Alpha  occ. eigenvalues --  -14.43752 -10.43891 -10.42156 -10.38125 -10.38099
 Alpha  occ. eigenvalues --  -10.36206 -10.36164 -10.35900 -10.35884 -10.35584
 Alpha  occ. eigenvalues --  -10.35371 -10.35048 -10.33802 -10.33694 -10.33494
 Alpha  occ. eigenvalues --  -10.33072 -10.32825 -10.32629 -10.32569 -10.32506
 Alpha  occ. eigenvalues --  -10.32265 -10.32197 -10.31998 -10.31398 -10.31307
 Alpha  occ. eigenvalues --  -10.31261 -10.31127 -10.31112 -10.30898 -10.30776
 Alpha  occ. eigenvalues --  -10.30605 -10.30585 -10.30280 -10.30157 -10.29904
 Alpha  occ. eigenvalues --  -10.29744 -10.29622 -10.29578 -10.29468 -10.29409
 Alpha  occ. eigenvalues --  -10.29343 -10.29261 -10.29143 -10.29120 -10.29093
 Alpha  occ. eigenvalues --  -10.29042 -10.28801 -10.28759 -10.28724 -10.28546
 Alpha  occ. eigenvalues --  -10.28396 -10.28392 -10.28313 -10.28299 -10.28139
 Alpha  occ. eigenvalues --  -10.27775  -3.22813  -1.96359  -1.95946  -1.95745
 Alpha  occ. eigenvalues --   -1.18873  -1.18843  -1.13905  -1.10583  -1.09793
 Alpha  occ. eigenvalues --   -1.08115  -1.07037  -1.05937  -1.05200  -1.04611
 Alpha  occ. eigenvalues --   -0.94388  -0.92408  -0.91684  -0.91256  -0.91005
 Alpha  occ. eigenvalues --   -0.89943  -0.89800  -0.89233  -0.88688  -0.88314
 Alpha  occ. eigenvalues --   -0.88271  -0.87868  -0.86165  -0.85624  -0.85059
 Alpha  occ. eigenvalues --   -0.84187  -0.83958  -0.83780  -0.82667  -0.81999
 Alpha  occ. eigenvalues --   -0.81542  -0.80590  -0.79990  -0.79274  -0.78326
 Alpha  occ. eigenvalues --   -0.77726  -0.77009  -0.76938  -0.76772  -0.75686
 Alpha  occ. eigenvalues --   -0.75398  -0.74464  -0.73753  -0.72821  -0.71642
 Alpha  occ. eigenvalues --   -0.70619  -0.70490  -0.69733  -0.68865  -0.67804
 Alpha  occ. eigenvalues --   -0.67533  -0.67397  -0.66954  -0.66359  -0.65561
 Alpha  occ. eigenvalues --   -0.65030  -0.64540  -0.64482  -0.63424  -0.62812
 Alpha  occ. eigenvalues --   -0.61778  -0.61527  -0.61244  -0.60776  -0.59945
 Alpha  occ. eigenvalues --   -0.59392  -0.58978  -0.58145  -0.57894  -0.57564
 Alpha  occ. eigenvalues --   -0.56858  -0.56758  -0.56635  -0.56236  -0.56140
 Alpha  occ. eigenvalues --   -0.56000  -0.55500  -0.55334  -0.55163  -0.54902
 Alpha  occ. eigenvalues --   -0.54708  -0.54154  -0.54033  -0.53981  -0.53785
 Alpha  occ. eigenvalues --   -0.53399  -0.53117  -0.52808  -0.52603  -0.52447
 Alpha  occ. eigenvalues --   -0.52255  -0.52162  -0.51992  -0.51800  -0.51594
 Alpha  occ. eigenvalues --   -0.51343  -0.51074  -0.50714  -0.50621  -0.50539
 Alpha  occ. eigenvalues --   -0.50374  -0.50038  -0.49920  -0.49745  -0.49617
 Alpha  occ. eigenvalues --   -0.49468  -0.48994  -0.48857  -0.48730  -0.48398
 Alpha  occ. eigenvalues --   -0.48185  -0.48023  -0.47911  -0.47709  -0.47278
 Alpha  occ. eigenvalues --   -0.47192  -0.46946  -0.46879  -0.46806  -0.46772
 Alpha  occ. eigenvalues --   -0.46627  -0.46133  -0.46005  -0.45874  -0.45532
 Alpha  occ. eigenvalues --   -0.45333  -0.45292  -0.45016  -0.44999  -0.44603
 Alpha  occ. eigenvalues --   -0.44438  -0.44394  -0.44170  -0.44092  -0.43842
 Alpha  occ. eigenvalues --   -0.43764  -0.43663  -0.43607  -0.43472  -0.43321
 Alpha  occ. eigenvalues --   -0.43009  -0.42852  -0.42692  -0.42571  -0.42157
 Alpha  occ. eigenvalues --   -0.41828  -0.41443  -0.41265  -0.40991  -0.40432
 Alpha  occ. eigenvalues --   -0.40233  -0.40075  -0.39431  -0.39239  -0.39127
 Alpha  occ. eigenvalues --   -0.39087  -0.38958  -0.38556  -0.38342  -0.38165
 Alpha  occ. eigenvalues --   -0.37862  -0.37659  -0.37273  -0.36136  -0.36064
 Alpha  occ. eigenvalues --   -0.35843  -0.35430  -0.35409  -0.33044  -0.32938
 Alpha  occ. eigenvalues --   -0.32366  -0.32173  -0.31986  -0.31236  -0.25887
 Alpha  occ. eigenvalues --   -0.23169
 Alpha virt. eigenvalues --   -0.06630  -0.00105   0.02434   0.03523   0.04754
 Alpha virt. eigenvalues --    0.06816   0.07123   0.07509   0.08826   0.10326
 Alpha virt. eigenvalues --    0.11020   0.11293   0.11348   0.12089   0.12395

 Mulliken charges:
               1
     1  Mg   0.935471
     2  C   -0.125695
     3  C   -0.098615
     4  C   -0.087427
     5  C   -0.060898
     6  N   -0.322961
     7  C    0.040048
     8  C   -0.043255
     9  C   -0.094471
    10  C    0.094939
    11  C   -0.004585
    12  C   -0.002828
    13  C    0.017929
    14  C    0.171727
    15  O   -0.240252
    16  O   -0.374984
    17  N   -0.480029
    18  C    0.158574
    19  C   -0.128494
    20  C   -0.106346
    21  C    0.284905
    22  C    0.048839
    23  C    0.029611
    24  O   -0.209977
    25  C   -0.008419
    26  N   -0.292938
    27  C   -0.017029
    28  C   -0.124892
    29  C   -0.051066
    30  C    0.046933
    31  C    0.030505
    32  C   -0.015434
    33  C   -0.067457
    34  N   -0.415998
    35  C    0.088425
    36  C   -0.185253
    37  C    0.011903
    38  C    0.120954
    39  C    0.058242
    40  C    0.076151
    41  O   -0.227988
    42  C    0.016612
    43  C    0.292746
    44  O   -0.285458
    45  O   -0.339652
    46  C    0.139894
    47  C    0.281543
    48  C   -0.146817
    49  C   -0.158081
    50  C    0.012217
    51  C    0.003514
    52  C   -0.019711
    53  C   -0.009285
    54  C   -0.186189
    55  C    0.017398
    56  C    0.038157
    57  C   -0.068669
    58  C    0.027307
    59  C   -0.210325
    60  C    0.008337
    61  C    0.009329
    62  C   -0.046610
    63  C    0.009026
    64  C   -0.212736
    65  C   -0.012119
    66  C   -0.031044
    67  H   -0.013775
    68  H    0.015563
    69  H   -0.002062
    70  H    0.041460
    71  H    0.041291
    72  H    0.030284
    73  H    0.040883
    74  H    0.038376
    75  H    0.037558
    76  H    0.039727
    77  H    0.069655
    78  H    0.042233
    79  H    0.063023
    80  H    0.058903
    81  H    0.039113
    82  H    0.048664
    83  H    0.049003
    84  H    0.042811
    85  H    0.032342
    86  H    0.026097
    87  H    0.026577
    88  H    0.053252
    89  H    0.053337
    90  H    0.039485
    91  H    0.038852
    92  H    0.024948
    93  H    0.046663
    94  H    0.052740
    95  H    0.023422
    96  H    0.062954
    97  H    0.051927
    98  H    0.069114
    99  H    0.055001
   100  H    0.073639
   101  H    0.049485
   102  H    0.054227
   103  H    0.025698
   104  H    0.010734
   105  H    0.045861
   106  H    0.048828
   107  H    0.032770
   108  H    0.014640
   109  H    0.034430
   110  H    0.026594
   111  H    0.027780
   112  H    0.016966
   113  H    0.020444
   114  H    0.016777
   115  H    0.029900
   116  H    0.012099
   117  H    0.033681
   118  H    0.027623
   119  H    0.011201
   120  H    0.006281
   121  H    0.017883
   122  H    0.014206
   123  H    0.019440
   124  H    0.017000
   125  H    0.033227
   126  H    0.018206
   127  H    0.031348
   128  H    0.015557
   129  H    0.020552
   130  H    0.025982
   131  H    0.017433
   132  H    0.031192
   133  H    0.016827
   134  H    0.025768
   135  H    0.022280
   136  H    0.033575
   137  H    0.039951
   138  H    0.037410
   139  H    0.014103
   140  H    0.031737
 Sum of Mulliken charges =  -0.00000

 Dipole moment (field-independent basis, Debye):
    X=             -2.3233    Y=              5.2751    Z=              0.7167  Tot=              5.8085
 Quadrupole moment (field-independent basis, Debye-Ang):
   XX=           -369.3012   YY=           -409.6609   ZZ=           -412.2868
   XY=              7.6708   XZ=             32.2790   YZ=              8.2786

 Normal termination of Gaussian 16 at Thu May  5 13:57:04 2022.
