 Gaussian 16, Revision A.03,
 Gaussian 16:  ES64L-G16RevA.03 25-Dec-2016

 --------------------
 #p ZINDO=(nstates=5)
 --------------------

 -----------------------------
 step_901_chromophore_25 ZINDO
 -----------------------------
 Symbolic Z-matrix:
 Charge =  0 Multiplicity = 1

                         Standard orientation:
 ---------------------------------------------------------------------
 Center     Atomic      Atomic             Coordinates (Angstroms)
 Number     Number       Type             X           Y           Z
 ---------------------------------------------------------------------
      1         12           0        5.865441    0.336644    0.457343
      2          6           0        3.335358   -2.244677    0.182297
      3          6           0        3.452355    2.705287   -0.133416
      4          6           0        8.305632    2.567581   -0.251062
      5          6           0        8.309511   -2.174387    0.253060
      6          7           0        3.645667    0.239811   -0.016369
      7          6           0        2.833058   -0.873607    0.003930
      8          6           0        1.271678   -0.435477   -0.106204
      9          6           0        1.418462    1.100570   -0.198677
     10          6           0        2.919409    1.365250   -0.011341
     11          6           0        0.781472    1.799361   -1.427928
     12          6           0        0.293449   -0.958911    1.063468
     13          6           0       -0.970272   -1.781425    0.624295
     14          6           0       -2.213686   -1.479173    1.343564
     15          8           0       -2.486226   -1.724914    2.472445
     16          8           0       -3.160269   -0.954313    0.512340
     17          7           0        5.838142    2.386042    0.019581
     18          6           0        4.766289    3.163314   -0.200715
     19          6           0        5.203129    4.624126   -0.255589
     20          6           0        6.687961    4.455520   -0.337888
     21          6           0        7.044264    3.050731   -0.240262
     22          6           0        4.242101    5.831330   -0.252303
     23          6           0        7.646115    5.570668   -0.599421
     24          8           0        8.792048    5.471911   -0.920461
     25          6           0        7.226889    6.970885   -0.415386
     26          7           0        8.075601    0.258831   -0.087731
     27          6           0        8.796043    1.320531   -0.174364
     28          6           0       10.283256    0.972580   -0.092107
     29          6           0       10.234659   -0.589839    0.314746
     30          6           0        8.775256   -0.895717    0.145407
     31          6           0       11.041781    1.412576   -1.352817
     32          6           0       11.032749   -0.877045    1.638856
     33          6           0       10.168355   -0.600710    2.936236
     34          7           0        5.906106   -1.796507    0.331818
     35          6           0        6.966099   -2.670344    0.346251
     36          6           0        6.414559   -4.022983    0.410158
     37          6           0        5.034559   -3.870891    0.329118
     38          6           0        4.771746   -2.504985    0.225779
     39          6           0        7.113006   -5.278755    0.248198
     40          6           0        3.779076   -4.546775    0.221452
     41          8           0        3.491387   -5.744922    0.208601
     42          6           0        2.601246   -3.520455    0.087181
     43          6           0        1.804728   -3.814084   -1.200300
     44          8           0        2.265599   -3.761118   -2.371409
     45          8           0        0.575285   -4.271530   -0.918626
     46          6           0       -0.240257   -4.854199   -1.980478
     47          6           0       -4.542019   -0.776862    1.026355
     48          6           0       -5.453428   -0.139382   -0.056508
     49          6           0       -6.295546   -0.726521   -0.877978
     50          6           0       -6.633399   -2.232993   -0.809506
     51          6           0       -6.967173   -0.014889   -2.048327
     52          6           0       -8.208620    0.814881   -1.759204
     53          6           0       -8.906362    1.133245   -3.126885
     54          6           0      -10.311998    0.436717   -3.314390
     55          6           0      -10.605966    0.005070   -4.731715
     56          6           0      -11.494103    1.335326   -2.726593
     57          6           0      -12.451172    0.565059   -1.791876
     58          6           0      -12.953773    1.273814   -0.507500
     59          6           0      -13.077138    0.313373    0.660737
     60          6           0      -13.975467   -0.917503    0.515274
     61          6           0      -13.447169    1.068395    2.042624
     62          6           0      -12.313346    0.806045    3.083421
     63          6           0      -11.539442    2.094111    3.496125
     64          6           0       -9.961594    1.876206    3.467047
     65          6           0       -9.401448    1.623348    1.982159
     66          6           0       -9.562543    0.733963    4.535326
     67          1           0        2.738709    3.529866   -0.198513
     68          1           0        9.175141    3.204638   -0.424070
     69          1           0        9.047054   -2.979128    0.227276
     70          1           0        0.779804   -0.814056   -1.002020
     71          1           0        0.898412    1.644118    0.590895
     72          1           0        0.037460    1.126424   -1.854657
     73          1           0        1.365870    1.959331   -2.333826
     74          1           0        0.291792    2.748128   -1.212617
     75          1           0       -0.030958   -0.119555    1.678897
     76          1           0        0.832638   -1.517465    1.828804
     77          1           0       -0.878248   -2.841470    0.857895
     78          1           0       -1.019075   -1.775451   -0.464488
     79          1           0        4.227353    6.273818   -1.248289
     80          1           0        4.430342    6.639738    0.455036
     81          1           0        3.217913    5.536846   -0.024371
     82          1           0        6.543450    7.223335   -1.225700
     83          1           0        8.034215    7.703466   -0.406981
     84          1           0        6.791501    7.088299    0.576775
     85          1           0       10.761779    1.492689    0.737498
     86          1           0       10.728369   -1.151444   -0.478585
     87          1           0       11.808935    0.669889   -1.571570
     88          1           0       11.607141    2.321971   -1.148448
     89          1           0       10.353494    1.419317   -2.197331
     90          1           0       11.856008   -0.162883    1.626216
     91          1           0       11.338491   -1.922335    1.692155
     92          1           0       10.439154    0.409064    3.247603
     93          1           0       10.539701   -1.279303    3.703593
     94          1           0        9.093663   -0.540755    2.764707
     95          1           0        8.086752   -5.170012    0.726615
     96          1           0        7.222353   -5.489497   -0.815716
     97          1           0        6.675344   -6.166643    0.703486
     98          1           0        2.050469   -3.453938    1.024928
     99          1           0       -1.000327   -5.494280   -1.533515
    100          1           0        0.362775   -5.443490   -2.670518
    101          1           0       -0.801318   -4.088128   -2.514147
    102          1           0       -4.691995   -0.149235    1.904215
    103          1           0       -4.878389   -1.786812    1.260883
    104          1           0       -5.324766    0.921257   -0.269801
    105          1           0       -6.718059   -2.582305    0.219455
    106          1           0       -5.841023   -2.837306   -1.251147
    107          1           0       -7.516423   -2.469800   -1.403950
    108          1           0       -7.307875   -0.687133   -2.836212
    109          1           0       -6.241887    0.620535   -2.555848
    110          1           0       -7.936171    1.753795   -1.279181
    111          1           0       -8.962648    0.307896   -1.155963
    112          1           0       -8.296350    0.908748   -4.002029
    113          1           0       -9.023541    2.210833   -3.014750
    114          1           0      -10.295050   -0.466411   -2.704663
    115          1           0      -11.143942   -0.933913   -4.865602
    116          1           0       -9.645168   -0.239742   -5.184463
    117          1           0      -11.114419    0.816270   -5.252506
    118          1           0      -12.209357    1.755828   -3.433040
    119          1           0      -10.979061    2.161926   -2.238304
    120          1           0      -12.043466   -0.399589   -1.487718
    121          1           0      -13.383007    0.299431   -2.289998
    122          1           0      -13.938392    1.638225   -0.800878
    123          1           0      -12.254930    2.075851   -0.271859
    124          1           0      -12.061842   -0.077677    0.725625
    125          1           0      -13.558419   -1.715202   -0.099733
    126          1           0      -14.910995   -0.635695    0.032379
    127          1           0      -14.252457   -1.250968    1.514947
    128          1           0      -14.381244    0.684590    2.454682
    129          1           0      -13.612056    2.131310    1.867383
    130          1           0      -11.690589   -0.044680    2.809695
    131          1           0      -12.844439    0.384029    3.936562
    132          1           0      -11.899957    2.548248    4.418494
    133          1           0      -11.644598    2.868838    2.735836
    134          1           0       -9.465314    2.772510    3.837649
    135          1           0      -10.223307    1.720093    1.273068
    136          1           0       -9.011308    0.609974    1.885350
    137          1           0       -8.626665    2.358193    1.759242
    138          1           0       -8.883792    1.163660    5.271966
    139          1           0       -9.048491   -0.107985    4.071641
    140          1           0      -10.381230    0.189775    5.005281
 ---------------------------------------------------------------------

 SCF Done:  E(RZINDO/S) =  -474.158245133     A.U. after   19 cycles

 Excitation energies and oscillator strengths:

 Excited State   1:      Singlet-A      1.4176 eV  874.58 nm  f=0.5298  <S**2>=0.000
     175 ->178         0.17312
     176 ->177         0.66888
 This state for optimization and/or second-order correction.
 Total Energy, E(CIS/TDA) =  -474.106147721
 Copying the excited state density for this state as the 1-particle RhoCI density.

 Excited State   2:      Singlet-A      1.9258 eV  643.80 nm  f=0.0280  <S**2>=0.000
     175 ->177         0.53303
     176 ->178        -0.42673

 Excited State   3:      Singlet-A      2.7997 eV  442.84 nm  f=0.0174  <S**2>=0.000
     168 ->177         0.26434
     168 ->179        -0.31657
     168 ->181         0.14536
     168 ->186        -0.15347
     168 ->188        -0.14684
     169 ->177         0.22923
     169 ->179        -0.26267
     169 ->181         0.11474
     169 ->186        -0.12441
     169 ->188        -0.11836

 Excited State   4:      Singlet-A      2.8868 eV  429.48 nm  f=0.0480  <S**2>=0.000
     176 ->179        -0.13490
     176 ->180         0.67164

 Excited State   5:      Singlet-A      2.9324 eV  422.80 nm  f=0.7679  <S**2>=0.000
     172 ->177        -0.14026
     175 ->177         0.35666
     176 ->178         0.49100
     176 ->179        -0.14030
     176 ->180        -0.18153
     176 ->181        -0.11757

 The electronic state is 1-A.
 Alpha  occ. eigenvalues --   -1.83675  -1.81601  -1.78409  -1.74224  -1.71362
 Alpha  occ. eigenvalues --   -1.70054  -1.64516  -1.63187  -1.59955  -1.58905
 Alpha  occ. eigenvalues --   -1.53409  -1.50266  -1.47144  -1.46336  -1.45980
 Alpha  occ. eigenvalues --   -1.43817  -1.42178  -1.40462  -1.38149  -1.37890
 Alpha  occ. eigenvalues --   -1.35754  -1.33998  -1.33078  -1.32464  -1.29567
 Alpha  occ. eigenvalues --   -1.26082  -1.25848  -1.21932  -1.20600  -1.18292
 Alpha  occ. eigenvalues --   -1.15794  -1.15421  -1.15333  -1.14703  -1.12882
 Alpha  occ. eigenvalues --   -1.12284  -1.11888  -1.10573  -1.05453  -1.04837
 Alpha  occ. eigenvalues --   -1.02843  -1.00664  -0.99960  -0.98113  -0.97592
 Alpha  occ. eigenvalues --   -0.97008  -0.94955  -0.93703  -0.93361  -0.93163
 Alpha  occ. eigenvalues --   -0.91343  -0.90114  -0.88500  -0.87830  -0.85406
 Alpha  occ. eigenvalues --   -0.84774  -0.83964  -0.83559  -0.81496  -0.81261
 Alpha  occ. eigenvalues --   -0.79511  -0.79105  -0.77207  -0.77113  -0.76609
 Alpha  occ. eigenvalues --   -0.76025  -0.75285  -0.74938  -0.74131  -0.73752
 Alpha  occ. eigenvalues --   -0.73478  -0.72292  -0.72142  -0.71698  -0.71103
 Alpha  occ. eigenvalues --   -0.70475  -0.69017  -0.68674  -0.68163  -0.67703
 Alpha  occ. eigenvalues --   -0.67535  -0.67409  -0.66931  -0.65920  -0.65500
 Alpha  occ. eigenvalues --   -0.65389  -0.64858  -0.64168  -0.63914  -0.63648
 Alpha  occ. eigenvalues --   -0.63353  -0.62981  -0.62674  -0.62517  -0.62279
 Alpha  occ. eigenvalues --   -0.62061  -0.61028  -0.60827  -0.60560  -0.60109
 Alpha  occ. eigenvalues --   -0.59633  -0.59413  -0.59094  -0.58482  -0.57848
 Alpha  occ. eigenvalues --   -0.57494  -0.57142  -0.56973  -0.56838  -0.56068
 Alpha  occ. eigenvalues --   -0.55759  -0.55553  -0.55214  -0.55061  -0.54907
 Alpha  occ. eigenvalues --   -0.54077  -0.53898  -0.53646  -0.53114  -0.52877
 Alpha  occ. eigenvalues --   -0.52741  -0.52560  -0.51699  -0.51522  -0.51272
 Alpha  occ. eigenvalues --   -0.50948  -0.50735  -0.50391  -0.50202  -0.49897
 Alpha  occ. eigenvalues --   -0.49828  -0.49436  -0.49261  -0.49199  -0.48993
 Alpha  occ. eigenvalues --   -0.48818  -0.48599  -0.48440  -0.48301  -0.48174
 Alpha  occ. eigenvalues --   -0.47731  -0.47445  -0.47212  -0.47050  -0.46992
 Alpha  occ. eigenvalues --   -0.46620  -0.46263  -0.46201  -0.45781  -0.45692
 Alpha  occ. eigenvalues --   -0.45158  -0.44934  -0.44529  -0.44428  -0.44303
 Alpha  occ. eigenvalues --   -0.43951  -0.43449  -0.43329  -0.42298  -0.42277
 Alpha  occ. eigenvalues --   -0.41415  -0.41164  -0.40699  -0.39174  -0.38855
 Alpha  occ. eigenvalues --   -0.38371  -0.36916  -0.35105  -0.34720  -0.33950
 Alpha  occ. eigenvalues --   -0.33516  -0.33388  -0.32366  -0.31407  -0.26643
 Alpha  occ. eigenvalues --   -0.22119
 Alpha virt. eigenvalues --   -0.08096  -0.02499  -0.00603  -0.00011   0.01185
 Alpha virt. eigenvalues --    0.02321   0.02742   0.02952   0.04793   0.04849
 Alpha virt. eigenvalues --    0.05769   0.06095   0.06796   0.07010   0.08080

 Mulliken charges:
               1
     1  Mg   0.436301
     2  C   -0.029210
     3  C   -0.101222
     4  C   -0.059599
     5  C   -0.052423
     6  N   -0.258377
     7  C    0.053842
     8  C   -0.000942
     9  C    0.015086
    10  C    0.172346
    11  C   -0.052146
    12  C   -0.028596
    13  C    0.005459
    14  C    0.486168
    15  O   -0.515539
    16  O   -0.282806
    17  N   -0.344265
    18  C    0.150202
    19  C    0.015651
    20  C   -0.040726
    21  C    0.160976
    22  C   -0.029512
    23  C    0.332249
    24  O   -0.516030
    25  C   -0.026660
    26  N   -0.270485
    27  C    0.193359
    28  C   -0.007961
    29  C   -0.006171
    30  C    0.094167
    31  C   -0.047453
    32  C   -0.029710
    33  C   -0.064361
    34  N   -0.306118
    35  C    0.052820
    36  C    0.017757
    37  C   -0.056710
    38  C    0.088258
    39  C   -0.033782
    40  C    0.334894
    41  O   -0.540795
    42  C    0.062538
    43  C    0.492601
    44  O   -0.534078
    45  O   -0.257100
    46  C    0.080696
    47  C    0.106637
    48  C   -0.090661
    49  C    0.004107
    50  C   -0.049322
    51  C   -0.017067
    52  C   -0.029713
    53  C   -0.044345
    54  C   -0.012201
    55  C   -0.055505
    56  C   -0.039664
    57  C   -0.046091
    58  C   -0.030854
    59  C   -0.013713
    60  C   -0.053541
    61  C   -0.043100
    62  C   -0.035134
    63  C   -0.029977
    64  C   -0.021929
    65  C   -0.058635
    66  C   -0.067005
    67  H    0.020904
    68  H    0.039731
    69  H    0.022885
    70  H    0.038417
    71  H    0.029306
    72  H    0.014004
    73  H    0.024834
    74  H    0.021534
    75  H    0.023787
    76  H    0.027464
    77  H    0.045303
    78  H    0.037461
    79  H    0.035800
    80  H    0.036821
    81  H    0.026207
    82  H    0.037112
    83  H    0.035196
    84  H    0.024831
    85  H    0.027060
    86  H    0.019719
    87  H    0.013417
    88  H    0.030757
    89  H    0.032296
    90  H    0.026095
    91  H    0.026171
    92  H    0.008764
    93  H    0.025371
    94  H    0.036638
    95  H    0.010289
    96  H    0.036577
    97  H    0.030982
    98  H    0.060618
    99  H    0.031573
   100  H    0.056422
   101  H    0.036141
   102  H    0.051969
   103  H    0.043490
   104  H    0.023566
   105  H    0.026719
   106  H    0.026979
   107  H    0.020700
   108  H    0.019374
   109  H    0.019456
   110  H    0.019354
   111  H    0.025871
   112  H    0.025769
   113  H    0.015562
   114  H    0.019981
   115  H    0.019777
   116  H    0.010362
   117  H    0.022726
   118  H    0.023880
   119  H    0.019602
   120  H    0.015698
   121  H    0.012762
   122  H    0.017784
   123  H    0.021241
   124  H    0.015607
   125  H    0.020190
   126  H    0.012874
   127  H    0.020268
   128  H    0.018482
   129  H    0.021081
   130  H    0.029165
   131  H    0.008187
   132  H    0.026163
   133  H    0.010667
   134  H    0.016479
   135  H    0.021543
   136  H    0.022865
   137  H    0.021916
   138  H    0.019839
   139  H    0.012940
   140  H    0.023741
 Sum of Mulliken charges =  -0.00000

 Dipole moment (field-independent basis, Debye):
    X=             -3.2009    Y=              9.9416    Z=              1.1231  Tot=             10.5044
 N-N= 4.294335205989D+03 E-N= 0.000000000000D+00  KE=-9.262795794024D+03
 Leave Link  601 at Thu May  5 14:10:55 2022, MaxMem=  6710886400 cpu:               0.8 elap:               0.0
 (Enter /sw/apps/gaussian-16.0/g16/l9999.exe)
 1\1\GINC-BP1-COMPUTE067\SP\RZINDO CIS\STO-3G\C55H74Mg1N4O6\OF15641\05-
 May-2022\0\\#p ZINDO=(nstates=5)\\step_901_chromophore_25 ZINDO\\0,1\M
 g,0,-2.395,34.821,26.456\C,0,-3.411,32.898,29.356\C,0,-1.266,37.298,28
 .547\C,0,-2.369,36.951,23.83\C,0,-4.275,32.626,24.464\N,0,-2.417,35.11
 2,28.709\C,0,-2.791,34.195,29.668\C,0,-2.368,34.72,31.147\C,0,-1.719,3
 6.076,30.787\C,0,-1.719,36.118,29.252\C,0,-2.296,37.341,31.474\C,0,-1.
 444,33.732,32.024\C,0,-1.978,33.326,33.444\C,0,-0.979,33.292,34.519\O,

 Normal termination of Gaussian 16 at Thu May  5 14:10:55 2022.
