 Gaussian 16, Revision A.03,
 Gaussian 16:  ES64L-G16RevA.03 25-Dec-2016

 ------------------------------
 #p blyp/Def2SVP td=(nstates=5)
 ------------------------------

 --------------------------------------------------
 step_1651_chromophore_1 TDDFT with blyp functional
 --------------------------------------------------
 Symbolic Z-matrix:
 Charge =  0 Multiplicity = 1

                         Standard orientation:
 ---------------------------------------------------------------------
 Center     Atomic      Atomic             Coordinates (Angstroms)
 Number     Number       Type             X           Y           Z
 ---------------------------------------------------------------------
      1         12           0        6.099178    0.592130   -0.020625
      2          6           0        4.084186   -2.377622   -0.604308
      3          6           0        3.499439    2.469293   -0.992045
      4          6           0        8.194500    3.159527    0.056277
      5          6           0        8.722449   -1.562921    0.655691
      6          7           0        4.046304    0.096474   -0.683832
      7          6           0        3.384947   -1.129209   -0.888399
      8          6           0        1.892725   -0.934975   -1.358867
      9          6           0        1.877417    0.560135   -1.621737
     10          6           0        3.187473    1.127343   -1.056297
     11          6           0        1.630855    0.986728   -3.089338
     12          6           0        0.853050   -1.307529   -0.273380
     13          6           0       -0.654779   -1.095481   -0.639254
     14          6           0       -1.730148   -2.140543   -0.358253
     15          8           0       -1.899923   -3.276183   -0.891094
     16          8           0       -2.629750   -1.557743    0.594363
     17          7           0        5.870545    2.636117   -0.233694
     18          6           0        4.699425    3.226007   -0.589240
     19          6           0        4.912826    4.643399   -0.736827
     20          6           0        6.256346    4.864776   -0.285122
     21          6           0        6.874139    3.573860   -0.167827
     22          6           0        3.807180    5.583536   -1.183367
     23          6           0        6.952317    6.224769   -0.031609
     24          8           0        8.109489    6.302360    0.317233
     25          6           0        6.136097    7.489341   -0.113219
     26          7           0        8.090748    0.800662    0.353114
     27          6           0        8.795834    1.923278    0.176156
     28          6           0       10.308328    1.817259    0.229566
     29          6           0       10.465334    0.317459    0.664482
     30          6           0        8.967549   -0.184188    0.587089
     31          6           0       11.179828    2.190232   -1.010681
     32          6           0       11.049936    0.134376    2.075216
     33          6           0       10.163053   -0.241546    3.116156
     34          7           0        6.419002   -1.505667   -0.125842
     35          6           0        7.539762   -2.191205    0.322920
     36          6           0        7.324798   -3.639536    0.285744
     37          6           0        5.965887   -3.769628   -0.075224
     38          6           0        5.413256   -2.442683   -0.248285
     39          6           0        8.442615   -4.578038    0.472986
     40          6           0        4.900679   -4.673385   -0.185998
     41          8           0        4.713583   -5.865578    0.131118
     42          6           0        3.626113   -3.846137   -0.531551
     43          6           0        2.584165   -4.194425    0.481582
     44          8           0        2.476852   -3.687777    1.576758
     45          8           0        1.645487   -5.083567   -0.063894
     46          6           0        0.595954   -5.580445    0.832002
     47          6           0       -3.923643   -2.304247    0.786449
     48          6           0       -5.126658   -1.752451   -0.111449
     49          6           0       -6.323500   -2.370576   -0.553881
     50          6           0       -6.706091   -3.710085   -0.083687
     51          6           0       -7.288113   -1.574594   -1.433156
     52          6           0       -8.664844   -1.018398   -0.791194
     53          6           0       -8.424908   -0.317759    0.543763
     54          6           0       -9.311514    0.961702    0.751433
     55          6           0       -8.424419    2.273883    0.563573
     56          6           0      -10.081777    1.070286    2.114445
     57          6           0      -11.104837    2.217720    2.060336
     58          6           0      -12.380503    2.158244    3.011520
     59          6           0      -13.720854    2.256232    2.224523
     60          6           0      -14.814637    3.011114    3.077258
     61          6           0      -14.215415    0.884141    1.648058
     62          6           0      -14.676983    0.990659    0.195354
     63          6           0      -13.647906    0.479774   -0.911785
     64          6           0      -14.215280    0.647290   -2.406661
     65          6           0      -14.933885   -0.504102   -3.001495
     66          6           0      -12.973477    1.087974   -3.248943
     67          1           0        2.698424    3.129242   -1.329519
     68          1           0        8.867995    4.014221   -0.039657
     69          1           0        9.518020   -2.280820    0.863649
     70          1           0        1.596810   -1.525974   -2.226341
     71          1           0        1.035851    1.083098   -1.167026
     72          1           0        0.665793    1.482587   -3.193026
     73          1           0        1.829553    0.108100   -3.702743
     74          1           0        2.436149    1.686094   -3.314332
     75          1           0        1.151641   -0.843025    0.666107
     76          1           0        0.829070   -2.382200   -0.095485
     77          1           0       -0.685383   -0.915118   -1.713701
     78          1           0       -0.921452   -0.099495   -0.286813
     79          1           0        4.291484    6.408590   -1.705973
     80          1           0        3.128583    5.966706   -0.421272
     81          1           0        3.167532    5.009552   -1.854147
     82          1           0        6.034467    7.723617   -1.173048
     83          1           0        6.655310    8.229744    0.494554
     84          1           0        5.144990    7.276756    0.285171
     85          1           0       10.551225    2.471882    1.065798
     86          1           0       11.077915   -0.259226   -0.029417
     87          1           0       11.955198    1.462471   -1.252149
     88          1           0       11.779241    3.088209   -0.858737
     89          1           0       10.583045    2.340673   -1.909847
     90          1           0       11.488449    1.050973    2.469716
     91          1           0       11.895628   -0.554219    2.087746
     92          1           0       10.370572    0.331483    4.020186
     93          1           0       10.388941   -1.296434    3.272074
     94          1           0        9.132894    0.084852    2.973172
     95          1           0        8.888683   -4.434848    1.456764
     96          1           0        9.207542   -4.215974   -0.214175
     97          1           0        7.996133   -5.569326    0.391141
     98          1           0        3.258104   -4.128795   -1.517636
     99          1           0       -0.070298   -4.718349    0.844519
    100          1           0        0.992527   -5.817315    1.818820
    101          1           0        0.169467   -6.439809    0.314141
    102          1           0       -4.208511   -2.095020    1.817970
    103          1           0       -3.893881   -3.390975    0.712693
    104          1           0       -4.754844   -0.992966   -0.799719
    105          1           0       -7.066235   -4.276510   -0.942463
    106          1           0       -7.524241   -3.689331    0.637412
    107          1           0       -5.894793   -4.299110    0.343992
    108          1           0       -7.553471   -2.309795   -2.192310
    109          1           0       -6.745189   -0.728357   -1.852922
    110          1           0       -9.229867   -1.923539   -0.569043
    111          1           0       -9.296368   -0.467317   -1.487742
    112          1           0       -7.347399   -0.156167    0.567830
    113          1           0       -8.621204   -0.977812    1.387711
    114          1           0      -10.004690    1.179270   -0.060341
    115          1           0       -7.408163    2.091792    0.213343
    116          1           0       -8.328045    2.836642    1.491230
    117          1           0       -8.828997    2.967095   -0.174936
    118          1           0       -9.340653    1.198715    2.904064
    119          1           0      -10.727028    0.208388    2.283395
    120          1           0      -11.487028    2.320252    1.044306
    121          1           0      -10.633033    3.161418    2.334274
    122          1           0      -12.288549    2.918266    3.786922
    123          1           0      -12.341495    1.159947    3.447387
    124          1           0      -13.387744    2.845129    1.370019
    125          1           0      -14.446962    3.110798    4.098968
    126          1           0      -15.764915    2.478384    3.068623
    127          1           0      -15.094511    4.010406    2.744368
    128          1           0      -15.140003    0.671746    2.185536
    129          1           0      -13.644420   -0.014120    1.887126
    130          1           0      -14.967207    2.031716    0.054219
    131          1           0      -15.526144    0.343979   -0.025518
    132          1           0      -13.470666   -0.568167   -0.670145
    133          1           0      -12.690456    0.980741   -0.767926
    134          1           0      -14.985780    1.414354   -2.323616
    135          1           0      -14.998127   -1.296353   -2.255334
    136          1           0      -14.415908   -0.952883   -3.849847
    137          1           0      -15.941057   -0.252520   -3.333604
    138          1           0      -11.990582    1.142075   -2.779909
    139          1           0      -13.256684    2.108326   -3.509124
    140          1           0      -13.033228    0.461035   -4.138960
 ---------------------------------------------------------------------

 SCF Done:  E(RB-LYP) =  -3007.34189268     A.U. after   22 cycles

 Excitation energies and oscillator strengths:

 Excited State   1:      Singlet-A      1.7946 eV  690.89 nm  f=0.3141  <S**2>=0.000
     245 -> 248        0.19684
     246 -> 247        0.69092
     246 <- 247       -0.15258
 This state for optimization and/or second-order correction.
 Total Energy, E(TD-HF/TD-DFT) =  -3007.27594373
 Copying the excited state density for this state as the 1-particle RhoCI density.

 Excited State   2:      Singlet-A      1.8483 eV  670.80 nm  f=0.0002  <S**2>=0.000
     244 -> 247        0.70307

 Excited State   3:      Singlet-A      1.9016 eV  651.99 nm  f=0.0083  <S**2>=0.000
     243 -> 247        0.64927
     245 -> 247        0.26218

 Excited State   4:      Singlet-A      1.9822 eV  625.49 nm  f=0.0507  <S**2>=0.000
     243 -> 247       -0.27608
     245 -> 247        0.59187
     246 -> 248       -0.24193

 Excited State   5:      Singlet-A      2.1432 eV  578.50 nm  f=0.0000  <S**2>=0.000
     242 -> 247        0.70709

 The electronic state is 1-A.
 Alpha  occ. eigenvalues --  -46.26819 -18.82790 -18.80176 -18.78347 -18.76023
 Alpha  occ. eigenvalues --  -18.75650 -18.75171 -14.03940 -14.03736 -14.00940
 Alpha  occ. eigenvalues --  -14.00711 -10.05677 -10.02983  -9.99736  -9.99133
 Alpha  occ. eigenvalues --   -9.98631  -9.98111  -9.96852  -9.96648  -9.96304
 Alpha  occ. eigenvalues --   -9.96144  -9.95650  -9.95287  -9.95256  -9.94937
 Alpha  occ. eigenvalues --   -9.94910  -9.94377  -9.94203  -9.94041  -9.94001
 Alpha  occ. eigenvalues --   -9.93949  -9.93928  -9.93749  -9.93667  -9.93447
 Alpha  occ. eigenvalues --   -9.93323  -9.93288  -9.93272  -9.93047  -9.92840
 Alpha  occ. eigenvalues --   -9.92793  -9.92590  -9.92582  -9.92574  -9.92565
 Alpha  occ. eigenvalues --   -9.92368  -9.92329  -9.92232  -9.92218  -9.91937
 Alpha  occ. eigenvalues --   -9.91911  -9.91876  -9.91634  -9.91616  -9.91486
 Alpha  occ. eigenvalues --   -9.91262  -9.91193  -9.91088  -9.91062  -9.91025
 Alpha  occ. eigenvalues --   -9.91004  -9.90994  -9.90770  -9.90750  -9.90638
 Alpha  occ. eigenvalues --   -9.90525  -2.91547  -1.71982  -1.71430  -1.71254
 Alpha  occ. eigenvalues --   -0.95890  -0.95480  -0.92174  -0.89874  -0.88756
 Alpha  occ. eigenvalues --   -0.88708  -0.87857  -0.85492  -0.85260  -0.84310
 Alpha  occ. eigenvalues --   -0.75431  -0.73436  -0.73415  -0.73009  -0.72389
 Alpha  occ. eigenvalues --   -0.71933  -0.71420  -0.71151  -0.70762  -0.70476
 Alpha  occ. eigenvalues --   -0.69946  -0.69172  -0.68428  -0.67749  -0.67208
 Alpha  occ. eigenvalues --   -0.66054  -0.65809  -0.65166  -0.64842  -0.64244
 Alpha  occ. eigenvalues --   -0.63577  -0.63092  -0.62480  -0.61757  -0.60591
 Alpha  occ. eigenvalues --   -0.60411  -0.60376  -0.60019  -0.59144  -0.58879
 Alpha  occ. eigenvalues --   -0.58086  -0.57668  -0.56848  -0.55864  -0.55022
 Alpha  occ. eigenvalues --   -0.54126  -0.53655  -0.52286  -0.51952  -0.51531
 Alpha  occ. eigenvalues --   -0.51228  -0.50660  -0.50444  -0.49785  -0.49763
 Alpha  occ. eigenvalues --   -0.49281  -0.49136  -0.48921  -0.46913  -0.46606
 Alpha  occ. eigenvalues --   -0.46318  -0.45872  -0.45471  -0.45124  -0.44241
 Alpha  occ. eigenvalues --   -0.44037  -0.43719  -0.43613  -0.43259  -0.42211
 Alpha  occ. eigenvalues --   -0.42186  -0.41847  -0.41585  -0.41456  -0.41408
 Alpha  occ. eigenvalues --   -0.40898  -0.40488  -0.40274  -0.39944  -0.39885
 Alpha  occ. eigenvalues --   -0.39706  -0.39668  -0.39519  -0.39253  -0.39198
 Alpha  occ. eigenvalues --   -0.38810  -0.38786  -0.38336  -0.38270  -0.38082
 Alpha  occ. eigenvalues --   -0.38048  -0.37720  -0.37645  -0.37504  -0.37031
 Alpha  occ. eigenvalues --   -0.36911  -0.36763  -0.36673  -0.36617  -0.36513
 Alpha  occ. eigenvalues --   -0.36355  -0.36277  -0.36196  -0.35715  -0.35416
 Alpha  occ. eigenvalues --   -0.35360  -0.35320  -0.35140  -0.34946  -0.34813
 Alpha  occ. eigenvalues --   -0.34661  -0.34496  -0.34313  -0.34064  -0.34051
 Alpha  occ. eigenvalues --   -0.33916  -0.33803  -0.33352  -0.33257  -0.33012
 Alpha  occ. eigenvalues --   -0.32816  -0.32797  -0.32490  -0.32033  -0.31967
 Alpha  occ. eigenvalues --   -0.31772  -0.31582  -0.31564  -0.31497  -0.31424
 Alpha  occ. eigenvalues --   -0.31312  -0.31029  -0.30764  -0.30653  -0.30616
 Alpha  occ. eigenvalues --   -0.30450  -0.30258  -0.30132  -0.30027  -0.29851
 Alpha  occ. eigenvalues --   -0.29627  -0.29422  -0.29260  -0.29153  -0.29057
 Alpha  occ. eigenvalues --   -0.28987  -0.28546  -0.28458  -0.28124  -0.28010
 Alpha  occ. eigenvalues --   -0.27455  -0.27301  -0.26983  -0.26465  -0.26357
 Alpha  occ. eigenvalues --   -0.26184  -0.26181  -0.25707  -0.25574  -0.25157
 Alpha  occ. eigenvalues --   -0.25054  -0.24699  -0.24057  -0.23826  -0.23401
 Alpha  occ. eigenvalues --   -0.23329  -0.22816  -0.22231  -0.21085  -0.20893
 Alpha  occ. eigenvalues --   -0.20321  -0.19623  -0.18705  -0.18387  -0.17445
 Alpha  occ. eigenvalues --   -0.15956
 Alpha virt. eigenvalues --   -0.11747  -0.07210  -0.06609  -0.05131  -0.04574
 Alpha virt. eigenvalues --   -0.03630  -0.02478  -0.01887  -0.01064   0.00251
 Alpha virt. eigenvalues --    0.00776   0.00907   0.01722   0.01726   0.02420

 Mulliken charges:
               1
     1  Mg   0.702017
     2  C    0.015486
     3  C   -0.053048
     4  C   -0.042315
     5  C   -0.082840
     6  N   -0.241029
     7  C   -0.045812
     8  C    0.051274
     9  C   -0.027934
    10  C    0.067978
    11  C    0.140107
    12  C    0.082311
    13  C    0.129538
    14  C    0.142318
    15  O   -0.214595
    16  O   -0.300157
    17  N   -0.296351
    18  C    0.108468
    19  C   -0.152110
    20  C    0.041856
    21  C    0.062780
    22  C    0.157776
    23  C   -0.094637
    24  O   -0.150474
    25  C    0.126659
    26  N   -0.209996
    27  C    0.009179
    28  C    0.078808
    29  C    0.024078
    30  C    0.043621
    31  C    0.131496
    32  C    0.076570
    33  C    0.101957
    34  N   -0.269298
    35  C    0.116741
    36  C   -0.190946
    37  C    0.126674
    38  C    0.060758
    39  C    0.205015
    40  C   -0.074527
    41  O   -0.163202
    42  C    0.087728
    43  C    0.117482
    44  O   -0.179344
    45  O   -0.303237
    46  C    0.229880
    47  C    0.281206
    48  C   -0.078742
    49  C   -0.180090
    50  C    0.149275
    51  C    0.123933
    52  C    0.048628
    53  C    0.159690
    54  C   -0.098167
    55  C    0.065904
    56  C    0.131473
    57  C    0.016305
    58  C    0.108601
    59  C   -0.087697
    60  C    0.109288
    61  C    0.147244
    62  C    0.023631
    63  C    0.066890
    64  C   -0.103205
    65  C    0.125744
    66  C    0.106860
    67  H   -0.071611
    68  H   -0.050333
    69  H   -0.076345
    70  H   -0.024355
    71  H   -0.029174
    72  H   -0.000138
    73  H   -0.012092
    74  H   -0.017561
    75  H   -0.006959
    76  H    0.006937
    77  H   -0.009787
    78  H   -0.009782
    79  H   -0.011123
    80  H    0.015562
    81  H   -0.007928
    82  H    0.021660
    83  H    0.002619
    84  H    0.001215
    85  H   -0.015788
    86  H   -0.029997
    87  H   -0.013155
    88  H   -0.007773
    89  H   -0.002733
    90  H   -0.038054
    91  H   -0.038191
    92  H   -0.029500
    93  H   -0.007703
    94  H    0.002465
    95  H   -0.000533
    96  H    0.009256
    97  H    0.021482
    98  H   -0.008677
    99  H    0.006047
   100  H    0.020083
   101  H    0.020093
   102  H    0.002677
   103  H    0.014765
   104  H   -0.023369
   105  H   -0.010634
   106  H    0.004433
   107  H   -0.016392
   108  H   -0.026697
   109  H   -0.022226
   110  H   -0.033500
   111  H   -0.011904
   112  H   -0.026951
   113  H   -0.043887
   114  H   -0.023481
   115  H   -0.021101
   116  H   -0.019766
   117  H   -0.021925
   118  H   -0.020563
   119  H   -0.031756
   120  H   -0.024467
   121  H   -0.029909
   122  H   -0.033149
   123  H   -0.041045
   124  H   -0.027615
   125  H   -0.013123
   126  H   -0.020295
   127  H   -0.015573
   128  H   -0.050473
   129  H   -0.038624
   130  H   -0.022572
   131  H   -0.035753
   132  H   -0.035740
   133  H   -0.026573
   134  H   -0.028694
   135  H   -0.023731
   136  H   -0.023514
   137  H   -0.012704
   138  H    0.004521
   139  H   -0.017183
   140  H   -0.023103
 Sum of Mulliken charges =  -0.00000

 Dipole moment (field-independent basis, Debye):
    X=             -1.6244    Y=              2.9194    Z=             -1.4646  Tot=              3.6478
 Quadrupole moment (field-independent basis, Debye-Ang):
   XX=           -353.1579   YY=           -434.1432   ZZ=           -406.1663
   XY=             -2.6365   XZ=             -2.4107   YZ=             -7.0580

 Normal termination of Gaussian 16 at Thu Apr 28 16:16:29 2022.
