 Gaussian 16, Revision A.03,
 Gaussian 16:  ES64L-G16RevA.03 25-Dec-2016

 -----------------------------------
 #p cam-b3lyp/Def2SVP td=(nstates=5)
 -----------------------------------

 -------------------------------------------------------
 step_1651_chromophore_1 TDDFT with cam-b3lyp functional
 -------------------------------------------------------
 Symbolic Z-matrix:
 Charge =  0 Multiplicity = 1

                         Standard orientation:
 ---------------------------------------------------------------------
 Center     Atomic      Atomic             Coordinates (Angstroms)
 Number     Number       Type             X           Y           Z
 ---------------------------------------------------------------------
      1         12           0        6.099178    0.592130   -0.020625
      2          6           0        4.084186   -2.377622   -0.604308
      3          6           0        3.499439    2.469293   -0.992045
      4          6           0        8.194500    3.159527    0.056277
      5          6           0        8.722449   -1.562921    0.655691
      6          7           0        4.046304    0.096474   -0.683832
      7          6           0        3.384947   -1.129209   -0.888399
      8          6           0        1.892725   -0.934975   -1.358867
      9          6           0        1.877417    0.560135   -1.621737
     10          6           0        3.187473    1.127343   -1.056297
     11          6           0        1.630855    0.986728   -3.089338
     12          6           0        0.853050   -1.307529   -0.273380
     13          6           0       -0.654779   -1.095481   -0.639254
     14          6           0       -1.730148   -2.140543   -0.358253
     15          8           0       -1.899923   -3.276183   -0.891094
     16          8           0       -2.629750   -1.557743    0.594363
     17          7           0        5.870545    2.636117   -0.233694
     18          6           0        4.699425    3.226007   -0.589240
     19          6           0        4.912826    4.643399   -0.736827
     20          6           0        6.256346    4.864776   -0.285122
     21          6           0        6.874139    3.573860   -0.167827
     22          6           0        3.807180    5.583536   -1.183367
     23          6           0        6.952317    6.224769   -0.031609
     24          8           0        8.109489    6.302360    0.317233
     25          6           0        6.136097    7.489341   -0.113219
     26          7           0        8.090748    0.800662    0.353114
     27          6           0        8.795834    1.923278    0.176156
     28          6           0       10.308328    1.817259    0.229566
     29          6           0       10.465334    0.317459    0.664482
     30          6           0        8.967549   -0.184188    0.587089
     31          6           0       11.179828    2.190232   -1.010681
     32          6           0       11.049936    0.134376    2.075216
     33          6           0       10.163053   -0.241546    3.116156
     34          7           0        6.419002   -1.505667   -0.125842
     35          6           0        7.539762   -2.191205    0.322920
     36          6           0        7.324798   -3.639536    0.285744
     37          6           0        5.965887   -3.769628   -0.075224
     38          6           0        5.413256   -2.442683   -0.248285
     39          6           0        8.442615   -4.578038    0.472986
     40          6           0        4.900679   -4.673385   -0.185998
     41          8           0        4.713583   -5.865578    0.131118
     42          6           0        3.626113   -3.846137   -0.531551
     43          6           0        2.584165   -4.194425    0.481582
     44          8           0        2.476852   -3.687777    1.576758
     45          8           0        1.645487   -5.083567   -0.063894
     46          6           0        0.595954   -5.580445    0.832002
     47          6           0       -3.923643   -2.304247    0.786449
     48          6           0       -5.126658   -1.752451   -0.111449
     49          6           0       -6.323500   -2.370576   -0.553881
     50          6           0       -6.706091   -3.710085   -0.083687
     51          6           0       -7.288113   -1.574594   -1.433156
     52          6           0       -8.664844   -1.018398   -0.791194
     53          6           0       -8.424908   -0.317759    0.543763
     54          6           0       -9.311514    0.961702    0.751433
     55          6           0       -8.424419    2.273883    0.563573
     56          6           0      -10.081777    1.070286    2.114445
     57          6           0      -11.104837    2.217720    2.060336
     58          6           0      -12.380503    2.158244    3.011520
     59          6           0      -13.720854    2.256232    2.224523
     60          6           0      -14.814637    3.011114    3.077258
     61          6           0      -14.215415    0.884141    1.648058
     62          6           0      -14.676983    0.990659    0.195354
     63          6           0      -13.647906    0.479774   -0.911785
     64          6           0      -14.215280    0.647290   -2.406661
     65          6           0      -14.933885   -0.504102   -3.001495
     66          6           0      -12.973477    1.087974   -3.248943
     67          1           0        2.698424    3.129242   -1.329519
     68          1           0        8.867995    4.014221   -0.039657
     69          1           0        9.518020   -2.280820    0.863649
     70          1           0        1.596810   -1.525974   -2.226341
     71          1           0        1.035851    1.083098   -1.167026
     72          1           0        0.665793    1.482587   -3.193026
     73          1           0        1.829553    0.108100   -3.702743
     74          1           0        2.436149    1.686094   -3.314332
     75          1           0        1.151641   -0.843025    0.666107
     76          1           0        0.829070   -2.382200   -0.095485
     77          1           0       -0.685383   -0.915118   -1.713701
     78          1           0       -0.921452   -0.099495   -0.286813
     79          1           0        4.291484    6.408590   -1.705973
     80          1           0        3.128583    5.966706   -0.421272
     81          1           0        3.167532    5.009552   -1.854147
     82          1           0        6.034467    7.723617   -1.173048
     83          1           0        6.655310    8.229744    0.494554
     84          1           0        5.144990    7.276756    0.285171
     85          1           0       10.551225    2.471882    1.065798
     86          1           0       11.077915   -0.259226   -0.029417
     87          1           0       11.955198    1.462471   -1.252149
     88          1           0       11.779241    3.088209   -0.858737
     89          1           0       10.583045    2.340673   -1.909847
     90          1           0       11.488449    1.050973    2.469716
     91          1           0       11.895628   -0.554219    2.087746
     92          1           0       10.370572    0.331483    4.020186
     93          1           0       10.388941   -1.296434    3.272074
     94          1           0        9.132894    0.084852    2.973172
     95          1           0        8.888683   -4.434848    1.456764
     96          1           0        9.207542   -4.215974   -0.214175
     97          1           0        7.996133   -5.569326    0.391141
     98          1           0        3.258104   -4.128795   -1.517636
     99          1           0       -0.070298   -4.718349    0.844519
    100          1           0        0.992527   -5.817315    1.818820
    101          1           0        0.169467   -6.439809    0.314141
    102          1           0       -4.208511   -2.095020    1.817970
    103          1           0       -3.893881   -3.390975    0.712693
    104          1           0       -4.754844   -0.992966   -0.799719
    105          1           0       -7.066235   -4.276510   -0.942463
    106          1           0       -7.524241   -3.689331    0.637412
    107          1           0       -5.894793   -4.299110    0.343992
    108          1           0       -7.553471   -2.309795   -2.192310
    109          1           0       -6.745189   -0.728357   -1.852922
    110          1           0       -9.229867   -1.923539   -0.569043
    111          1           0       -9.296368   -0.467317   -1.487742
    112          1           0       -7.347399   -0.156167    0.567830
    113          1           0       -8.621204   -0.977812    1.387711
    114          1           0      -10.004690    1.179270   -0.060341
    115          1           0       -7.408163    2.091792    0.213343
    116          1           0       -8.328045    2.836642    1.491230
    117          1           0       -8.828997    2.967095   -0.174936
    118          1           0       -9.340653    1.198715    2.904064
    119          1           0      -10.727028    0.208388    2.283395
    120          1           0      -11.487028    2.320252    1.044306
    121          1           0      -10.633033    3.161418    2.334274
    122          1           0      -12.288549    2.918266    3.786922
    123          1           0      -12.341495    1.159947    3.447387
    124          1           0      -13.387744    2.845129    1.370019
    125          1           0      -14.446962    3.110798    4.098968
    126          1           0      -15.764915    2.478384    3.068623
    127          1           0      -15.094511    4.010406    2.744368
    128          1           0      -15.140003    0.671746    2.185536
    129          1           0      -13.644420   -0.014120    1.887126
    130          1           0      -14.967207    2.031716    0.054219
    131          1           0      -15.526144    0.343979   -0.025518
    132          1           0      -13.470666   -0.568167   -0.670145
    133          1           0      -12.690456    0.980741   -0.767926
    134          1           0      -14.985780    1.414354   -2.323616
    135          1           0      -14.998127   -1.296353   -2.255334
    136          1           0      -14.415908   -0.952883   -3.849847
    137          1           0      -15.941057   -0.252520   -3.333604
    138          1           0      -11.990582    1.142075   -2.779909
    139          1           0      -13.256684    2.108326   -3.509124
    140          1           0      -13.033228    0.461035   -4.138960
 ---------------------------------------------------------------------

 SCF Done:  E(RCAM-B3LYP) =  -3007.12056139     A.U. after   19 cycles

 Excitation energies and oscillator strengths:

 Excited State   1:      Singlet-A      1.7171 eV  722.06 nm  f=0.3917  <S**2>=0.000
     245 -> 248        0.17914
     246 -> 247        0.68580
     245 <- 248        0.10566
 This state for optimization and/or second-order correction.
 Total Energy, E(TD-HF/TD-DFT) =  -3007.05745969
 Copying the excited state density for this state as the 1-particle RhoCI density.

 Excited State   2:      Singlet-A      2.2058 eV  562.08 nm  f=0.0893  <S**2>=0.000
     245 -> 247        0.63515
     246 -> 248       -0.29693

 Excited State   3:      Singlet-A      3.2826 eV  377.70 nm  f=0.0012  <S**2>=0.000
     239 -> 247        0.21052
     239 -> 249       -0.13933
     240 -> 247        0.49257
     240 -> 249       -0.30502
     240 -> 251        0.10957
     241 -> 247       -0.16074
     242 -> 247       -0.14472

 Excited State   4:      Singlet-A      3.3581 eV  369.21 nm  f=0.0304  <S**2>=0.000
     240 -> 247       -0.12451
     242 -> 247       -0.32721
     243 -> 247        0.57592
     246 -> 248       -0.13270

 Excited State   5:      Singlet-A      3.4189 eV  362.65 nm  f=0.3561  <S**2>=0.000
     241 -> 247        0.10691
     242 -> 247        0.21162
     243 -> 247        0.29791
     245 -> 247        0.21536
     246 -> 248        0.53667

 The electronic state is 1-A.
 Alpha  occ. eigenvalues --  -46.88302 -19.25709 -19.23159 -19.21454 -19.19304
 Alpha  occ. eigenvalues --  -19.18847 -19.18506 -14.42946 -14.42629 -14.39561
 Alpha  occ. eigenvalues --  -14.38907 -10.41324 -10.38614 -10.34915 -10.34558
 Alpha  occ. eigenvalues --  -10.33246 -10.32797 -10.31618 -10.30824 -10.30331
 Alpha  occ. eigenvalues --  -10.30140 -10.30063 -10.29734 -10.29487 -10.29395
 Alpha  occ. eigenvalues --  -10.29150 -10.29083 -10.28481 -10.28381 -10.28301
 Alpha  occ. eigenvalues --  -10.27942 -10.27834 -10.27799 -10.27788 -10.27607
 Alpha  occ. eigenvalues --  -10.27555 -10.27251 -10.27202 -10.26944 -10.26854
 Alpha  occ. eigenvalues --  -10.26852 -10.26578 -10.26537 -10.26457 -10.26237
 Alpha  occ. eigenvalues --  -10.26127 -10.26124 -10.26008 -10.25998 -10.25940
 Alpha  occ. eigenvalues --  -10.25690 -10.25658 -10.25501 -10.25300 -10.25153
 Alpha  occ. eigenvalues --  -10.25025 -10.24891 -10.24754 -10.24736 -10.24706
 Alpha  occ. eigenvalues --  -10.24679 -10.24663 -10.24364 -10.24333 -10.24192
 Alpha  occ. eigenvalues --  -10.24147  -3.16940  -1.91850  -1.91409  -1.91234
 Alpha  occ. eigenvalues --   -1.14590  -1.13885  -1.10277  -1.08669  -1.06780
 Alpha  occ. eigenvalues --   -1.06547  -1.05594  -1.03275  -1.02694  -1.01883
 Alpha  occ. eigenvalues --   -0.92888  -0.90324  -0.90185  -0.89858  -0.89170
 Alpha  occ. eigenvalues --   -0.88621  -0.88086  -0.88053  -0.87276  -0.87028
 Alpha  occ. eigenvalues --   -0.86262  -0.85510  -0.84710  -0.83985  -0.83386
 Alpha  occ. eigenvalues --   -0.82137  -0.81882  -0.81141  -0.80722  -0.80098
 Alpha  occ. eigenvalues --   -0.79380  -0.78844  -0.77985  -0.77200  -0.75959
 Alpha  occ. eigenvalues --   -0.75755  -0.75659  -0.75475  -0.74399  -0.74129
 Alpha  occ. eigenvalues --   -0.73240  -0.72810  -0.71748  -0.70719  -0.69660
 Alpha  occ. eigenvalues --   -0.68920  -0.68228  -0.66575  -0.66261  -0.65638
 Alpha  occ. eigenvalues --   -0.65384  -0.64779  -0.64517  -0.63804  -0.63755
 Alpha  occ. eigenvalues --   -0.63253  -0.62944  -0.62822  -0.60722  -0.60207
 Alpha  occ. eigenvalues --   -0.59772  -0.59280  -0.59042  -0.58524  -0.57830
 Alpha  occ. eigenvalues --   -0.57497  -0.57167  -0.56676  -0.56466  -0.55324
 Alpha  occ. eigenvalues --   -0.55283  -0.54905  -0.54678  -0.54414  -0.54298
 Alpha  occ. eigenvalues --   -0.53869  -0.53504  -0.52864  -0.52774  -0.52435
 Alpha  occ. eigenvalues --   -0.52409  -0.52194  -0.52123  -0.52066  -0.51927
 Alpha  occ. eigenvalues --   -0.51666  -0.51433  -0.51139  -0.50704  -0.50447
 Alpha  occ. eigenvalues --   -0.50341  -0.49907  -0.49823  -0.49720  -0.49631
 Alpha  occ. eigenvalues --   -0.49482  -0.49175  -0.49030  -0.48849  -0.48761
 Alpha  occ. eigenvalues --   -0.48445  -0.48333  -0.48212  -0.48153  -0.47819
 Alpha  occ. eigenvalues --   -0.47649  -0.47396  -0.47087  -0.46884  -0.46755
 Alpha  occ. eigenvalues --   -0.46493  -0.46391  -0.46318  -0.45943  -0.45799
 Alpha  occ. eigenvalues --   -0.45778  -0.45531  -0.45069  -0.44915  -0.44747
 Alpha  occ. eigenvalues --   -0.44612  -0.44361  -0.44206  -0.43949  -0.43712
 Alpha  occ. eigenvalues --   -0.43480  -0.43411  -0.43227  -0.42944  -0.42886
 Alpha  occ. eigenvalues --   -0.42853  -0.42636  -0.42359  -0.42024  -0.42009
 Alpha  occ. eigenvalues --   -0.41874  -0.41665  -0.41496  -0.41221  -0.41164
 Alpha  occ. eigenvalues --   -0.40899  -0.40714  -0.40536  -0.40367  -0.40317
 Alpha  occ. eigenvalues --   -0.40214  -0.40019  -0.39733  -0.39065  -0.38904
 Alpha  occ. eigenvalues --   -0.38412  -0.38261  -0.37763  -0.37523  -0.37114
 Alpha  occ. eigenvalues --   -0.37050  -0.36904  -0.36424  -0.36317  -0.36199
 Alpha  occ. eigenvalues --   -0.35682  -0.35244  -0.35133  -0.35099  -0.34832
 Alpha  occ. eigenvalues --   -0.33744  -0.33700  -0.33211  -0.31446  -0.31057
 Alpha  occ. eigenvalues --   -0.30612  -0.30363  -0.29267  -0.28961  -0.24305
 Alpha  occ. eigenvalues --   -0.21275
 Alpha virt. eigenvalues --   -0.08838  -0.02111  -0.00321   0.02514   0.02569
 Alpha virt. eigenvalues --    0.03245   0.03673   0.05150   0.05759   0.06166
 Alpha virt. eigenvalues --    0.07694   0.07701   0.08051   0.08304   0.08688

 Mulliken charges:
               1
     1  Mg   0.836350
     2  C   -0.016388
     3  C   -0.069422
     4  C   -0.049591
     5  C   -0.089696
     6  N   -0.309532
     7  C   -0.000138
     8  C    0.003754
     9  C   -0.083112
    10  C    0.080586
    11  C    0.080381
    12  C    0.035289
    13  C    0.059842
    14  C    0.222625
    15  O   -0.254983
    16  O   -0.366437
    17  N   -0.382461
    18  C    0.119270
    19  C   -0.164547
    20  C   -0.029500
    21  C    0.079181
    22  C    0.103126
    23  C   -0.012125
    24  O   -0.193921
    25  C    0.045250
    26  N   -0.284023
    27  C    0.022084
    28  C    0.022318
    29  C   -0.028670
    30  C    0.053380
    31  C    0.072080
    32  C    0.023526
    33  C    0.030905
    34  N   -0.355092
    35  C    0.122723
    36  C   -0.163303
    37  C    0.037007
    38  C    0.098796
    39  C    0.141799
    40  C    0.026408
    41  O   -0.198483
    42  C    0.016549
    43  C    0.201501
    44  O   -0.213904
    45  O   -0.367187
    46  C    0.193422
    47  C    0.253688
    48  C   -0.104706
    49  C   -0.197494
    50  C    0.086437
    51  C    0.069723
    52  C   -0.000880
    53  C    0.103375
    54  C   -0.150257
    55  C    0.011285
    56  C    0.079536
    57  C   -0.033275
    58  C    0.059674
    59  C   -0.143735
    60  C    0.051685
    61  C    0.085868
    62  C   -0.024765
    63  C    0.026144
    64  C   -0.161954
    65  C    0.062435
    66  C    0.048985
    67  H   -0.038256
    68  H   -0.011754
    69  H   -0.038746
    70  H    0.012317
    71  H    0.005743
    72  H    0.023209
    73  H    0.012428
    74  H    0.011042
    75  H    0.026147
    76  H    0.031350
    77  H    0.022097
    78  H    0.026995
    79  H    0.012889
    80  H    0.039396
    81  H    0.015662
    82  H    0.046487
    83  H    0.035242
    84  H    0.028475
    85  H    0.019994
    86  H    0.006429
    87  H    0.010119
    88  H    0.016893
    89  H    0.022694
    90  H   -0.005837
    91  H   -0.007576
    92  H   -0.000999
    93  H    0.014824
    94  H    0.027505
    95  H    0.028854
    96  H    0.037655
    97  H    0.050985
    98  H    0.036735
    99  H    0.024481
   100  H    0.043590
   101  H    0.043790
   102  H    0.031177
   103  H    0.042272
   104  H    0.005340
   105  H    0.013911
   106  H    0.027254
   107  H    0.008800
   108  H    0.002094
   109  H    0.006745
   110  H   -0.006498
   111  H    0.014745
   112  H    0.001605
   113  H   -0.014631
   114  H    0.003391
   115  H    0.003220
   116  H    0.003462
   117  H    0.001886
   118  H    0.007026
   119  H   -0.005868
   120  H   -0.002035
   121  H   -0.002121
   122  H   -0.003015
   123  H   -0.013242
   124  H    0.003206
   125  H    0.010394
   126  H    0.003410
   127  H    0.008970
   128  H   -0.018218
   129  H   -0.009863
   130  H    0.003172
   131  H   -0.008353
   132  H   -0.009277
   133  H   -0.006680
   134  H    0.002879
   135  H    0.000467
   136  H    0.001564
   137  H    0.011911
   138  H    0.024936
   139  H    0.007133
   140  H    0.000568
 Sum of Mulliken charges =  -0.00000

 Dipole moment (field-independent basis, Debye):
    X=             -1.5518    Y=              2.3012    Z=             -1.4924  Tot=              3.1514
 Quadrupole moment (field-independent basis, Debye-Ang):
   XX=           -349.2636   YY=           -431.8262   ZZ=           -406.3032
   XY=             -7.7342   XZ=             -1.7905   YZ=             -7.4519

 Normal termination of Gaussian 16 at Thu Apr 28 15:23:46 2022.
