 Gaussian 16, Revision A.03,
 Gaussian 16:  ES64L-G16RevA.03 25-Dec-2016

 ---------------------------------
 #p PBE1PBE/Def2SVP td=(nstates=5)
 ---------------------------------

 -----------------------------------------------------
 step_1651_chromophore_1 TDDFT with PBE1PBE functional
 -----------------------------------------------------
 Symbolic Z-matrix:
 Charge =  0 Multiplicity = 1

                         Standard orientation:
 ---------------------------------------------------------------------
 Center     Atomic      Atomic             Coordinates (Angstroms)
 Number     Number       Type             X           Y           Z
 ---------------------------------------------------------------------
      1         12           0        6.099178    0.592130   -0.020625
      2          6           0        4.084186   -2.377622   -0.604308
      3          6           0        3.499439    2.469293   -0.992045
      4          6           0        8.194500    3.159527    0.056277
      5          6           0        8.722449   -1.562921    0.655691
      6          7           0        4.046304    0.096474   -0.683832
      7          6           0        3.384947   -1.129209   -0.888399
      8          6           0        1.892725   -0.934975   -1.358867
      9          6           0        1.877417    0.560135   -1.621737
     10          6           0        3.187473    1.127343   -1.056297
     11          6           0        1.630855    0.986728   -3.089338
     12          6           0        0.853050   -1.307529   -0.273380
     13          6           0       -0.654779   -1.095481   -0.639254
     14          6           0       -1.730148   -2.140543   -0.358253
     15          8           0       -1.899923   -3.276183   -0.891094
     16          8           0       -2.629750   -1.557743    0.594363
     17          7           0        5.870545    2.636117   -0.233694
     18          6           0        4.699425    3.226007   -0.589240
     19          6           0        4.912826    4.643399   -0.736827
     20          6           0        6.256346    4.864776   -0.285122
     21          6           0        6.874139    3.573860   -0.167827
     22          6           0        3.807180    5.583536   -1.183367
     23          6           0        6.952317    6.224769   -0.031609
     24          8           0        8.109489    6.302360    0.317233
     25          6           0        6.136097    7.489341   -0.113219
     26          7           0        8.090748    0.800662    0.353114
     27          6           0        8.795834    1.923278    0.176156
     28          6           0       10.308328    1.817259    0.229566
     29          6           0       10.465334    0.317459    0.664482
     30          6           0        8.967549   -0.184188    0.587089
     31          6           0       11.179828    2.190232   -1.010681
     32          6           0       11.049936    0.134376    2.075216
     33          6           0       10.163053   -0.241546    3.116156
     34          7           0        6.419002   -1.505667   -0.125842
     35          6           0        7.539762   -2.191205    0.322920
     36          6           0        7.324798   -3.639536    0.285744
     37          6           0        5.965887   -3.769628   -0.075224
     38          6           0        5.413256   -2.442683   -0.248285
     39          6           0        8.442615   -4.578038    0.472986
     40          6           0        4.900679   -4.673385   -0.185998
     41          8           0        4.713583   -5.865578    0.131118
     42          6           0        3.626113   -3.846137   -0.531551
     43          6           0        2.584165   -4.194425    0.481582
     44          8           0        2.476852   -3.687777    1.576758
     45          8           0        1.645487   -5.083567   -0.063894
     46          6           0        0.595954   -5.580445    0.832002
     47          6           0       -3.923643   -2.304247    0.786449
     48          6           0       -5.126658   -1.752451   -0.111449
     49          6           0       -6.323500   -2.370576   -0.553881
     50          6           0       -6.706091   -3.710085   -0.083687
     51          6           0       -7.288113   -1.574594   -1.433156
     52          6           0       -8.664844   -1.018398   -0.791194
     53          6           0       -8.424908   -0.317759    0.543763
     54          6           0       -9.311514    0.961702    0.751433
     55          6           0       -8.424419    2.273883    0.563573
     56          6           0      -10.081777    1.070286    2.114445
     57          6           0      -11.104837    2.217720    2.060336
     58          6           0      -12.380503    2.158244    3.011520
     59          6           0      -13.720854    2.256232    2.224523
     60          6           0      -14.814637    3.011114    3.077258
     61          6           0      -14.215415    0.884141    1.648058
     62          6           0      -14.676983    0.990659    0.195354
     63          6           0      -13.647906    0.479774   -0.911785
     64          6           0      -14.215280    0.647290   -2.406661
     65          6           0      -14.933885   -0.504102   -3.001495
     66          6           0      -12.973477    1.087974   -3.248943
     67          1           0        2.698424    3.129242   -1.329519
     68          1           0        8.867995    4.014221   -0.039657
     69          1           0        9.518020   -2.280820    0.863649
     70          1           0        1.596810   -1.525974   -2.226341
     71          1           0        1.035851    1.083098   -1.167026
     72          1           0        0.665793    1.482587   -3.193026
     73          1           0        1.829553    0.108100   -3.702743
     74          1           0        2.436149    1.686094   -3.314332
     75          1           0        1.151641   -0.843025    0.666107
     76          1           0        0.829070   -2.382200   -0.095485
     77          1           0       -0.685383   -0.915118   -1.713701
     78          1           0       -0.921452   -0.099495   -0.286813
     79          1           0        4.291484    6.408590   -1.705973
     80          1           0        3.128583    5.966706   -0.421272
     81          1           0        3.167532    5.009552   -1.854147
     82          1           0        6.034467    7.723617   -1.173048
     83          1           0        6.655310    8.229744    0.494554
     84          1           0        5.144990    7.276756    0.285171
     85          1           0       10.551225    2.471882    1.065798
     86          1           0       11.077915   -0.259226   -0.029417
     87          1           0       11.955198    1.462471   -1.252149
     88          1           0       11.779241    3.088209   -0.858737
     89          1           0       10.583045    2.340673   -1.909847
     90          1           0       11.488449    1.050973    2.469716
     91          1           0       11.895628   -0.554219    2.087746
     92          1           0       10.370572    0.331483    4.020186
     93          1           0       10.388941   -1.296434    3.272074
     94          1           0        9.132894    0.084852    2.973172
     95          1           0        8.888683   -4.434848    1.456764
     96          1           0        9.207542   -4.215974   -0.214175
     97          1           0        7.996133   -5.569326    0.391141
     98          1           0        3.258104   -4.128795   -1.517636
     99          1           0       -0.070298   -4.718349    0.844519
    100          1           0        0.992527   -5.817315    1.818820
    101          1           0        0.169467   -6.439809    0.314141
    102          1           0       -4.208511   -2.095020    1.817970
    103          1           0       -3.893881   -3.390975    0.712693
    104          1           0       -4.754844   -0.992966   -0.799719
    105          1           0       -7.066235   -4.276510   -0.942463
    106          1           0       -7.524241   -3.689331    0.637412
    107          1           0       -5.894793   -4.299110    0.343992
    108          1           0       -7.553471   -2.309795   -2.192310
    109          1           0       -6.745189   -0.728357   -1.852922
    110          1           0       -9.229867   -1.923539   -0.569043
    111          1           0       -9.296368   -0.467317   -1.487742
    112          1           0       -7.347399   -0.156167    0.567830
    113          1           0       -8.621204   -0.977812    1.387711
    114          1           0      -10.004690    1.179270   -0.060341
    115          1           0       -7.408163    2.091792    0.213343
    116          1           0       -8.328045    2.836642    1.491230
    117          1           0       -8.828997    2.967095   -0.174936
    118          1           0       -9.340653    1.198715    2.904064
    119          1           0      -10.727028    0.208388    2.283395
    120          1           0      -11.487028    2.320252    1.044306
    121          1           0      -10.633033    3.161418    2.334274
    122          1           0      -12.288549    2.918266    3.786922
    123          1           0      -12.341495    1.159947    3.447387
    124          1           0      -13.387744    2.845129    1.370019
    125          1           0      -14.446962    3.110798    4.098968
    126          1           0      -15.764915    2.478384    3.068623
    127          1           0      -15.094511    4.010406    2.744368
    128          1           0      -15.140003    0.671746    2.185536
    129          1           0      -13.644420   -0.014120    1.887126
    130          1           0      -14.967207    2.031716    0.054219
    131          1           0      -15.526144    0.343979   -0.025518
    132          1           0      -13.470666   -0.568167   -0.670145
    133          1           0      -12.690456    0.980741   -0.767926
    134          1           0      -14.985780    1.414354   -2.323616
    135          1           0      -14.998127   -1.296353   -2.255334
    136          1           0      -14.415908   -0.952883   -3.849847
    137          1           0      -15.941057   -0.252520   -3.333604
    138          1           0      -11.990582    1.142075   -2.779909
    139          1           0      -13.256684    2.108326   -3.509124
    140          1           0      -13.033228    0.461035   -4.138960
 ---------------------------------------------------------------------

 SCF Done:  E(RPBE1PBE) =  -3005.31033751     A.U. after   16 cycles

 Excitation energies and oscillator strengths:

 Excited State   1:      Singlet-A      1.8461 eV  671.59 nm  f=0.3805  <S**2>=0.000
     245 -> 248        0.17613
     246 -> 247        0.69299
     246 <- 247       -0.10821
 This state for optimization and/or second-order correction.
 Total Energy, E(TD-HF/TD-DFT) =  -3005.24249354
 Copying the excited state density for this state as the 1-particle RhoCI density.

 Excited State   2:      Singlet-A      2.1983 eV  564.01 nm  f=0.0863  <S**2>=0.000
     245 -> 247        0.64842
     246 -> 248       -0.26991

 Excited State   3:      Singlet-A      2.8575 eV  433.89 nm  f=0.0002  <S**2>=0.000
     240 -> 247        0.18931
     241 -> 247       -0.25974
     242 -> 247        0.58275
     242 -> 249       -0.17130

 Excited State   4:      Singlet-A      2.9713 eV  417.27 nm  f=0.0020  <S**2>=0.000
     243 -> 247        0.69660

 Excited State   5:      Singlet-A      3.1074 eV  399.00 nm  f=0.0012  <S**2>=0.000
     241 -> 247        0.62199
     242 -> 247        0.29260

 The electronic state is 1-A.
 Alpha  occ. eigenvalues --  -46.91731 -19.26451 -19.23757 -19.21727 -19.19402
 Alpha  occ. eigenvalues --  -19.18953 -19.18810 -14.42477 -14.42108 -14.39129
 Alpha  occ. eigenvalues --  -14.38752 -10.38365 -10.35535 -10.31940 -10.31772
 Alpha  occ. eigenvalues --  -10.30774 -10.30249 -10.29190 -10.28757 -10.28105
 Alpha  occ. eigenvalues --  -10.27517 -10.27481 -10.27427 -10.27137 -10.27128
 Alpha  occ. eigenvalues --  -10.26869 -10.26685 -10.26121 -10.25969 -10.25953
 Alpha  occ. eigenvalues --  -10.25731 -10.25699 -10.25679 -10.25584 -10.25388
 Alpha  occ. eigenvalues --  -10.25096 -10.25046 -10.24584 -10.24543 -10.24539
 Alpha  occ. eigenvalues --  -10.24371 -10.24353 -10.24153 -10.23914 -10.23868
 Alpha  occ. eigenvalues --  -10.23781 -10.23739 -10.23688 -10.23492 -10.23356
 Alpha  occ. eigenvalues --  -10.23329 -10.23258 -10.23160 -10.22829 -10.22708
 Alpha  occ. eigenvalues --  -10.22609 -10.22427 -10.22331 -10.22325 -10.22271
 Alpha  occ. eigenvalues --  -10.22213 -10.22097 -10.21786 -10.21663 -10.21565
 Alpha  occ. eigenvalues --  -10.21559  -3.13947  -1.86799  -1.86335  -1.86165
 Alpha  occ. eigenvalues --   -1.09229  -1.08655  -1.05256  -1.03122  -1.01523
 Alpha  occ. eigenvalues --   -1.01400  -1.00233  -0.97754  -0.97542  -0.96504
 Alpha  occ. eigenvalues --   -0.87073  -0.84525  -0.84412  -0.83945  -0.83246
 Alpha  occ. eigenvalues --   -0.82952  -0.82218  -0.82171  -0.81617  -0.81144
 Alpha  occ. eigenvalues --   -0.80725  -0.79834  -0.78967  -0.78151  -0.77711
 Alpha  occ. eigenvalues --   -0.76399  -0.76046  -0.75428  -0.74942  -0.74414
 Alpha  occ. eigenvalues --   -0.73526  -0.73118  -0.72392  -0.71529  -0.70190
 Alpha  occ. eigenvalues --   -0.70011  -0.69860  -0.69733  -0.68540  -0.68285
 Alpha  occ. eigenvalues --   -0.67560  -0.67100  -0.66206  -0.65018  -0.64003
 Alpha  occ. eigenvalues --   -0.63326  -0.62480  -0.61078  -0.60568  -0.60137
 Alpha  occ. eigenvalues --   -0.59858  -0.59185  -0.58877  -0.58283  -0.57903
 Alpha  occ. eigenvalues --   -0.57426  -0.57390  -0.57053  -0.55200  -0.54736
 Alpha  occ. eigenvalues --   -0.54460  -0.53647  -0.53619  -0.53144  -0.52219
 Alpha  occ. eigenvalues --   -0.51900  -0.51728  -0.51149  -0.50941  -0.50000
 Alpha  occ. eigenvalues --   -0.49748  -0.49370  -0.49165  -0.48809  -0.48781
 Alpha  occ. eigenvalues --   -0.48379  -0.47936  -0.47369  -0.47266  -0.47067
 Alpha  occ. eigenvalues --   -0.46882  -0.46691  -0.46596  -0.46553  -0.46424
 Alpha  occ. eigenvalues --   -0.46127  -0.45903  -0.45598  -0.45408  -0.45015
 Alpha  occ. eigenvalues --   -0.44977  -0.44460  -0.44410  -0.44363  -0.44161
 Alpha  occ. eigenvalues --   -0.44044  -0.43809  -0.43675  -0.43507  -0.43362
 Alpha  occ. eigenvalues --   -0.43176  -0.43026  -0.42878  -0.42780  -0.42448
 Alpha  occ. eigenvalues --   -0.42347  -0.42027  -0.41707  -0.41526  -0.41497
 Alpha  occ. eigenvalues --   -0.41137  -0.41051  -0.40940  -0.40759  -0.40497
 Alpha  occ. eigenvalues --   -0.40333  -0.40324  -0.39832  -0.39638  -0.39506
 Alpha  occ. eigenvalues --   -0.39333  -0.39021  -0.38896  -0.38661  -0.38519
 Alpha  occ. eigenvalues --   -0.38266  -0.38184  -0.38096  -0.37793  -0.37644
 Alpha  occ. eigenvalues --   -0.37546  -0.37469  -0.37179  -0.36930  -0.36774
 Alpha  occ. eigenvalues --   -0.36696  -0.36505  -0.36294  -0.36063  -0.35977
 Alpha  occ. eigenvalues --   -0.35670  -0.35522  -0.35403  -0.35241  -0.35121
 Alpha  occ. eigenvalues --   -0.35044  -0.34812  -0.34634  -0.33843  -0.33773
 Alpha  occ. eigenvalues --   -0.33353  -0.33086  -0.32583  -0.32535  -0.32091
 Alpha  occ. eigenvalues --   -0.31915  -0.31689  -0.31437  -0.31313  -0.31165
 Alpha  occ. eigenvalues --   -0.30610  -0.30101  -0.30075  -0.29924  -0.29854
 Alpha  occ. eigenvalues --   -0.29057  -0.28659  -0.28253  -0.27019  -0.26028
 Alpha  occ. eigenvalues --   -0.25628  -0.25538  -0.25071  -0.24348  -0.21183
 Alpha  occ. eigenvalues --   -0.18902
 Alpha virt. eigenvalues --   -0.11346  -0.05613  -0.04430  -0.02095  -0.01949
 Alpha virt. eigenvalues --   -0.00727   0.00088   0.01145   0.01371   0.02884
 Alpha virt. eigenvalues --    0.03674   0.03972   0.04488   0.04560   0.05405

 Mulliken charges:
               1
     1  Mg   0.989982
     2  C   -0.023756
     3  C   -0.074713
     4  C   -0.046405
     5  C   -0.065534
     6  N   -0.410359
     7  C    0.069772
     8  C   -0.068345
     9  C   -0.153726
    10  C    0.114178
    11  C    0.021954
    12  C   -0.027428
    13  C   -0.007185
    14  C    0.280401
    15  O   -0.286459
    16  O   -0.393338
    17  N   -0.499564
    18  C    0.163301
    19  C   -0.193641
    20  C   -0.082270
    21  C    0.115968
    22  C    0.039483
    23  C    0.048931
    24  O   -0.229941
    25  C   -0.032236
    26  N   -0.397793
    27  C    0.059969
    28  C   -0.053031
    29  C   -0.098784
    30  C    0.071576
    31  C    0.014411
    32  C   -0.029049
    33  C   -0.044923
    34  N   -0.470124
    35  C    0.134437
    36  C   -0.166913
    37  C   -0.011915
    38  C    0.135830
    39  C    0.079339
    40  C    0.112844
    41  O   -0.244057
    42  C   -0.089530
    43  C    0.285133
    44  O   -0.248407
    45  O   -0.397926
    46  C    0.135771
    47  C    0.212091
    48  C   -0.121508
    49  C   -0.237912
    50  C    0.027008
    51  C    0.000177
    52  C   -0.061760
    53  C    0.047233
    54  C   -0.237811
    55  C   -0.042376
    56  C    0.016459
    57  C   -0.092967
    58  C    0.008216
    59  C   -0.232122
    60  C   -0.007207
    61  C    0.034791
    62  C   -0.093404
    63  C   -0.032446
    64  C   -0.249821
    65  C    0.003681
    66  C   -0.015748
    67  H   -0.005779
    68  H    0.020321
    69  H   -0.008706
    70  H    0.046622
    71  H    0.044142
    72  H    0.049421
    73  H    0.041736
    74  H    0.039860
    75  H    0.057208
    76  H    0.079445
    77  H    0.055195
    78  H    0.057722
    79  H    0.044204
    80  H    0.067731
    81  H    0.044654
    82  H    0.073649
    83  H    0.063383
    84  H    0.057398
    85  H    0.056772
    86  H    0.042299
    87  H    0.037806
    88  H    0.044001
    89  H    0.050318
    90  H    0.025946
    91  H    0.025019
    92  H    0.027758
    93  H    0.042334
    94  H    0.058355
    95  H    0.055833
    96  H    0.064008
    97  H    0.078218
    98  H    0.073508
    99  H    0.050222
   100  H    0.064915
   101  H    0.065279
   102  H    0.059324
   103  H    0.068051
   104  H    0.035301
   105  H    0.041286
   106  H    0.054335
   107  H    0.036000
   108  H    0.036001
   109  H    0.039141
   110  H    0.027500
   111  H    0.045649
   112  H    0.036744
   113  H    0.018593
   114  H    0.043540
   115  H    0.030480
   116  H    0.030426
   117  H    0.028515
   118  H    0.039801
   119  H    0.028604
   120  H    0.030665
   121  H    0.030903
   122  H    0.028713
   123  H    0.020634
   124  H    0.042280
   125  H    0.037098
   126  H    0.029932
   127  H    0.036301
   128  H    0.015987
   129  H    0.020291
   130  H    0.035365
   131  H    0.026049
   132  H    0.023478
   133  H    0.032607
   134  H    0.039948
   135  H    0.027793
   136  H    0.027980
   137  H    0.038974
   138  H    0.050605
   139  H    0.035601
   140  H    0.028212
 Sum of Mulliken charges =  -0.00000

 Dipole moment (field-independent basis, Debye):
    X=             -1.5637    Y=              2.9997    Z=             -1.5318  Tot=              3.7135
 Quadrupole moment (field-independent basis, Debye-Ang):
   XX=           -343.4982   YY=           -428.4195   ZZ=           -403.7874
   XY=             -3.4856   XZ=             -1.7492   YZ=             -7.8100

 Normal termination of Gaussian 16 at Thu Apr 28 15:41:03 2022.
