 Gaussian 16, Revision A.03,
 Gaussian 16:  ES64L-G16RevA.03 25-Dec-2016

 --------------------------------
 #p wB97XD/Def2SVP td=(nstates=5)
 --------------------------------

 ----------------------------------------------------
 step_1651_chromophore_1 TDDFT with wB97XD functional
 ----------------------------------------------------
 Symbolic Z-matrix:
 Charge =  0 Multiplicity = 1

                         Standard orientation:
 ---------------------------------------------------------------------
 Center     Atomic      Atomic             Coordinates (Angstroms)
 Number     Number       Type             X           Y           Z
 ---------------------------------------------------------------------
      1         12           0        6.099178    0.592130   -0.020625
      2          6           0        4.084186   -2.377622   -0.604308
      3          6           0        3.499439    2.469293   -0.992045
      4          6           0        8.194500    3.159527    0.056277
      5          6           0        8.722449   -1.562921    0.655691
      6          7           0        4.046304    0.096474   -0.683832
      7          6           0        3.384947   -1.129209   -0.888399
      8          6           0        1.892725   -0.934975   -1.358867
      9          6           0        1.877417    0.560135   -1.621737
     10          6           0        3.187473    1.127343   -1.056297
     11          6           0        1.630855    0.986728   -3.089338
     12          6           0        0.853050   -1.307529   -0.273380
     13          6           0       -0.654779   -1.095481   -0.639254
     14          6           0       -1.730148   -2.140543   -0.358253
     15          8           0       -1.899923   -3.276183   -0.891094
     16          8           0       -2.629750   -1.557743    0.594363
     17          7           0        5.870545    2.636117   -0.233694
     18          6           0        4.699425    3.226007   -0.589240
     19          6           0        4.912826    4.643399   -0.736827
     20          6           0        6.256346    4.864776   -0.285122
     21          6           0        6.874139    3.573860   -0.167827
     22          6           0        3.807180    5.583536   -1.183367
     23          6           0        6.952317    6.224769   -0.031609
     24          8           0        8.109489    6.302360    0.317233
     25          6           0        6.136097    7.489341   -0.113219
     26          7           0        8.090748    0.800662    0.353114
     27          6           0        8.795834    1.923278    0.176156
     28          6           0       10.308328    1.817259    0.229566
     29          6           0       10.465334    0.317459    0.664482
     30          6           0        8.967549   -0.184188    0.587089
     31          6           0       11.179828    2.190232   -1.010681
     32          6           0       11.049936    0.134376    2.075216
     33          6           0       10.163053   -0.241546    3.116156
     34          7           0        6.419002   -1.505667   -0.125842
     35          6           0        7.539762   -2.191205    0.322920
     36          6           0        7.324798   -3.639536    0.285744
     37          6           0        5.965887   -3.769628   -0.075224
     38          6           0        5.413256   -2.442683   -0.248285
     39          6           0        8.442615   -4.578038    0.472986
     40          6           0        4.900679   -4.673385   -0.185998
     41          8           0        4.713583   -5.865578    0.131118
     42          6           0        3.626113   -3.846137   -0.531551
     43          6           0        2.584165   -4.194425    0.481582
     44          8           0        2.476852   -3.687777    1.576758
     45          8           0        1.645487   -5.083567   -0.063894
     46          6           0        0.595954   -5.580445    0.832002
     47          6           0       -3.923643   -2.304247    0.786449
     48          6           0       -5.126658   -1.752451   -0.111449
     49          6           0       -6.323500   -2.370576   -0.553881
     50          6           0       -6.706091   -3.710085   -0.083687
     51          6           0       -7.288113   -1.574594   -1.433156
     52          6           0       -8.664844   -1.018398   -0.791194
     53          6           0       -8.424908   -0.317759    0.543763
     54          6           0       -9.311514    0.961702    0.751433
     55          6           0       -8.424419    2.273883    0.563573
     56          6           0      -10.081777    1.070286    2.114445
     57          6           0      -11.104837    2.217720    2.060336
     58          6           0      -12.380503    2.158244    3.011520
     59          6           0      -13.720854    2.256232    2.224523
     60          6           0      -14.814637    3.011114    3.077258
     61          6           0      -14.215415    0.884141    1.648058
     62          6           0      -14.676983    0.990659    0.195354
     63          6           0      -13.647906    0.479774   -0.911785
     64          6           0      -14.215280    0.647290   -2.406661
     65          6           0      -14.933885   -0.504102   -3.001495
     66          6           0      -12.973477    1.087974   -3.248943
     67          1           0        2.698424    3.129242   -1.329519
     68          1           0        8.867995    4.014221   -0.039657
     69          1           0        9.518020   -2.280820    0.863649
     70          1           0        1.596810   -1.525974   -2.226341
     71          1           0        1.035851    1.083098   -1.167026
     72          1           0        0.665793    1.482587   -3.193026
     73          1           0        1.829553    0.108100   -3.702743
     74          1           0        2.436149    1.686094   -3.314332
     75          1           0        1.151641   -0.843025    0.666107
     76          1           0        0.829070   -2.382200   -0.095485
     77          1           0       -0.685383   -0.915118   -1.713701
     78          1           0       -0.921452   -0.099495   -0.286813
     79          1           0        4.291484    6.408590   -1.705973
     80          1           0        3.128583    5.966706   -0.421272
     81          1           0        3.167532    5.009552   -1.854147
     82          1           0        6.034467    7.723617   -1.173048
     83          1           0        6.655310    8.229744    0.494554
     84          1           0        5.144990    7.276756    0.285171
     85          1           0       10.551225    2.471882    1.065798
     86          1           0       11.077915   -0.259226   -0.029417
     87          1           0       11.955198    1.462471   -1.252149
     88          1           0       11.779241    3.088209   -0.858737
     89          1           0       10.583045    2.340673   -1.909847
     90          1           0       11.488449    1.050973    2.469716
     91          1           0       11.895628   -0.554219    2.087746
     92          1           0       10.370572    0.331483    4.020186
     93          1           0       10.388941   -1.296434    3.272074
     94          1           0        9.132894    0.084852    2.973172
     95          1           0        8.888683   -4.434848    1.456764
     96          1           0        9.207542   -4.215974   -0.214175
     97          1           0        7.996133   -5.569326    0.391141
     98          1           0        3.258104   -4.128795   -1.517636
     99          1           0       -0.070298   -4.718349    0.844519
    100          1           0        0.992527   -5.817315    1.818820
    101          1           0        0.169467   -6.439809    0.314141
    102          1           0       -4.208511   -2.095020    1.817970
    103          1           0       -3.893881   -3.390975    0.712693
    104          1           0       -4.754844   -0.992966   -0.799719
    105          1           0       -7.066235   -4.276510   -0.942463
    106          1           0       -7.524241   -3.689331    0.637412
    107          1           0       -5.894793   -4.299110    0.343992
    108          1           0       -7.553471   -2.309795   -2.192310
    109          1           0       -6.745189   -0.728357   -1.852922
    110          1           0       -9.229867   -1.923539   -0.569043
    111          1           0       -9.296368   -0.467317   -1.487742
    112          1           0       -7.347399   -0.156167    0.567830
    113          1           0       -8.621204   -0.977812    1.387711
    114          1           0      -10.004690    1.179270   -0.060341
    115          1           0       -7.408163    2.091792    0.213343
    116          1           0       -8.328045    2.836642    1.491230
    117          1           0       -8.828997    2.967095   -0.174936
    118          1           0       -9.340653    1.198715    2.904064
    119          1           0      -10.727028    0.208388    2.283395
    120          1           0      -11.487028    2.320252    1.044306
    121          1           0      -10.633033    3.161418    2.334274
    122          1           0      -12.288549    2.918266    3.786922
    123          1           0      -12.341495    1.159947    3.447387
    124          1           0      -13.387744    2.845129    1.370019
    125          1           0      -14.446962    3.110798    4.098968
    126          1           0      -15.764915    2.478384    3.068623
    127          1           0      -15.094511    4.010406    2.744368
    128          1           0      -15.140003    0.671746    2.185536
    129          1           0      -13.644420   -0.014120    1.887126
    130          1           0      -14.967207    2.031716    0.054219
    131          1           0      -15.526144    0.343979   -0.025518
    132          1           0      -13.470666   -0.568167   -0.670145
    133          1           0      -12.690456    0.980741   -0.767926
    134          1           0      -14.985780    1.414354   -2.323616
    135          1           0      -14.998127   -1.296353   -2.255334
    136          1           0      -14.415908   -0.952883   -3.849847
    137          1           0      -15.941057   -0.252520   -3.333604
    138          1           0      -11.990582    1.142075   -2.779909
    139          1           0      -13.256684    2.108326   -3.509124
    140          1           0      -13.033228    0.461035   -4.138960
 ---------------------------------------------------------------------

 SCF Done:  E(RwB97XD) =  -3007.81887077     A.U. after   19 cycles

 Excitation energies and oscillator strengths:

 Excited State   1:      Singlet-A      1.6754 eV  740.01 nm  f=0.3907  <S**2>=0.000
     245 -> 248        0.18286
     246 -> 247        0.68339
     245 <- 248        0.11346
 This state for optimization and/or second-order correction.
 Total Energy, E(TD-HF/TD-DFT) =  -3007.75729950
 Copying the excited state density for this state as the 1-particle RhoCI density.

 Excited State   2:      Singlet-A      2.1520 eV  576.14 nm  f=0.0876  <S**2>=0.000
     245 -> 247        0.63340
     246 -> 248       -0.29726

 Excited State   3:      Singlet-A      3.2904 eV  376.80 nm  f=0.0019  <S**2>=0.000
     239 -> 247        0.14980
     239 -> 249       -0.10833
     240 -> 247        0.48526
     240 -> 249       -0.32585
     241 -> 247       -0.24915
     241 -> 249        0.12410

 Excited State   4:      Singlet-A      3.3721 eV  367.67 nm  f=0.1173  <S**2>=0.000
     240 -> 247       -0.20430
     241 -> 247       -0.34927
     242 -> 247        0.24280
     243 -> 247        0.38616
     245 -> 247       -0.10449
     246 -> 248       -0.30510

 Excited State   5:      Singlet-A      3.4504 eV  359.33 nm  f=0.2799  <S**2>=0.000
     243 -> 247        0.47314
     243 -> 249        0.10109
     245 -> 247        0.19405
     246 -> 248        0.46409

 The electronic state is 1-A.
 Alpha  occ. eigenvalues --  -46.94645 -19.31001 -19.28447 -19.26446 -19.24286
 Alpha  occ. eigenvalues --  -19.24000 -19.23438 -14.47577 -14.47217 -14.44213
 Alpha  occ. eigenvalues --  -14.43451 -10.45209 -10.42524 -10.39000 -10.38436
 Alpha  occ. eigenvalues --  -10.37399 -10.36738 -10.35685 -10.34811 -10.34178
 Alpha  occ. eigenvalues --  -10.34093 -10.34062 -10.33845 -10.33738 -10.33327
 Alpha  occ. eigenvalues --  -10.33228 -10.33000 -10.32537 -10.32434 -10.32312
 Alpha  occ. eigenvalues --  -10.32033 -10.31856 -10.31851 -10.31819 -10.31634
 Alpha  occ. eigenvalues --  -10.31563 -10.31286 -10.31174 -10.30944 -10.30925
 Alpha  occ. eigenvalues --  -10.30728 -10.30676 -10.30532 -10.30445 -10.30143
 Alpha  occ. eigenvalues --  -10.30087 -10.30004 -10.29955 -10.29872 -10.29825
 Alpha  occ. eigenvalues --  -10.29601 -10.29490 -10.29484 -10.29187 -10.29087
 Alpha  occ. eigenvalues --  -10.28966 -10.28808 -10.28691 -10.28684 -10.28649
 Alpha  occ. eigenvalues --  -10.28605 -10.28519 -10.28186 -10.28124 -10.27988
 Alpha  occ. eigenvalues --  -10.27984  -3.20707  -1.94311  -1.93845  -1.93677
 Alpha  occ. eigenvalues --   -1.16787  -1.16086  -1.12408  -1.10980  -1.09034
 Alpha  occ. eigenvalues --   -1.08794  -1.07589  -1.05350  -1.04674  -1.03898
 Alpha  occ. eigenvalues --   -0.94944  -0.92192  -0.92021  -0.91649  -0.90930
 Alpha  occ. eigenvalues --   -0.90594  -0.90019  -0.89851  -0.89184  -0.88812
 Alpha  occ. eigenvalues --   -0.88117  -0.87409  -0.86603  -0.85815  -0.85320
 Alpha  occ. eigenvalues --   -0.84063  -0.83727  -0.83036  -0.82640  -0.82075
 Alpha  occ. eigenvalues --   -0.81222  -0.80770  -0.79891  -0.79087  -0.77821
 Alpha  occ. eigenvalues --   -0.77608  -0.77545  -0.77428  -0.76224  -0.75959
 Alpha  occ. eigenvalues --   -0.75228  -0.74771  -0.73715  -0.72651  -0.71583
 Alpha  occ. eigenvalues --   -0.70940  -0.70122  -0.68510  -0.68159  -0.67614
 Alpha  occ. eigenvalues --   -0.67320  -0.66689  -0.66440  -0.65773  -0.65603
 Alpha  occ. eigenvalues --   -0.65066  -0.64924  -0.64683  -0.62759  -0.62202
 Alpha  occ. eigenvalues --   -0.61734  -0.61180  -0.61053  -0.60542  -0.59805
 Alpha  occ. eigenvalues --   -0.59449  -0.59147  -0.58637  -0.58395  -0.57261
 Alpha  occ. eigenvalues --   -0.57235  -0.56836  -0.56619  -0.56277  -0.56237
 Alpha  occ. eigenvalues --   -0.55802  -0.55425  -0.54735  -0.54698  -0.54319
 Alpha  occ. eigenvalues --   -0.54279  -0.54142  -0.54022  -0.53977  -0.53886
 Alpha  occ. eigenvalues --   -0.53538  -0.53351  -0.53122  -0.52605  -0.52353
 Alpha  occ. eigenvalues --   -0.52225  -0.51794  -0.51738  -0.51640  -0.51535
 Alpha  occ. eigenvalues --   -0.51462  -0.51075  -0.50930  -0.50759  -0.50658
 Alpha  occ. eigenvalues --   -0.50355  -0.50219  -0.50126  -0.50080  -0.49753
 Alpha  occ. eigenvalues --   -0.49546  -0.49354  -0.48997  -0.48784  -0.48690
 Alpha  occ. eigenvalues --   -0.48423  -0.48276  -0.48204  -0.47849  -0.47754
 Alpha  occ. eigenvalues --   -0.47603  -0.47397  -0.47017  -0.46813  -0.46660
 Alpha  occ. eigenvalues --   -0.46589  -0.46228  -0.46117  -0.45918  -0.45652
 Alpha  occ. eigenvalues --   -0.45443  -0.45321  -0.45140  -0.44825  -0.44747
 Alpha  occ. eigenvalues --   -0.44731  -0.44571  -0.44303  -0.43943  -0.43887
 Alpha  occ. eigenvalues --   -0.43792  -0.43558  -0.43381  -0.43157  -0.43062
 Alpha  occ. eigenvalues --   -0.42893  -0.42576  -0.42478  -0.42228  -0.42210
 Alpha  occ. eigenvalues --   -0.42113  -0.41883  -0.41659  -0.40912  -0.40791
 Alpha  occ. eigenvalues --   -0.40318  -0.40120  -0.39599  -0.39454  -0.39140
 Alpha  occ. eigenvalues --   -0.38954  -0.38743  -0.38414  -0.38256  -0.38093
 Alpha  occ. eigenvalues --   -0.37541  -0.37172  -0.37106  -0.37041  -0.36824
 Alpha  occ. eigenvalues --   -0.35817  -0.35552  -0.35381  -0.33646  -0.33119
 Alpha  occ. eigenvalues --   -0.32683  -0.32404  -0.31354  -0.31010  -0.26245
 Alpha  occ. eigenvalues --   -0.23089
 Alpha virt. eigenvalues --   -0.07174  -0.00180   0.01725   0.04682   0.04727
 Alpha virt. eigenvalues --    0.05879   0.06282   0.07661   0.07889   0.09052
 Alpha virt. eigenvalues --    0.10351   0.10911   0.11118   0.11302   0.12148

 Mulliken charges:
               1
     1  Mg   0.977643
     2  C   -0.031399
     3  C   -0.084175
     4  C   -0.055849
     5  C   -0.094663
     6  N   -0.379567
     7  C    0.041634
     8  C   -0.043545
     9  C   -0.131457
    10  C    0.103849
    11  C    0.033153
    12  C   -0.003962
    13  C    0.004444
    14  C    0.271468
    15  O   -0.282783
    16  O   -0.394101
    17  N   -0.465428
    18  C    0.141881
    19  C   -0.185321
    20  C   -0.074615
    21  C    0.102138
    22  C    0.054833
    23  C    0.039647
    24  O   -0.226585
    25  C   -0.018547
    26  N   -0.361360
    27  C    0.039828
    28  C   -0.026907
    29  C   -0.079501
    30  C    0.074507
    31  C    0.023897
    32  C   -0.020391
    33  C   -0.026431
    34  N   -0.438238
    35  C    0.134438
    36  C   -0.161622
    37  C   -0.011619
    38  C    0.129274
    39  C    0.089841
    40  C    0.099619
    41  O   -0.232246
    42  C   -0.050106
    43  C    0.261854
    44  O   -0.241216
    45  O   -0.396808
    46  C    0.153438
    47  C    0.229390
    48  C   -0.129582
    49  C   -0.224005
    50  C    0.037611
    51  C    0.023096
    52  C   -0.049016
    53  C    0.066519
    54  C   -0.202181
    55  C   -0.032482
    56  C    0.035166
    57  C   -0.071138
    58  C    0.022132
    59  C   -0.198855
    60  C    0.005844
    61  C    0.044303
    62  C   -0.070213
    63  C   -0.008649
    64  C   -0.223357
    65  C    0.013925
    66  C    0.000991
    67  H   -0.014315
    68  H    0.014406
    69  H   -0.014373
    70  H    0.038245
    71  H    0.031683
    72  H    0.045240
    73  H    0.034720
    74  H    0.032545
    75  H    0.052409
    76  H    0.055702
    77  H    0.047819
    78  H    0.053297
    79  H    0.035198
    80  H    0.061993
    81  H    0.037305
    82  H    0.068150
    83  H    0.061108
    84  H    0.049886
    85  H    0.046253
    86  H    0.033282
    87  H    0.030921
    88  H    0.038886
    89  H    0.044660
    90  H    0.018904
    91  H    0.018903
    92  H    0.023480
    93  H    0.036202
    94  H    0.047324
    95  H    0.052475
    96  H    0.060130
    97  H    0.076910
    98  H    0.068455
    99  H    0.043299
   100  H    0.061205
   101  H    0.062787
   102  H    0.054814
   103  H    0.061147
   104  H    0.029336
   105  H    0.035588
   106  H    0.048634
   107  H    0.030686
   108  H    0.027714
   109  H    0.031553
   110  H    0.018135
   111  H    0.039412
   112  H    0.020050
   113  H    0.010569
   114  H    0.024650
   115  H    0.024678
   116  H    0.022975
   117  H    0.023519
   118  H    0.031937
   119  H    0.016516
   120  H    0.012897
   121  H    0.022413
   122  H    0.021916
   123  H    0.008924
   124  H    0.025872
   125  H    0.030678
   126  H    0.023403
   127  H    0.031327
   128  H    0.006387
   129  H    0.013288
   130  H    0.025021
   131  H    0.016288
   132  H    0.013674
   133  H    0.011579
   134  H    0.028693
   135  H    0.020839
   136  H    0.021706
   137  H    0.034296
   138  H    0.045127
   139  H    0.029373
   140  H    0.020851
 Sum of Mulliken charges =  -0.00000

 Dipole moment (field-independent basis, Debye):
    X=             -1.5931    Y=              2.1343    Z=             -1.4449  Tot=              3.0300
 Quadrupole moment (field-independent basis, Debye-Ang):
   XX=           -343.5597   YY=           -427.6579   ZZ=           -403.3982
   XY=             -8.9281   XZ=             -1.3133   YZ=             -7.6932

 Normal termination of Gaussian 16 at Thu Apr 28 16:03:44 2022.
