 Gaussian 16, Revision A.03,
 Gaussian 16:  ES64L-G16RevA.03 25-Dec-2016

 --------------------
 #p ZINDO=(nstates=5)
 --------------------

 -----------------------------
 step_1651_chromophore_1 ZINDO
 -----------------------------
 Symbolic Z-matrix:
 Charge =  0 Multiplicity = 1

                         Standard orientation:
 ---------------------------------------------------------------------
 Center     Atomic      Atomic             Coordinates (Angstroms)
 Number     Number       Type             X           Y           Z
 ---------------------------------------------------------------------
      1         12           0        6.099178    0.592130   -0.020625
      2          6           0        4.084186   -2.377622   -0.604308
      3          6           0        3.499439    2.469293   -0.992045
      4          6           0        8.194500    3.159527    0.056277
      5          6           0        8.722449   -1.562921    0.655691
      6          7           0        4.046304    0.096474   -0.683832
      7          6           0        3.384947   -1.129209   -0.888399
      8          6           0        1.892725   -0.934975   -1.358867
      9          6           0        1.877417    0.560135   -1.621737
     10          6           0        3.187473    1.127343   -1.056297
     11          6           0        1.630855    0.986728   -3.089338
     12          6           0        0.853050   -1.307529   -0.273380
     13          6           0       -0.654779   -1.095481   -0.639254
     14          6           0       -1.730148   -2.140543   -0.358253
     15          8           0       -1.899923   -3.276183   -0.891094
     16          8           0       -2.629750   -1.557743    0.594363
     17          7           0        5.870545    2.636117   -0.233694
     18          6           0        4.699425    3.226007   -0.589240
     19          6           0        4.912826    4.643399   -0.736827
     20          6           0        6.256346    4.864776   -0.285122
     21          6           0        6.874139    3.573860   -0.167827
     22          6           0        3.807180    5.583536   -1.183367
     23          6           0        6.952317    6.224769   -0.031609
     24          8           0        8.109489    6.302360    0.317233
     25          6           0        6.136097    7.489341   -0.113219
     26          7           0        8.090748    0.800662    0.353114
     27          6           0        8.795834    1.923278    0.176156
     28          6           0       10.308328    1.817259    0.229566
     29          6           0       10.465334    0.317459    0.664482
     30          6           0        8.967549   -0.184188    0.587089
     31          6           0       11.179828    2.190232   -1.010681
     32          6           0       11.049936    0.134376    2.075216
     33          6           0       10.163053   -0.241546    3.116156
     34          7           0        6.419002   -1.505667   -0.125842
     35          6           0        7.539762   -2.191205    0.322920
     36          6           0        7.324798   -3.639536    0.285744
     37          6           0        5.965887   -3.769628   -0.075224
     38          6           0        5.413256   -2.442683   -0.248285
     39          6           0        8.442615   -4.578038    0.472986
     40          6           0        4.900679   -4.673385   -0.185998
     41          8           0        4.713583   -5.865578    0.131118
     42          6           0        3.626113   -3.846137   -0.531551
     43          6           0        2.584165   -4.194425    0.481582
     44          8           0        2.476852   -3.687777    1.576758
     45          8           0        1.645487   -5.083567   -0.063894
     46          6           0        0.595954   -5.580445    0.832002
     47          6           0       -3.923643   -2.304247    0.786449
     48          6           0       -5.126658   -1.752451   -0.111449
     49          6           0       -6.323500   -2.370576   -0.553881
     50          6           0       -6.706091   -3.710085   -0.083687
     51          6           0       -7.288113   -1.574594   -1.433156
     52          6           0       -8.664844   -1.018398   -0.791194
     53          6           0       -8.424908   -0.317759    0.543763
     54          6           0       -9.311514    0.961702    0.751433
     55          6           0       -8.424419    2.273883    0.563573
     56          6           0      -10.081777    1.070286    2.114445
     57          6           0      -11.104837    2.217720    2.060336
     58          6           0      -12.380503    2.158244    3.011520
     59          6           0      -13.720854    2.256232    2.224523
     60          6           0      -14.814637    3.011114    3.077258
     61          6           0      -14.215415    0.884141    1.648058
     62          6           0      -14.676983    0.990659    0.195354
     63          6           0      -13.647906    0.479774   -0.911785
     64          6           0      -14.215280    0.647290   -2.406661
     65          6           0      -14.933885   -0.504102   -3.001495
     66          6           0      -12.973477    1.087974   -3.248943
     67          1           0        2.698424    3.129242   -1.329519
     68          1           0        8.867995    4.014221   -0.039657
     69          1           0        9.518020   -2.280820    0.863649
     70          1           0        1.596810   -1.525974   -2.226341
     71          1           0        1.035851    1.083098   -1.167026
     72          1           0        0.665793    1.482587   -3.193026
     73          1           0        1.829553    0.108100   -3.702743
     74          1           0        2.436149    1.686094   -3.314332
     75          1           0        1.151641   -0.843025    0.666107
     76          1           0        0.829070   -2.382200   -0.095485
     77          1           0       -0.685383   -0.915118   -1.713701
     78          1           0       -0.921452   -0.099495   -0.286813
     79          1           0        4.291484    6.408590   -1.705973
     80          1           0        3.128583    5.966706   -0.421272
     81          1           0        3.167532    5.009552   -1.854147
     82          1           0        6.034467    7.723617   -1.173048
     83          1           0        6.655310    8.229744    0.494554
     84          1           0        5.144990    7.276756    0.285171
     85          1           0       10.551225    2.471882    1.065798
     86          1           0       11.077915   -0.259226   -0.029417
     87          1           0       11.955198    1.462471   -1.252149
     88          1           0       11.779241    3.088209   -0.858737
     89          1           0       10.583045    2.340673   -1.909847
     90          1           0       11.488449    1.050973    2.469716
     91          1           0       11.895628   -0.554219    2.087746
     92          1           0       10.370572    0.331483    4.020186
     93          1           0       10.388941   -1.296434    3.272074
     94          1           0        9.132894    0.084852    2.973172
     95          1           0        8.888683   -4.434848    1.456764
     96          1           0        9.207542   -4.215974   -0.214175
     97          1           0        7.996133   -5.569326    0.391141
     98          1           0        3.258104   -4.128795   -1.517636
     99          1           0       -0.070298   -4.718349    0.844519
    100          1           0        0.992527   -5.817315    1.818820
    101          1           0        0.169467   -6.439809    0.314141
    102          1           0       -4.208511   -2.095020    1.817970
    103          1           0       -3.893881   -3.390975    0.712693
    104          1           0       -4.754844   -0.992966   -0.799719
    105          1           0       -7.066235   -4.276510   -0.942463
    106          1           0       -7.524241   -3.689331    0.637412
    107          1           0       -5.894793   -4.299110    0.343992
    108          1           0       -7.553471   -2.309795   -2.192310
    109          1           0       -6.745189   -0.728357   -1.852922
    110          1           0       -9.229867   -1.923539   -0.569043
    111          1           0       -9.296368   -0.467317   -1.487742
    112          1           0       -7.347399   -0.156167    0.567830
    113          1           0       -8.621204   -0.977812    1.387711
    114          1           0      -10.004690    1.179270   -0.060341
    115          1           0       -7.408163    2.091792    0.213343
    116          1           0       -8.328045    2.836642    1.491230
    117          1           0       -8.828997    2.967095   -0.174936
    118          1           0       -9.340653    1.198715    2.904064
    119          1           0      -10.727028    0.208388    2.283395
    120          1           0      -11.487028    2.320252    1.044306
    121          1           0      -10.633033    3.161418    2.334274
    122          1           0      -12.288549    2.918266    3.786922
    123          1           0      -12.341495    1.159947    3.447387
    124          1           0      -13.387744    2.845129    1.370019
    125          1           0      -14.446962    3.110798    4.098968
    126          1           0      -15.764915    2.478384    3.068623
    127          1           0      -15.094511    4.010406    2.744368
    128          1           0      -15.140003    0.671746    2.185536
    129          1           0      -13.644420   -0.014120    1.887126
    130          1           0      -14.967207    2.031716    0.054219
    131          1           0      -15.526144    0.343979   -0.025518
    132          1           0      -13.470666   -0.568167   -0.670145
    133          1           0      -12.690456    0.980741   -0.767926
    134          1           0      -14.985780    1.414354   -2.323616
    135          1           0      -14.998127   -1.296353   -2.255334
    136          1           0      -14.415908   -0.952883   -3.849847
    137          1           0      -15.941057   -0.252520   -3.333604
    138          1           0      -11.990582    1.142075   -2.779909
    139          1           0      -13.256684    2.108326   -3.509124
    140          1           0      -13.033228    0.461035   -4.138960
 ---------------------------------------------------------------------

 SCF Done:  E(RZINDO/S) =  -473.954342188     A.U. after   20 cycles

 Excitation energies and oscillator strengths:

 Excited State   1:      Singlet-A      1.3070 eV  948.65 nm  f=0.5649  <S**2>=0.000
     175 ->178         0.16289
     176 ->177         0.66878
 This state for optimization and/or second-order correction.
 Total Energy, E(CIS/TDA) =  -473.906312313
 Copying the excited state density for this state as the 1-particle RhoCI density.

 Excited State   2:      Singlet-A      1.9287 eV  642.84 nm  f=0.0244  <S**2>=0.000
     175 ->177         0.52559
     176 ->178        -0.42259
     176 ->179         0.13038

 Excited State   3:      Singlet-A      2.7817 eV  445.71 nm  f=0.0020  <S**2>=0.000
     168 ->177        -0.40289
     168 ->178         0.22267
     168 ->179         0.41036
     168 ->181        -0.16050
     168 ->186         0.18790
     168 ->195        -0.10445

 Excited State   4:      Singlet-A      2.9034 eV  427.03 nm  f=0.6284  <S**2>=0.000
     171 ->177        -0.12138
     175 ->177         0.33247
     176 ->178         0.51678
     176 ->179         0.25526

 Excited State   5:      Singlet-A      3.0631 eV  404.77 nm  f=0.5167  <S**2>=0.000
     175 ->177        -0.24241
     176 ->178        -0.13080
     176 ->179         0.58020
     176 ->181         0.20956

 The electronic state is 1-A.
 Alpha  occ. eigenvalues --   -1.84684  -1.81929  -1.78708  -1.71704  -1.70879
 Alpha  occ. eigenvalues --   -1.65940  -1.63365  -1.59122  -1.58601  -1.58212
 Alpha  occ. eigenvalues --   -1.54376  -1.51322  -1.49577  -1.48410  -1.47326
 Alpha  occ. eigenvalues --   -1.44426  -1.42555  -1.40390  -1.38863  -1.37648
 Alpha  occ. eigenvalues --   -1.36960  -1.36353  -1.32186  -1.30396  -1.30019
 Alpha  occ. eigenvalues --   -1.25651  -1.25063  -1.21247  -1.19515  -1.18071
 Alpha  occ. eigenvalues --   -1.16466  -1.15974  -1.14828  -1.14153  -1.12847
 Alpha  occ. eigenvalues --   -1.11722  -1.11401  -1.09299  -1.05797  -1.03643
 Alpha  occ. eigenvalues --   -1.03183  -1.00796  -0.98326  -0.97194  -0.97096
 Alpha  occ. eigenvalues --   -0.95629  -0.94511  -0.93666  -0.93060  -0.91891
 Alpha  occ. eigenvalues --   -0.89878  -0.89292  -0.89280  -0.88020  -0.86787
 Alpha  occ. eigenvalues --   -0.85238  -0.83529  -0.82540  -0.80255  -0.80110
 Alpha  occ. eigenvalues --   -0.79324  -0.78302  -0.77463  -0.77374  -0.76058
 Alpha  occ. eigenvalues --   -0.75141  -0.74822  -0.74645  -0.74404  -0.74088
 Alpha  occ. eigenvalues --   -0.73062  -0.72632  -0.72597  -0.72392  -0.71120
 Alpha  occ. eigenvalues --   -0.70758  -0.70226  -0.69245  -0.68363  -0.67660
 Alpha  occ. eigenvalues --   -0.67303  -0.66898  -0.66249  -0.65939  -0.65473
 Alpha  occ. eigenvalues --   -0.64957  -0.64897  -0.64480  -0.64287  -0.63687
 Alpha  occ. eigenvalues --   -0.63167  -0.62828  -0.62483  -0.62460  -0.61718
 Alpha  occ. eigenvalues --   -0.61109  -0.60443  -0.60315  -0.60256  -0.59677
 Alpha  occ. eigenvalues --   -0.59236  -0.59042  -0.58769  -0.58439  -0.58170
 Alpha  occ. eigenvalues --   -0.57999  -0.57777  -0.57234  -0.57020  -0.56583
 Alpha  occ. eigenvalues --   -0.55823  -0.55524  -0.55254  -0.55065  -0.54666
 Alpha  occ. eigenvalues --   -0.53758  -0.53587  -0.52620  -0.52609  -0.52498
 Alpha  occ. eigenvalues --   -0.52038  -0.51840  -0.51626  -0.51473  -0.51273
 Alpha  occ. eigenvalues --   -0.50981  -0.50836  -0.50463  -0.49969  -0.49937
 Alpha  occ. eigenvalues --   -0.49560  -0.49310  -0.49081  -0.48899  -0.48756
 Alpha  occ. eigenvalues --   -0.48528  -0.48066  -0.47965  -0.47871  -0.47766
 Alpha  occ. eigenvalues --   -0.47375  -0.47110  -0.47004  -0.46637  -0.46303
 Alpha  occ. eigenvalues --   -0.46004  -0.45959  -0.45805  -0.45544  -0.45255
 Alpha  occ. eigenvalues --   -0.45032  -0.44982  -0.44624  -0.44382  -0.43941
 Alpha  occ. eigenvalues --   -0.43926  -0.43643  -0.43158  -0.42348  -0.42164
 Alpha  occ. eigenvalues --   -0.41984  -0.41677  -0.41132  -0.39737  -0.38898
 Alpha  occ. eigenvalues --   -0.38235  -0.37510  -0.35935  -0.34729  -0.34052
 Alpha  occ. eigenvalues --   -0.33849  -0.32414  -0.31189  -0.31180  -0.26880
 Alpha  occ. eigenvalues --   -0.21796
 Alpha virt. eigenvalues --   -0.08325  -0.02443  -0.00997   0.00607   0.02027
 Alpha virt. eigenvalues --    0.02668   0.02951   0.03170   0.03265   0.04345
 Alpha virt. eigenvalues --    0.06236   0.06754   0.07044   0.07644   0.07947

 Mulliken charges:
               1
     1  Mg   0.429213
     2  C   -0.060474
     3  C   -0.071778
     4  C   -0.048517
     5  C   -0.078038
     6  N   -0.292043
     7  C    0.160175
     8  C    0.019340
     9  C    0.001863
    10  C    0.094422
    11  C   -0.059781
    12  C   -0.019752
    13  C    0.006575
    14  C    0.474670
    15  O   -0.511612
    16  O   -0.273484
    17  N   -0.316436
    18  C    0.070609
    19  C   -0.029771
    20  C   -0.055490
    21  C    0.110176
    22  C   -0.045460
    23  C    0.320040
    24  O   -0.527681
    25  C   -0.032531
    26  N   -0.242229
    27  C    0.105132
    28  C    0.004430
    29  C   -0.002000
    30  C    0.170934
    31  C   -0.048554
    32  C   -0.020425
    33  C   -0.049473
    34  N   -0.354395
    35  C    0.122975
    36  C    0.072715
    37  C   -0.040852
    38  C    0.139929
    39  C   -0.033339
    40  C    0.336313
    41  O   -0.525984
    42  C    0.060336
    43  C    0.497737
    44  O   -0.520932
    45  O   -0.283691
    46  C    0.074895
    47  C    0.096805
    48  C   -0.125901
    49  C    0.018873
    50  C   -0.034389
    51  C   -0.019433
    52  C   -0.032827
    53  C   -0.029443
    54  C   -0.021829
    55  C   -0.067587
    56  C   -0.027151
    57  C   -0.047169
    58  C   -0.044505
    59  C   -0.011377
    60  C   -0.059726
    61  C   -0.035247
    62  C   -0.040718
    63  C   -0.045980
    64  C   -0.011095
    65  C   -0.048521
    66  C   -0.065953
    67  H    0.017448
    68  H    0.030312
    69  H    0.029210
    70  H    0.038116
    71  H    0.023117
    72  H    0.028976
    73  H    0.022611
    74  H    0.022340
    75  H    0.037116
    76  H    0.029155
    77  H    0.034828
    78  H    0.032457
    79  H    0.022245
    80  H    0.031833
    81  H    0.021163
    82  H    0.043910
    83  H    0.041702
    84  H    0.030052
    85  H    0.037446
    86  H    0.029732
    87  H    0.016548
    88  H    0.022108
    89  H    0.025994
    90  H    0.015553
    91  H    0.011337
    92  H    0.007615
    93  H    0.023983
    94  H    0.031045
    95  H    0.036939
    96  H    0.044878
    97  H    0.045541
    98  H    0.050745
    99  H    0.044941
   100  H    0.052444
   101  H    0.039696
   102  H    0.032728
   103  H    0.059431
   104  H    0.027380
   105  H    0.025013
   106  H    0.029028
   107  H    0.025339
   108  H    0.021887
   109  H    0.026116
   110  H    0.010601
   111  H    0.031488
   112  H    0.027905
   113  H    0.016431
   114  H    0.027093
   115  H    0.014773
   116  H    0.016683
   117  H    0.013329
   118  H    0.028041
   119  H    0.018159
   120  H    0.021782
   121  H    0.013357
   122  H    0.024266
   123  H    0.015067
   124  H    0.021894
   125  H    0.020533
   126  H    0.018478
   127  H    0.019038
   128  H    0.005848
   129  H    0.028241
   130  H    0.022690
   131  H    0.014345
   132  H    0.017041
   133  H    0.019806
   134  H    0.021823
   135  H    0.013497
   136  H    0.017346
   137  H    0.018341
   138  H    0.032792
   139  H    0.011950
   140  H    0.022716
 Sum of Mulliken charges =  -0.00000

 Dipole moment (field-independent basis, Debye):
    X=             -1.6427    Y=              0.2747    Z=             -3.3603  Tot=              3.7504
 N-N= 4.227972109605D+03 E-N= 0.000000000000D+00  KE=-9.130282590976D+03
 Leave Link  601 at Thu Apr 28 16:16:38 2022, MaxMem=  6710886400 cpu:               1.1 elap:               0.1
 (Enter /sw/apps/gaussian-16.0/g16/l9999.exe)
 1\1\GINC-BP1-COMPUTE148\SP\RZINDO CIS\STO-3G\C55H74Mg1N4O6\OF15641\28-
 Apr-2022\0\\#p ZINDO=(nstates=5)\\step_1651_chromophore_1 ZINDO\\0,1\M
 g,0,-1.892,17.407,26.252\C,0,-2.429,15.034,28.954\C,0,-2.207,19.902,28
 .466\C,0,-1.907,19.444,23.637\C,0,-1.899,14.679,24.121\N,0,-2.244,17.4
 48,28.437\C,0,-2.459,16.428,29.383\C,0,-2.646,16.993,30.843\C,0,-2.746
 ,18.48,30.554\C,0,-2.356,18.677,29.082\C,0,-4.098,19.148,30.904\C,0,-1
 .444,16.699,31.774\C,0,-1.524,17.27,33.23\C,0,-1.174,16.444,34.464\O,0

 Normal termination of Gaussian 16 at Thu Apr 28 16:16:39 2022.
