 Gaussian 16, Revision A.03,
 Gaussian 16:  ES64L-G16RevA.03 25-Dec-2016

 ------------------------------
 #p blyp/Def2SVP td=(nstates=5)
 ------------------------------

 -------------------------------------------------
 step_401_chromophore_3 TDDFT with blyp functional
 -------------------------------------------------
 Symbolic Z-matrix:
 Charge =  0 Multiplicity = 1

                         Standard orientation:
 ---------------------------------------------------------------------
 Center     Atomic      Atomic             Coordinates (Angstroms)
 Number     Number       Type             X           Y           Z
 ---------------------------------------------------------------------
      1         12           0       -5.185793    1.012157   -0.183962
      2          6           0       -4.386814   -2.473428   -0.041254
      3          6           0       -1.877424    1.611941    0.142435
      4          6           0       -6.060414    4.256205    0.173677
      5          6           0       -8.575947    0.093520   -0.090569
      6          7           0       -3.401101   -0.315331   -0.050405
      7          6           0       -3.260679   -1.679334   -0.034548
      8          6           0       -1.900134   -2.220910   -0.124787
      9          6           0       -1.155176   -0.846819    0.217524
     10          6           0       -2.194189    0.253270    0.109164
     11          6           0       -0.438736   -0.697734    1.706931
     12          6           0       -1.514485   -2.749979   -1.451245
     13          6           0       -0.207495   -3.645464   -1.607376
     14          6           0        0.826640   -3.778489   -0.458708
     15          8           0        0.624141   -4.302716    0.632725
     16          8           0        2.071783   -3.229410   -0.792859
     17          7           0       -4.067120    2.673707   -0.013246
     18          6           0       -2.747311    2.733404    0.152209
     19          6           0       -2.402973    4.146195    0.367292
     20          6           0       -3.515289    4.929320    0.260643
     21          6           0       -4.693609    3.924074    0.115577
     22          6           0       -0.991462    4.504387    0.694012
     23          6           0       -3.723034    6.469919    0.239198
     24          8           0       -4.764944    6.908536   -0.175188
     25          6           0       -2.635840    7.439363    0.598149
     26          7           0       -7.034735    2.067639   -0.135434
     27          6           0       -7.159982    3.425180    0.062227
     28          6           0       -8.607049    3.880816    0.005615
     29          6           0       -9.371027    2.478811   -0.137892
     30          6           0       -8.235205    1.429322   -0.294709
     31          6           0       -9.086503    4.789281    1.075158
     32          6           0      -10.369043    2.378623   -1.298597
     33          6           0      -11.756901    1.747889   -0.979615
     34          7           0       -6.329917   -0.778399   -0.123009
     35          6           0       -7.683389   -0.991795   -0.079527
     36          6           0       -7.970494   -2.427952    0.043312
     37          6           0       -6.680066   -3.019323    0.038425
     38          6           0       -5.724358   -2.013638   -0.121129
     39          6           0       -9.263409   -2.968869    0.209897
     40          6           0       -6.033727   -4.284362    0.076993
     41          8           0       -6.486265   -5.403267    0.248710
     42          6           0       -4.494692   -3.998815   -0.119889
     43          6           0       -3.749556   -4.833643    0.893165
     44          8           0       -3.493348   -4.479534    2.035855
     45          8           0       -3.444454   -6.009601    0.232845
     46          6           0       -2.554927   -6.822350    0.981451
     47          6           0        3.135869   -3.309849    0.186565
     48          6           0        4.407433   -3.154752   -0.556899
     49          6           0        5.568012   -3.513202   -0.110004
     50          6           0        5.917325   -4.275023    1.162941
     51          6           0        6.676234   -3.289255   -1.090962
     52          6           0        7.919374   -2.480550   -0.655919
     53          6           0        8.209097   -1.471543   -1.722157
     54          6           0        9.408444   -0.489480   -1.337977
     55          6           0       10.671089   -1.058762   -2.023291
     56          6           0        9.220687    0.978973   -1.881634
     57          6           0        9.094175    2.030663   -0.788938
     58          6           0        9.649813    3.424203   -1.118806
     59          6           0       10.680182    3.973816   -0.080199
     60          6           0       10.564457    5.456011    0.138079
     61          6           0       12.141361    3.498676   -0.423760
     62          6           0       12.827077    2.707357    0.725460
     63          6           0       13.052706    1.241083    0.425649
     64          6           0       13.434927    0.457045    1.743129
     65          6           0       14.977580    0.448555    2.016756
     66          6           0       12.741402   -0.917382    1.796055
     67          1           0       -0.795223    1.755942    0.127280
     68          1           0       -6.506785    5.248483    0.264069
     69          1           0       -9.631140   -0.179542   -0.023145
     70          1           0       -1.891407   -3.060198    0.570079
     71          1           0       -0.353218   -0.887140   -0.519323
     72          1           0       -0.596317   -1.578746    2.328329
     73          1           0       -0.758092    0.176275    2.275021
     74          1           0        0.647532   -0.723758    1.614188
     75          1           0       -1.395839   -1.886804   -2.105673
     76          1           0       -2.374231   -3.301100   -1.833753
     77          1           0        0.298915   -3.246214   -2.486440
     78          1           0       -0.561146   -4.630203   -1.912934
     79          1           0       -0.428437    3.836491    1.346540
     80          1           0       -0.964984    5.487752    1.164933
     81          1           0       -0.407438    4.526556   -0.225200
     82          1           0       -1.777266    7.249424   -0.045408
     83          1           0       -2.497180    7.096385    1.623649
     84          1           0       -2.970498    8.475350    0.650025
     85          1           0       -8.802516    4.438220   -0.911038
     86          1           0       -9.925513    2.447720    0.800578
     87          1           0       -8.911766    5.760684    0.610977
     88          1           0       -8.584967    4.721668    2.039986
     89          1           0      -10.146714    4.690636    1.305965
     90          1           0       -9.908937    1.798226   -2.097936
     91          1           0      -10.691706    3.340420   -1.697491
     92          1           0      -11.858700    0.701029   -1.265152
     93          1           0      -12.545154    2.274254   -1.517500
     94          1           0      -11.836552    1.655008    0.104198
     95          1           0       -9.543891   -3.864105   -0.345293
     96          1           0      -10.050551   -2.216301    0.164906
     97          1           0       -9.340448   -3.472291    1.173330
     98          1           0       -4.248365   -4.348747   -1.122357
     99          1           0       -2.542978   -7.853200    0.626179
    100          1           0       -2.708535   -6.782838    2.059544
    101          1           0       -1.559342   -6.390865    0.878939
    102          1           0        3.128624   -4.266017    0.709452
    103          1           0        3.009304   -2.523998    0.932016
    104          1           0        4.349051   -2.623855   -1.507599
    105          1           0        5.145874   -4.922503    1.580958
    106          1           0        6.321692   -3.577509    1.896825
    107          1           0        6.664370   -5.024121    0.899157
    108          1           0        6.325186   -2.919076   -2.053729
    109          1           0        6.931079   -4.341703   -1.219343
    110          1           0        8.723684   -3.212508   -0.579471
    111          1           0        7.612828   -2.005345    0.276739
    112          1           0        7.365852   -0.850077   -2.024258
    113          1           0        8.563274   -2.109948   -2.531032
    114          1           0        9.680880   -0.590320   -0.287390
    115          1           0       11.477628   -0.350078   -2.213688
    116          1           0       10.568136   -1.578339   -2.975744
    117          1           0       11.127113   -1.787682   -1.354247
    118          1           0        8.348659    0.968439   -2.536046
    119          1           0        9.993149    1.398284   -2.526496
    120          1           0        9.537688    1.679507    0.142026
    121          1           0        8.044301    2.130886   -0.514613
    122          1           0        8.742622    4.013996   -1.251677
    123          1           0       10.184532    3.490865   -2.066869
    124          1           0       10.367880    3.560926    0.879544
    125          1           0       11.436725    5.877950    0.637074
    126          1           0        9.718696    5.520346    0.821553
    127          1           0       10.432325    6.114251   -0.720733
    128          1           0       12.724090    4.378709   -0.697454
    129          1           0       12.094542    2.865260   -1.308548
    130          1           0       12.342284    2.883666    1.685585
    131          1           0       13.849222    3.082989    0.766004
    132          1           0       13.936818    1.040753   -0.180215
    133          1           0       12.161423    0.724499    0.070023
    134          1           0       13.064108    0.974634    2.627843
    135          1           0       15.194744    0.584221    3.075594
    136          1           0       15.473972    1.081215    1.280982
    137          1           0       15.346785   -0.567912    1.881009
    138          1           0       12.796977   -1.426443    0.833646
    139          1           0       11.665962   -0.794554    1.919794
    140          1           0       13.106356   -1.480341    2.654976
 ---------------------------------------------------------------------

 SCF Done:  E(RB-LYP) =  -3007.36167205     A.U. after   21 cycles

 Excitation energies and oscillator strengths:

 Excited State   1:      Singlet-A      1.8233 eV  679.99 nm  f=0.2967  <S**2>=0.000
     245 -> 248        0.19358
     246 -> 247        0.68481
     246 <- 247       -0.14395
 This state for optimization and/or second-order correction.
 Total Energy, E(TD-HF/TD-DFT) =  -3007.29466615
 Copying the excited state density for this state as the 1-particle RhoCI density.

 Excited State   2:      Singlet-A      1.9509 eV  635.52 nm  f=0.0107  <S**2>=0.000
     244 -> 247        0.61110
     245 -> 247        0.33448

 Excited State   3:      Singlet-A      2.0867 eV  594.17 nm  f=0.0345  <S**2>=0.000
     243 -> 247       -0.28219
     244 -> 247       -0.32982
     245 -> 247        0.49131
     246 -> 248       -0.24555

 Excited State   4:      Singlet-A      2.1843 eV  567.63 nm  f=0.0125  <S**2>=0.000
     243 -> 247        0.64212
     245 -> 247        0.22293
     246 -> 248       -0.13885

 Excited State   5:      Singlet-A      2.5121 eV  493.55 nm  f=0.0059  <S**2>=0.000
     242 -> 247        0.68816

 The electronic state is 1-A.
 Alpha  occ. eigenvalues --  -46.26323 -18.82402 -18.81828 -18.77947 -18.76848
 Alpha  occ. eigenvalues --  -18.75887 -18.74941 -14.02820 -14.02702 -14.01628
 Alpha  occ. eigenvalues --  -14.00307 -10.05328 -10.03522 -10.00391  -9.98629
 Alpha  occ. eigenvalues --   -9.97664  -9.96857  -9.96350  -9.96032  -9.95840
 Alpha  occ. eigenvalues --   -9.95807  -9.95803  -9.95416  -9.94805  -9.94701
 Alpha  occ. eigenvalues --   -9.94346  -9.93893  -9.93870  -9.93486  -9.93102
 Alpha  occ. eigenvalues --   -9.93088  -9.93069  -9.93049  -9.93029  -9.92996
 Alpha  occ. eigenvalues --   -9.92784  -9.92765  -9.92757  -9.92658  -9.92602
 Alpha  occ. eigenvalues --   -9.92532  -9.92426  -9.92325  -9.92271  -9.92129
 Alpha  occ. eigenvalues --   -9.91967  -9.91839  -9.91799  -9.91776  -9.91739
 Alpha  occ. eigenvalues --   -9.91713  -9.91699  -9.91507  -9.91491  -9.91235
 Alpha  occ. eigenvalues --   -9.91218  -9.91196  -9.91080  -9.91020  -9.90948
 Alpha  occ. eigenvalues --   -9.90939  -9.90932  -9.90865  -9.90631  -9.90586
 Alpha  occ. eigenvalues --   -9.90192  -2.91011  -1.71455  -1.70866  -1.70738
 Alpha  occ. eigenvalues --   -0.97732  -0.97570  -0.92987  -0.90817  -0.90325
 Alpha  occ. eigenvalues --   -0.90211  -0.86635  -0.85457  -0.85082  -0.84219
 Alpha  occ. eigenvalues --   -0.75215  -0.74814  -0.73335  -0.73095  -0.72126
 Alpha  occ. eigenvalues --   -0.71805  -0.71769  -0.71105  -0.70721  -0.70641
 Alpha  occ. eigenvalues --   -0.70133  -0.69135  -0.68009  -0.67628  -0.67349
 Alpha  occ. eigenvalues --   -0.66538  -0.66359  -0.65641  -0.65317  -0.64821
 Alpha  occ. eigenvalues --   -0.64637  -0.62681  -0.62210  -0.61339  -0.61207
 Alpha  occ. eigenvalues --   -0.60413  -0.60072  -0.59604  -0.59560  -0.59078
 Alpha  occ. eigenvalues --   -0.58397  -0.57541  -0.56541  -0.55950  -0.53941
 Alpha  occ. eigenvalues --   -0.53681  -0.53479  -0.52626  -0.52156  -0.51480
 Alpha  occ. eigenvalues --   -0.51029  -0.50883  -0.50725  -0.50449  -0.50313
 Alpha  occ. eigenvalues --   -0.49955  -0.49358  -0.48606  -0.48245  -0.46830
 Alpha  occ. eigenvalues --   -0.46090  -0.45854  -0.45585  -0.45169  -0.44389
 Alpha  occ. eigenvalues --   -0.43721  -0.43483  -0.43274  -0.43041  -0.42711
 Alpha  occ. eigenvalues --   -0.42341  -0.42241  -0.41865  -0.41746  -0.41580
 Alpha  occ. eigenvalues --   -0.40962  -0.40819  -0.40674  -0.40592  -0.40168
 Alpha  occ. eigenvalues --   -0.39992  -0.39771  -0.39701  -0.39473  -0.39107
 Alpha  occ. eigenvalues --   -0.39077  -0.38845  -0.38709  -0.38377  -0.38305
 Alpha  occ. eigenvalues --   -0.38218  -0.37842  -0.37795  -0.37496  -0.37446
 Alpha  occ. eigenvalues --   -0.37375  -0.37094  -0.36895  -0.36768  -0.36434
 Alpha  occ. eigenvalues --   -0.36248  -0.35960  -0.35746  -0.35557  -0.35462
 Alpha  occ. eigenvalues --   -0.35333  -0.35209  -0.35013  -0.34771  -0.34713
 Alpha  occ. eigenvalues --   -0.34577  -0.34222  -0.34075  -0.33983  -0.33695
 Alpha  occ. eigenvalues --   -0.33518  -0.33421  -0.33303  -0.33190  -0.32988
 Alpha  occ. eigenvalues --   -0.32860  -0.32831  -0.32385  -0.32383  -0.32314
 Alpha  occ. eigenvalues --   -0.32275  -0.32087  -0.31907  -0.31844  -0.31790
 Alpha  occ. eigenvalues --   -0.31435  -0.31161  -0.30949  -0.30909  -0.30730
 Alpha  occ. eigenvalues --   -0.30513  -0.30124  -0.29991  -0.29913  -0.29734
 Alpha  occ. eigenvalues --   -0.29720  -0.29415  -0.29097  -0.28914  -0.28912
 Alpha  occ. eigenvalues --   -0.28806  -0.28360  -0.28246  -0.28072  -0.27629
 Alpha  occ. eigenvalues --   -0.27026  -0.26953  -0.26864  -0.26589  -0.26083
 Alpha  occ. eigenvalues --   -0.25899  -0.25762  -0.25654  -0.25518  -0.25243
 Alpha  occ. eigenvalues --   -0.25164  -0.24892  -0.24319  -0.24255  -0.23467
 Alpha  occ. eigenvalues --   -0.22980  -0.22674  -0.22203  -0.21684  -0.21161
 Alpha  occ. eigenvalues --   -0.20923  -0.19643  -0.18889  -0.18189  -0.17089
 Alpha  occ. eigenvalues --   -0.15398
 Alpha virt. eigenvalues --   -0.11025  -0.06793  -0.05631  -0.04467  -0.04218
 Alpha virt. eigenvalues --   -0.02295  -0.01627  -0.00789  -0.00705   0.00451
 Alpha virt. eigenvalues --    0.01218   0.01687   0.01704   0.02604   0.02755

 Mulliken charges:
               1
     1  Mg   0.692427
     2  C    0.030716
     3  C   -0.077766
     4  C   -0.001128
     5  C   -0.079309
     6  N   -0.194000
     7  C   -0.105384
     8  C    0.040886
     9  C    0.000387
    10  C    0.055254
    11  C    0.088983
    12  C    0.098167
    13  C    0.154177
    14  C    0.096820
    15  O   -0.191208
    16  O   -0.285821
    17  N   -0.316112
    18  C    0.151373
    19  C   -0.133749
    20  C    0.003446
    21  C    0.167011
    22  C    0.167994
    23  C   -0.083803
    24  O   -0.143420
    25  C    0.150967
    26  N   -0.245695
    27  C   -0.063470
    28  C    0.053974
    29  C   -0.023667
    30  C    0.103324
    31  C    0.123357
    32  C    0.085053
    33  C    0.057965
    34  N   -0.257754
    35  C    0.092060
    36  C   -0.114921
    37  C    0.105124
    38  C    0.066390
    39  C    0.172274
    40  C   -0.091455
    41  O   -0.126180
    42  C    0.024642
    43  C    0.123950
    44  O   -0.173169
    45  O   -0.253335
    46  C    0.221910
    47  C    0.338208
    48  C   -0.148044
    49  C   -0.121589
    50  C    0.154343
    51  C    0.113061
    52  C    0.105557
    53  C    0.079980
    54  C   -0.047170
    55  C    0.058031
    56  C    0.132092
    57  C    0.062651
    58  C    0.087677
    59  C   -0.072513
    60  C    0.107647
    61  C    0.138864
    62  C    0.079025
    63  C    0.084133
    64  C   -0.126812
    65  C    0.111767
    66  C    0.099760
    67  H   -0.060508
    68  H   -0.055046
    69  H   -0.064968
    70  H   -0.005962
    71  H   -0.025499
    72  H    0.006840
    73  H    0.005227
    74  H   -0.015482
    75  H   -0.027746
    76  H   -0.025641
    77  H   -0.011246
    78  H    0.009369
    79  H   -0.003658
    80  H   -0.024842
    81  H   -0.004669
    82  H    0.026623
    83  H    0.009260
    84  H   -0.004045
    85  H   -0.023816
    86  H   -0.031106
    87  H    0.003602
    88  H   -0.007895
    89  H   -0.012312
    90  H   -0.015972
    91  H   -0.025080
    92  H   -0.015802
    93  H   -0.004561
    94  H   -0.018507
    95  H   -0.009300
    96  H   -0.018847
    97  H   -0.004748
    98  H    0.011937
    99  H    0.010070
   100  H    0.007993
   101  H   -0.004849
   102  H   -0.004770
   103  H    0.001372
   104  H   -0.038655
   105  H   -0.007374
   106  H    0.013744
   107  H   -0.018294
   108  H   -0.033094
   109  H   -0.032067
   110  H   -0.027848
   111  H   -0.026455
   112  H   -0.022670
   113  H   -0.026377
   114  H   -0.020359
   115  H   -0.013603
   116  H   -0.022222
   117  H   -0.028395
   118  H   -0.044217
   119  H   -0.034907
   120  H   -0.032606
   121  H   -0.040426
   122  H   -0.042981
   123  H   -0.032367
   124  H   -0.040248
   125  H   -0.026914
   126  H   -0.020316
   127  H   -0.016056
   128  H   -0.040315
   129  H   -0.036635
   130  H   -0.020700
   131  H   -0.041072
   132  H   -0.025667
   133  H   -0.022650
   134  H   -0.040620
   135  H   -0.015277
   136  H   -0.009367
   137  H   -0.035088
   138  H   -0.010616
   139  H   -0.018980
   140  H   -0.017670
 Sum of Mulliken charges =  -0.00000

 Dipole moment (field-independent basis, Debye):
    X=              4.4317    Y=              2.7872    Z=             -1.4902  Tot=              5.4433
 Quadrupole moment (field-independent basis, Debye-Ang):
   XX=           -384.0612   YY=           -425.2289   ZZ=           -406.3997
   XY=            -27.7119   XZ=              7.9660   YZ=             14.4650

 Normal termination of Gaussian 16 at Fri Apr 29 18:37:11 2022.
