 Gaussian 16, Revision A.03,
 Gaussian 16:  ES64L-G16RevA.03 25-Dec-2016

 -----------------------------------
 #p cam-b3lyp/Def2SVP td=(nstates=5)
 -----------------------------------

 ------------------------------------------------------
 step_401_chromophore_3 TDDFT with cam-b3lyp functional
 ------------------------------------------------------
 Symbolic Z-matrix:
 Charge =  0 Multiplicity = 1

                         Standard orientation:
 ---------------------------------------------------------------------
 Center     Atomic      Atomic             Coordinates (Angstroms)
 Number     Number       Type             X           Y           Z
 ---------------------------------------------------------------------
      1         12           0       -5.185793    1.012157   -0.183962
      2          6           0       -4.386814   -2.473428   -0.041254
      3          6           0       -1.877424    1.611941    0.142435
      4          6           0       -6.060414    4.256205    0.173677
      5          6           0       -8.575947    0.093520   -0.090569
      6          7           0       -3.401101   -0.315331   -0.050405
      7          6           0       -3.260679   -1.679334   -0.034548
      8          6           0       -1.900134   -2.220910   -0.124787
      9          6           0       -1.155176   -0.846819    0.217524
     10          6           0       -2.194189    0.253270    0.109164
     11          6           0       -0.438736   -0.697734    1.706931
     12          6           0       -1.514485   -2.749979   -1.451245
     13          6           0       -0.207495   -3.645464   -1.607376
     14          6           0        0.826640   -3.778489   -0.458708
     15          8           0        0.624141   -4.302716    0.632725
     16          8           0        2.071783   -3.229410   -0.792859
     17          7           0       -4.067120    2.673707   -0.013246
     18          6           0       -2.747311    2.733404    0.152209
     19          6           0       -2.402973    4.146195    0.367292
     20          6           0       -3.515289    4.929320    0.260643
     21          6           0       -4.693609    3.924074    0.115577
     22          6           0       -0.991462    4.504387    0.694012
     23          6           0       -3.723034    6.469919    0.239198
     24          8           0       -4.764944    6.908536   -0.175188
     25          6           0       -2.635840    7.439363    0.598149
     26          7           0       -7.034735    2.067639   -0.135434
     27          6           0       -7.159982    3.425180    0.062227
     28          6           0       -8.607049    3.880816    0.005615
     29          6           0       -9.371027    2.478811   -0.137892
     30          6           0       -8.235205    1.429322   -0.294709
     31          6           0       -9.086503    4.789281    1.075158
     32          6           0      -10.369043    2.378623   -1.298597
     33          6           0      -11.756901    1.747889   -0.979615
     34          7           0       -6.329917   -0.778399   -0.123009
     35          6           0       -7.683389   -0.991795   -0.079527
     36          6           0       -7.970494   -2.427952    0.043312
     37          6           0       -6.680066   -3.019323    0.038425
     38          6           0       -5.724358   -2.013638   -0.121129
     39          6           0       -9.263409   -2.968869    0.209897
     40          6           0       -6.033727   -4.284362    0.076993
     41          8           0       -6.486265   -5.403267    0.248710
     42          6           0       -4.494692   -3.998815   -0.119889
     43          6           0       -3.749556   -4.833643    0.893165
     44          8           0       -3.493348   -4.479534    2.035855
     45          8           0       -3.444454   -6.009601    0.232845
     46          6           0       -2.554927   -6.822350    0.981451
     47          6           0        3.135869   -3.309849    0.186565
     48          6           0        4.407433   -3.154752   -0.556899
     49          6           0        5.568012   -3.513202   -0.110004
     50          6           0        5.917325   -4.275023    1.162941
     51          6           0        6.676234   -3.289255   -1.090962
     52          6           0        7.919374   -2.480550   -0.655919
     53          6           0        8.209097   -1.471543   -1.722157
     54          6           0        9.408444   -0.489480   -1.337977
     55          6           0       10.671089   -1.058762   -2.023291
     56          6           0        9.220687    0.978973   -1.881634
     57          6           0        9.094175    2.030663   -0.788938
     58          6           0        9.649813    3.424203   -1.118806
     59          6           0       10.680182    3.973816   -0.080199
     60          6           0       10.564457    5.456011    0.138079
     61          6           0       12.141361    3.498676   -0.423760
     62          6           0       12.827077    2.707357    0.725460
     63          6           0       13.052706    1.241083    0.425649
     64          6           0       13.434927    0.457045    1.743129
     65          6           0       14.977580    0.448555    2.016756
     66          6           0       12.741402   -0.917382    1.796055
     67          1           0       -0.795223    1.755942    0.127280
     68          1           0       -6.506785    5.248483    0.264069
     69          1           0       -9.631140   -0.179542   -0.023145
     70          1           0       -1.891407   -3.060198    0.570079
     71          1           0       -0.353218   -0.887140   -0.519323
     72          1           0       -0.596317   -1.578746    2.328329
     73          1           0       -0.758092    0.176275    2.275021
     74          1           0        0.647532   -0.723758    1.614188
     75          1           0       -1.395839   -1.886804   -2.105673
     76          1           0       -2.374231   -3.301100   -1.833753
     77          1           0        0.298915   -3.246214   -2.486440
     78          1           0       -0.561146   -4.630203   -1.912934
     79          1           0       -0.428437    3.836491    1.346540
     80          1           0       -0.964984    5.487752    1.164933
     81          1           0       -0.407438    4.526556   -0.225200
     82          1           0       -1.777266    7.249424   -0.045408
     83          1           0       -2.497180    7.096385    1.623649
     84          1           0       -2.970498    8.475350    0.650025
     85          1           0       -8.802516    4.438220   -0.911038
     86          1           0       -9.925513    2.447720    0.800578
     87          1           0       -8.911766    5.760684    0.610977
     88          1           0       -8.584967    4.721668    2.039986
     89          1           0      -10.146714    4.690636    1.305965
     90          1           0       -9.908937    1.798226   -2.097936
     91          1           0      -10.691706    3.340420   -1.697491
     92          1           0      -11.858700    0.701029   -1.265152
     93          1           0      -12.545154    2.274254   -1.517500
     94          1           0      -11.836552    1.655008    0.104198
     95          1           0       -9.543891   -3.864105   -0.345293
     96          1           0      -10.050551   -2.216301    0.164906
     97          1           0       -9.340448   -3.472291    1.173330
     98          1           0       -4.248365   -4.348747   -1.122357
     99          1           0       -2.542978   -7.853200    0.626179
    100          1           0       -2.708535   -6.782838    2.059544
    101          1           0       -1.559342   -6.390865    0.878939
    102          1           0        3.128624   -4.266017    0.709452
    103          1           0        3.009304   -2.523998    0.932016
    104          1           0        4.349051   -2.623855   -1.507599
    105          1           0        5.145874   -4.922503    1.580958
    106          1           0        6.321692   -3.577509    1.896825
    107          1           0        6.664370   -5.024121    0.899157
    108          1           0        6.325186   -2.919076   -2.053729
    109          1           0        6.931079   -4.341703   -1.219343
    110          1           0        8.723684   -3.212508   -0.579471
    111          1           0        7.612828   -2.005345    0.276739
    112          1           0        7.365852   -0.850077   -2.024258
    113          1           0        8.563274   -2.109948   -2.531032
    114          1           0        9.680880   -0.590320   -0.287390
    115          1           0       11.477628   -0.350078   -2.213688
    116          1           0       10.568136   -1.578339   -2.975744
    117          1           0       11.127113   -1.787682   -1.354247
    118          1           0        8.348659    0.968439   -2.536046
    119          1           0        9.993149    1.398284   -2.526496
    120          1           0        9.537688    1.679507    0.142026
    121          1           0        8.044301    2.130886   -0.514613
    122          1           0        8.742622    4.013996   -1.251677
    123          1           0       10.184532    3.490865   -2.066869
    124          1           0       10.367880    3.560926    0.879544
    125          1           0       11.436725    5.877950    0.637074
    126          1           0        9.718696    5.520346    0.821553
    127          1           0       10.432325    6.114251   -0.720733
    128          1           0       12.724090    4.378709   -0.697454
    129          1           0       12.094542    2.865260   -1.308548
    130          1           0       12.342284    2.883666    1.685585
    131          1           0       13.849222    3.082989    0.766004
    132          1           0       13.936818    1.040753   -0.180215
    133          1           0       12.161423    0.724499    0.070023
    134          1           0       13.064108    0.974634    2.627843
    135          1           0       15.194744    0.584221    3.075594
    136          1           0       15.473972    1.081215    1.280982
    137          1           0       15.346785   -0.567912    1.881009
    138          1           0       12.796977   -1.426443    0.833646
    139          1           0       11.665962   -0.794554    1.919794
    140          1           0       13.106356   -1.480341    2.654976
 ---------------------------------------------------------------------

 SCF Done:  E(RCAM-B3LYP) =  -3007.16397310     A.U. after   18 cycles

 Excitation energies and oscillator strengths:

 Excited State   1:      Singlet-A      1.7513 eV  707.94 nm  f=0.3693  <S**2>=0.000
     245 -> 248       -0.17930
     246 -> 247        0.68560
     245 <- 248       -0.10574
 This state for optimization and/or second-order correction.
 Total Energy, E(TD-HF/TD-DFT) =  -3007.09961271
 Copying the excited state density for this state as the 1-particle RhoCI density.

 Excited State   2:      Singlet-A      2.3078 eV  537.23 nm  f=0.0727  <S**2>=0.000
     245 -> 247        0.61462
     246 -> 248        0.33723

 Excited State   3:      Singlet-A      3.4198 eV  362.55 nm  f=0.0277  <S**2>=0.000
     244 -> 247        0.65259
     246 -> 248       -0.20950

 Excited State   4:      Singlet-A      3.5147 eV  352.76 nm  f=0.7843  <S**2>=0.000
     241 -> 247       -0.13030
     244 -> 247        0.20388
     245 -> 247       -0.32453
     246 -> 248        0.56520
     245 <- 247        0.10367

 Excited State   5:      Singlet-A      3.6224 eV  342.27 nm  f=0.0269  <S**2>=0.000
     243 -> 247        0.56564
     243 -> 249        0.28326
     243 -> 250        0.20825

 The electronic state is 1-A.
 Alpha  occ. eigenvalues --  -46.87877 -19.25213 -19.24655 -19.20961 -19.19879
 Alpha  occ. eigenvalues --  -19.19423 -19.17777 -14.41690 -14.41630 -14.40391
 Alpha  occ. eigenvalues --  -14.38529 -10.40737 -10.38961 -10.35827 -10.33645
 Alpha  occ. eigenvalues --  -10.31853 -10.31605 -10.31104 -10.30742 -10.30557
 Alpha  occ. eigenvalues --  -10.29893 -10.29848 -10.29586 -10.28825 -10.28491
 Alpha  occ. eigenvalues --  -10.28476 -10.28441 -10.28075 -10.27877 -10.27747
 Alpha  occ. eigenvalues --  -10.27199 -10.27057 -10.27053 -10.26959 -10.26927
 Alpha  occ. eigenvalues --  -10.26887 -10.26875 -10.26757 -10.26695 -10.26689
 Alpha  occ. eigenvalues --  -10.26566 -10.26477 -10.26324 -10.26314 -10.25947
 Alpha  occ. eigenvalues --  -10.25600 -10.25565 -10.25510 -10.25496 -10.25422
 Alpha  occ. eigenvalues --  -10.25381 -10.25142 -10.25106 -10.25041 -10.24903
 Alpha  occ. eigenvalues --  -10.24883 -10.24880 -10.24778 -10.24713 -10.24646
 Alpha  occ. eigenvalues --  -10.24628 -10.24573 -10.24557 -10.24211 -10.24204
 Alpha  occ. eigenvalues --  -10.23825  -3.16474  -1.91394  -1.90902  -1.90801
 Alpha  occ. eigenvalues --   -1.16140  -1.16002  -1.11756  -1.08909  -1.08153
 Alpha  occ. eigenvalues --   -1.08131  -1.04432  -1.03361  -1.02594  -1.01644
 Alpha  occ. eigenvalues --   -0.92170  -0.91735  -0.90101  -0.89910  -0.88814
 Alpha  occ. eigenvalues --   -0.88673  -0.88428  -0.87743  -0.87706  -0.87187
 Alpha  occ. eigenvalues --   -0.86486  -0.85417  -0.84283  -0.83880  -0.83449
 Alpha  occ. eigenvalues --   -0.82858  -0.82619  -0.81600  -0.81234  -0.80614
 Alpha  occ. eigenvalues --   -0.80398  -0.78353  -0.78059  -0.76727  -0.76647
 Alpha  occ. eigenvalues --   -0.75804  -0.75400  -0.74910  -0.74864  -0.74337
 Alpha  occ. eigenvalues --   -0.73435  -0.72443  -0.71468  -0.70791  -0.68590
 Alpha  occ. eigenvalues --   -0.68179  -0.67989  -0.67236  -0.66477  -0.65765
 Alpha  occ. eigenvalues --   -0.65171  -0.64995  -0.64671  -0.64518  -0.64328
 Alpha  occ. eigenvalues --   -0.63824  -0.63336  -0.62526  -0.61923  -0.60461
 Alpha  occ. eigenvalues --   -0.59719  -0.59348  -0.59106  -0.58512  -0.57768
 Alpha  occ. eigenvalues --   -0.57207  -0.56938  -0.56428  -0.56106  -0.55816
 Alpha  occ. eigenvalues --   -0.55452  -0.55278  -0.54940  -0.54717  -0.54570
 Alpha  occ. eigenvalues --   -0.53898  -0.53739  -0.53648  -0.53526  -0.53214
 Alpha  occ. eigenvalues --   -0.52590  -0.52524  -0.52238  -0.52129  -0.51921
 Alpha  occ. eigenvalues --   -0.51489  -0.51338  -0.51190  -0.51015  -0.50830
 Alpha  occ. eigenvalues --   -0.50672  -0.50570  -0.50298  -0.50286  -0.49785
 Alpha  occ. eigenvalues --   -0.49567  -0.49238  -0.49192  -0.48933  -0.48861
 Alpha  occ. eigenvalues --   -0.48644  -0.48244  -0.48107  -0.47679  -0.47616
 Alpha  occ. eigenvalues --   -0.47464  -0.47226  -0.47025  -0.46841  -0.46616
 Alpha  occ. eigenvalues --   -0.46490  -0.46383  -0.45860  -0.45730  -0.45583
 Alpha  occ. eigenvalues --   -0.45153  -0.45108  -0.45004  -0.44845  -0.44701
 Alpha  occ. eigenvalues --   -0.44511  -0.44439  -0.44414  -0.44038  -0.43891
 Alpha  occ. eigenvalues --   -0.43864  -0.43754  -0.43490  -0.43362  -0.43272
 Alpha  occ. eigenvalues --   -0.43162  -0.42985  -0.42748  -0.42509  -0.42110
 Alpha  occ. eigenvalues --   -0.41991  -0.41767  -0.41338  -0.41205  -0.41167
 Alpha  occ. eigenvalues --   -0.40848  -0.40595  -0.40433  -0.40071  -0.39932
 Alpha  occ. eigenvalues --   -0.39865  -0.39315  -0.39295  -0.39019  -0.38506
 Alpha  occ. eigenvalues --   -0.37992  -0.37827  -0.37729  -0.37390  -0.37056
 Alpha  occ. eigenvalues --   -0.37003  -0.36777  -0.36562  -0.36321  -0.36040
 Alpha  occ. eigenvalues --   -0.35663  -0.35642  -0.35438  -0.34818  -0.34722
 Alpha  occ. eigenvalues --   -0.34152  -0.33782  -0.32720  -0.31800  -0.31382
 Alpha  occ. eigenvalues --   -0.30762  -0.30573  -0.29784  -0.28503  -0.23985
 Alpha  occ. eigenvalues --   -0.20690
 Alpha virt. eigenvalues --   -0.07980  -0.01687   0.00947   0.02498   0.03413
 Alpha virt. eigenvalues --    0.03928   0.05277   0.05786   0.06434   0.06798
 Alpha virt. eigenvalues --    0.07770   0.08064   0.08910   0.09000   0.09197

 Mulliken charges:
               1
     1  Mg   0.827309
     2  C    0.006862
     3  C   -0.096845
     4  C   -0.024905
     5  C   -0.073445
     6  N   -0.267017
     7  C   -0.058121
     8  C   -0.013965
     9  C   -0.055926
    10  C    0.071860
    11  C    0.036883
    12  C    0.050224
    13  C    0.086541
    14  C    0.173072
    15  O   -0.230918
    16  O   -0.352489
    17  N   -0.408844
    18  C    0.173216
    19  C   -0.143763
    20  C   -0.054589
    21  C    0.192940
    22  C    0.107889
    23  C   -0.007780
    24  O   -0.181185
    25  C    0.069902
    26  N   -0.318414
    27  C   -0.032521
    28  C    0.000868
    29  C   -0.084017
    30  C    0.115375
    31  C    0.059229
    32  C    0.029233
    33  C   -0.003324
    34  N   -0.343931
    35  C    0.090232
    36  C   -0.112267
    37  C    0.024385
    38  C    0.101239
    39  C    0.113216
    40  C    0.011010
    41  O   -0.167959
    42  C   -0.052369
    43  C    0.210227
    44  O   -0.210123
    45  O   -0.315378
    46  C    0.176471
    47  C    0.306536
    48  C   -0.165972
    49  C   -0.145791
    50  C    0.092613
    51  C    0.056810
    52  C    0.046600
    53  C    0.026639
    54  C   -0.104856
    55  C    0.005767
    56  C    0.080599
    57  C    0.010817
    58  C    0.033589
    59  C   -0.129783
    60  C    0.050760
    61  C    0.084679
    62  C    0.022584
    63  C    0.034735
    64  C   -0.179495
    65  C    0.049828
    66  C    0.044232
    67  H   -0.023807
    68  H   -0.013804
    69  H   -0.031809
    70  H    0.028044
    71  H    0.009343
    72  H    0.032949
    73  H    0.029636
    74  H    0.006542
    75  H    0.002750
    76  H    0.005621
    77  H    0.024527
    78  H    0.040831
    79  H    0.026309
    80  H    0.003905
    81  H    0.025158
    82  H    0.052600
    83  H    0.034037
    84  H    0.032314
    85  H    0.012237
    86  H    0.002425
    87  H    0.026298
    88  H    0.019173
    89  H    0.014654
    90  H    0.014482
    91  H    0.003046
    92  H    0.006982
    93  H    0.020140
    94  H    0.004190
    95  H    0.018698
    96  H    0.003776
    97  H    0.022138
    98  H    0.052691
    99  H    0.034120
   100  H    0.034936
   101  H    0.017266
   102  H    0.023617
   103  H    0.026277
   104  H   -0.001922
   105  H    0.018663
   106  H    0.037375
   107  H    0.007334
   108  H   -0.002685
   109  H   -0.003631
   110  H    0.001320
   111  H    0.000724
   112  H    0.004934
   113  H    0.001330
   114  H    0.007075
   115  H    0.008785
   116  H    0.003114
   117  H   -0.006023
   118  H   -0.015012
   119  H   -0.007273
   120  H   -0.007155
   121  H   -0.011332
   122  H   -0.011512
   123  H   -0.004858
   124  H   -0.009062
   125  H   -0.001902
   126  H    0.003517
   127  H    0.007637
   128  H   -0.009370
   129  H   -0.009668
   130  H    0.006604
   131  H   -0.011959
   132  H    0.001636
   133  H   -0.002949
   134  H   -0.009287
   135  H    0.009636
   136  H    0.013467
   137  H   -0.009298
   138  H    0.009873
   139  H    0.003219
   140  H    0.007377
 Sum of Mulliken charges =  -0.00000

 Dipole moment (field-independent basis, Debye):
    X=              4.9808    Y=              3.8936    Z=             -1.4764  Tot=              6.4921
 Quadrupole moment (field-independent basis, Debye-Ang):
   XX=           -387.2091   YY=           -420.3542   ZZ=           -406.3665
   XY=            -32.7812   XZ=              8.0674   YZ=             15.7617

 Normal termination of Gaussian 16 at Fri Apr 29 17:38:36 2022.
