 Gaussian 16, Revision A.03,
 Gaussian 16:  ES64L-G16RevA.03 25-Dec-2016

 ---------------------------------
 #p PBE1PBE/Def2SVP td=(nstates=5)
 ---------------------------------

 ----------------------------------------------------
 step_401_chromophore_3 TDDFT with PBE1PBE functional
 ----------------------------------------------------
 Symbolic Z-matrix:
 Charge =  0 Multiplicity = 1

                         Standard orientation:
 ---------------------------------------------------------------------
 Center     Atomic      Atomic             Coordinates (Angstroms)
 Number     Number       Type             X           Y           Z
 ---------------------------------------------------------------------
      1         12           0       -5.185793    1.012157   -0.183962
      2          6           0       -4.386814   -2.473428   -0.041254
      3          6           0       -1.877424    1.611941    0.142435
      4          6           0       -6.060414    4.256205    0.173677
      5          6           0       -8.575947    0.093520   -0.090569
      6          7           0       -3.401101   -0.315331   -0.050405
      7          6           0       -3.260679   -1.679334   -0.034548
      8          6           0       -1.900134   -2.220910   -0.124787
      9          6           0       -1.155176   -0.846819    0.217524
     10          6           0       -2.194189    0.253270    0.109164
     11          6           0       -0.438736   -0.697734    1.706931
     12          6           0       -1.514485   -2.749979   -1.451245
     13          6           0       -0.207495   -3.645464   -1.607376
     14          6           0        0.826640   -3.778489   -0.458708
     15          8           0        0.624141   -4.302716    0.632725
     16          8           0        2.071783   -3.229410   -0.792859
     17          7           0       -4.067120    2.673707   -0.013246
     18          6           0       -2.747311    2.733404    0.152209
     19          6           0       -2.402973    4.146195    0.367292
     20          6           0       -3.515289    4.929320    0.260643
     21          6           0       -4.693609    3.924074    0.115577
     22          6           0       -0.991462    4.504387    0.694012
     23          6           0       -3.723034    6.469919    0.239198
     24          8           0       -4.764944    6.908536   -0.175188
     25          6           0       -2.635840    7.439363    0.598149
     26          7           0       -7.034735    2.067639   -0.135434
     27          6           0       -7.159982    3.425180    0.062227
     28          6           0       -8.607049    3.880816    0.005615
     29          6           0       -9.371027    2.478811   -0.137892
     30          6           0       -8.235205    1.429322   -0.294709
     31          6           0       -9.086503    4.789281    1.075158
     32          6           0      -10.369043    2.378623   -1.298597
     33          6           0      -11.756901    1.747889   -0.979615
     34          7           0       -6.329917   -0.778399   -0.123009
     35          6           0       -7.683389   -0.991795   -0.079527
     36          6           0       -7.970494   -2.427952    0.043312
     37          6           0       -6.680066   -3.019323    0.038425
     38          6           0       -5.724358   -2.013638   -0.121129
     39          6           0       -9.263409   -2.968869    0.209897
     40          6           0       -6.033727   -4.284362    0.076993
     41          8           0       -6.486265   -5.403267    0.248710
     42          6           0       -4.494692   -3.998815   -0.119889
     43          6           0       -3.749556   -4.833643    0.893165
     44          8           0       -3.493348   -4.479534    2.035855
     45          8           0       -3.444454   -6.009601    0.232845
     46          6           0       -2.554927   -6.822350    0.981451
     47          6           0        3.135869   -3.309849    0.186565
     48          6           0        4.407433   -3.154752   -0.556899
     49          6           0        5.568012   -3.513202   -0.110004
     50          6           0        5.917325   -4.275023    1.162941
     51          6           0        6.676234   -3.289255   -1.090962
     52          6           0        7.919374   -2.480550   -0.655919
     53          6           0        8.209097   -1.471543   -1.722157
     54          6           0        9.408444   -0.489480   -1.337977
     55          6           0       10.671089   -1.058762   -2.023291
     56          6           0        9.220687    0.978973   -1.881634
     57          6           0        9.094175    2.030663   -0.788938
     58          6           0        9.649813    3.424203   -1.118806
     59          6           0       10.680182    3.973816   -0.080199
     60          6           0       10.564457    5.456011    0.138079
     61          6           0       12.141361    3.498676   -0.423760
     62          6           0       12.827077    2.707357    0.725460
     63          6           0       13.052706    1.241083    0.425649
     64          6           0       13.434927    0.457045    1.743129
     65          6           0       14.977580    0.448555    2.016756
     66          6           0       12.741402   -0.917382    1.796055
     67          1           0       -0.795223    1.755942    0.127280
     68          1           0       -6.506785    5.248483    0.264069
     69          1           0       -9.631140   -0.179542   -0.023145
     70          1           0       -1.891407   -3.060198    0.570079
     71          1           0       -0.353218   -0.887140   -0.519323
     72          1           0       -0.596317   -1.578746    2.328329
     73          1           0       -0.758092    0.176275    2.275021
     74          1           0        0.647532   -0.723758    1.614188
     75          1           0       -1.395839   -1.886804   -2.105673
     76          1           0       -2.374231   -3.301100   -1.833753
     77          1           0        0.298915   -3.246214   -2.486440
     78          1           0       -0.561146   -4.630203   -1.912934
     79          1           0       -0.428437    3.836491    1.346540
     80          1           0       -0.964984    5.487752    1.164933
     81          1           0       -0.407438    4.526556   -0.225200
     82          1           0       -1.777266    7.249424   -0.045408
     83          1           0       -2.497180    7.096385    1.623649
     84          1           0       -2.970498    8.475350    0.650025
     85          1           0       -8.802516    4.438220   -0.911038
     86          1           0       -9.925513    2.447720    0.800578
     87          1           0       -8.911766    5.760684    0.610977
     88          1           0       -8.584967    4.721668    2.039986
     89          1           0      -10.146714    4.690636    1.305965
     90          1           0       -9.908937    1.798226   -2.097936
     91          1           0      -10.691706    3.340420   -1.697491
     92          1           0      -11.858700    0.701029   -1.265152
     93          1           0      -12.545154    2.274254   -1.517500
     94          1           0      -11.836552    1.655008    0.104198
     95          1           0       -9.543891   -3.864105   -0.345293
     96          1           0      -10.050551   -2.216301    0.164906
     97          1           0       -9.340448   -3.472291    1.173330
     98          1           0       -4.248365   -4.348747   -1.122357
     99          1           0       -2.542978   -7.853200    0.626179
    100          1           0       -2.708535   -6.782838    2.059544
    101          1           0       -1.559342   -6.390865    0.878939
    102          1           0        3.128624   -4.266017    0.709452
    103          1           0        3.009304   -2.523998    0.932016
    104          1           0        4.349051   -2.623855   -1.507599
    105          1           0        5.145874   -4.922503    1.580958
    106          1           0        6.321692   -3.577509    1.896825
    107          1           0        6.664370   -5.024121    0.899157
    108          1           0        6.325186   -2.919076   -2.053729
    109          1           0        6.931079   -4.341703   -1.219343
    110          1           0        8.723684   -3.212508   -0.579471
    111          1           0        7.612828   -2.005345    0.276739
    112          1           0        7.365852   -0.850077   -2.024258
    113          1           0        8.563274   -2.109948   -2.531032
    114          1           0        9.680880   -0.590320   -0.287390
    115          1           0       11.477628   -0.350078   -2.213688
    116          1           0       10.568136   -1.578339   -2.975744
    117          1           0       11.127113   -1.787682   -1.354247
    118          1           0        8.348659    0.968439   -2.536046
    119          1           0        9.993149    1.398284   -2.526496
    120          1           0        9.537688    1.679507    0.142026
    121          1           0        8.044301    2.130886   -0.514613
    122          1           0        8.742622    4.013996   -1.251677
    123          1           0       10.184532    3.490865   -2.066869
    124          1           0       10.367880    3.560926    0.879544
    125          1           0       11.436725    5.877950    0.637074
    126          1           0        9.718696    5.520346    0.821553
    127          1           0       10.432325    6.114251   -0.720733
    128          1           0       12.724090    4.378709   -0.697454
    129          1           0       12.094542    2.865260   -1.308548
    130          1           0       12.342284    2.883666    1.685585
    131          1           0       13.849222    3.082989    0.766004
    132          1           0       13.936818    1.040753   -0.180215
    133          1           0       12.161423    0.724499    0.070023
    134          1           0       13.064108    0.974634    2.627843
    135          1           0       15.194744    0.584221    3.075594
    136          1           0       15.473972    1.081215    1.280982
    137          1           0       15.346785   -0.567912    1.881009
    138          1           0       12.796977   -1.426443    0.833646
    139          1           0       11.665962   -0.794554    1.919794
    140          1           0       13.106356   -1.480341    2.654976
 ---------------------------------------------------------------------

 SCF Done:  E(RPBE1PBE) =  -3005.35182108     A.U. after   15 cycles

 Excitation energies and oscillator strengths:

 Excited State   1:      Singlet-A      1.8809 eV  659.18 nm  f=0.3589  <S**2>=0.000
     245 -> 248        0.17648
     246 -> 247        0.69122
     246 <- 247       -0.10316
 This state for optimization and/or second-order correction.
 Total Energy, E(TD-HF/TD-DFT) =  -3005.28269974
 Copying the excited state density for this state as the 1-particle RhoCI density.

 Excited State   2:      Singlet-A      2.3075 eV  537.30 nm  f=0.0756  <S**2>=0.000
     245 -> 247        0.62923
     246 -> 248       -0.30983

 Excited State   3:      Singlet-A      3.0398 eV  407.87 nm  f=0.0029  <S**2>=0.000
     244 -> 247        0.69420

 Excited State   4:      Singlet-A      3.0458 eV  407.07 nm  f=0.0055  <S**2>=0.000
     243 -> 247        0.67067
     243 -> 249       -0.15769

 Excited State   5:      Singlet-A      3.2937 eV  376.42 nm  f=0.2362  <S**2>=0.000
     241 -> 247        0.45532
     241 -> 249        0.11682
     245 -> 247       -0.19446
     246 -> 248       -0.42533

 The electronic state is 1-A.
 Alpha  occ. eigenvalues --  -46.91240 -19.25932 -19.25412 -19.21213 -19.20201
 Alpha  occ. eigenvalues --  -19.19405 -19.18237 -14.41160 -14.41142 -14.39879
 Alpha  occ. eigenvalues --  -14.38330 -10.37791 -10.36070 -10.32766 -10.30984
 Alpha  occ. eigenvalues --  -10.29293 -10.29001 -10.28572 -10.28048 -10.28035
 Alpha  occ. eigenvalues --  -10.27853 -10.27465 -10.27130 -10.26486 -10.26364
 Alpha  occ. eigenvalues --  -10.26267 -10.25806 -10.25801 -10.25472 -10.25412
 Alpha  occ. eigenvalues --  -10.25006 -10.24980 -10.24786 -10.24752 -10.24628
 Alpha  occ. eigenvalues --  -10.24575 -10.24497 -10.24158 -10.24155 -10.24118
 Alpha  occ. eigenvalues --  -10.24060 -10.24048 -10.23991 -10.23986 -10.23400
 Alpha  occ. eigenvalues --  -10.23276 -10.23199 -10.23175 -10.22970 -10.22967
 Alpha  occ. eigenvalues --  -10.22948 -10.22744 -10.22666 -10.22594 -10.22444
 Alpha  occ. eigenvalues --  -10.22430 -10.22389 -10.22327 -10.22246 -10.22187
 Alpha  occ. eigenvalues --  -10.22075 -10.22024 -10.21942 -10.21821 -10.21624
 Alpha  occ. eigenvalues --  -10.21565  -3.13416  -1.86278  -1.85762  -1.85666
 Alpha  occ. eigenvalues --   -1.10946  -1.10870  -1.06295  -1.03863  -1.03039
 Alpha  occ. eigenvalues --   -1.03022  -0.98999  -0.97816  -0.97292  -0.96369
 Alpha  occ. eigenvalues --   -0.86656  -0.85929  -0.84394  -0.83989  -0.82929
 Alpha  occ. eigenvalues --   -0.82890  -0.82687  -0.81818  -0.81790  -0.81549
 Alpha  occ. eigenvalues --   -0.80924  -0.79607  -0.78497  -0.78119  -0.77828
 Alpha  occ. eigenvalues --   -0.76841  -0.76788  -0.75830  -0.75502  -0.75003
 Alpha  occ. eigenvalues --   -0.74607  -0.72658  -0.72208  -0.71024  -0.70911
 Alpha  occ. eigenvalues --   -0.69878  -0.69765  -0.69226  -0.69046  -0.68487
 Alpha  occ. eigenvalues --   -0.67778  -0.66930  -0.65816  -0.65174  -0.62933
 Alpha  occ. eigenvalues --   -0.62679  -0.62276  -0.61575  -0.60763  -0.60159
 Alpha  occ. eigenvalues --   -0.59572  -0.59271  -0.59236  -0.58815  -0.58634
 Alpha  occ. eigenvalues --   -0.58270  -0.57472  -0.56712  -0.56560  -0.54922
 Alpha  occ. eigenvalues --   -0.54190  -0.53851  -0.53654  -0.53130  -0.52441
 Alpha  occ. eigenvalues --   -0.51693  -0.51419  -0.50904  -0.50515  -0.50341
 Alpha  occ. eigenvalues --   -0.49932  -0.49857  -0.49429  -0.49212  -0.48917
 Alpha  occ. eigenvalues --   -0.48573  -0.48337  -0.48107  -0.47966  -0.47523
 Alpha  occ. eigenvalues --   -0.47133  -0.47033  -0.46796  -0.46699  -0.46464
 Alpha  occ. eigenvalues --   -0.45996  -0.45900  -0.45700  -0.45588  -0.45424
 Alpha  occ. eigenvalues --   -0.45179  -0.45113  -0.44866  -0.44808  -0.44360
 Alpha  occ. eigenvalues --   -0.44044  -0.43948  -0.43720  -0.43501  -0.43428
 Alpha  occ. eigenvalues --   -0.43187  -0.42858  -0.42760  -0.42364  -0.42323
 Alpha  occ. eigenvalues --   -0.42103  -0.41838  -0.41540  -0.41478  -0.41251
 Alpha  occ. eigenvalues --   -0.41094  -0.41051  -0.40663  -0.40377  -0.40273
 Alpha  occ. eigenvalues --   -0.40007  -0.39839  -0.39752  -0.39557  -0.39528
 Alpha  occ. eigenvalues --   -0.39293  -0.39089  -0.39067  -0.38842  -0.38690
 Alpha  occ. eigenvalues --   -0.38611  -0.38527  -0.38326  -0.38162  -0.38015
 Alpha  occ. eigenvalues --   -0.37897  -0.37715  -0.37400  -0.37332  -0.36935
 Alpha  occ. eigenvalues --   -0.36797  -0.36632  -0.36214  -0.35969  -0.35911
 Alpha  occ. eigenvalues --   -0.35812  -0.35474  -0.35275  -0.35010  -0.34710
 Alpha  occ. eigenvalues --   -0.34622  -0.34142  -0.34053  -0.33813  -0.33342
 Alpha  occ. eigenvalues --   -0.32946  -0.32748  -0.32622  -0.32233  -0.32018
 Alpha  occ. eigenvalues --   -0.31901  -0.31616  -0.31561  -0.31209  -0.31139
 Alpha  occ. eigenvalues --   -0.30643  -0.30606  -0.30345  -0.29692  -0.29565
 Alpha  occ. eigenvalues --   -0.29202  -0.28954  -0.28237  -0.27191  -0.26306
 Alpha  occ. eigenvalues --   -0.25896  -0.25862  -0.24893  -0.24391  -0.20841
 Alpha  occ. eigenvalues --   -0.18303
 Alpha virt. eigenvalues --   -0.10532  -0.05153  -0.03297  -0.01843  -0.01079
 Alpha virt. eigenvalues --    0.00687   0.01082   0.01620   0.02344   0.03198
 Alpha virt. eigenvalues --    0.03943   0.04536   0.04819   0.05569   0.05679

 Mulliken charges:
               1
     1  Mg   0.978472
     2  C    0.000088
     3  C   -0.081784
     4  C   -0.021984
     5  C   -0.065920
     6  N   -0.376532
     7  C    0.013705
     8  C   -0.086707
     9  C   -0.130299
    10  C    0.099716
    11  C   -0.019220
    12  C    0.001387
    13  C    0.015599
    14  C    0.235466
    15  O   -0.264306
    16  O   -0.385049
    17  N   -0.528714
    18  C    0.202726
    19  C   -0.184272
    20  C   -0.094969
    21  C    0.215264
    22  C    0.052136
    23  C    0.040088
    24  O   -0.217487
    25  C   -0.004984
    26  N   -0.428216
    27  C    0.010605
    28  C   -0.073800
    29  C   -0.168935
    30  C    0.153808
    31  C    0.000846
    32  C   -0.025722
    33  C   -0.075177
    34  N   -0.467711
    35  C    0.119011
    36  C   -0.136505
    37  C   -0.025075
    38  C    0.156340
    39  C    0.064782
    40  C    0.110039
    41  O   -0.213278
    42  C   -0.163220
    43  C    0.293039
    44  O   -0.245062
    45  O   -0.346797
    46  C    0.118906
    47  C    0.269399
    48  C   -0.176449
    49  C   -0.190668
    50  C    0.032060
    51  C   -0.003479
    52  C   -0.019603
    53  C   -0.031068
    54  C   -0.195666
    55  C   -0.051405
    56  C    0.029052
    57  C   -0.048855
    58  C   -0.020086
    59  C   -0.218431
    60  C   -0.008201
    61  C    0.033063
    62  C   -0.042747
    63  C   -0.038338
    64  C   -0.258785
    65  C   -0.011375
    66  C   -0.026565
    67  H    0.008374
    68  H    0.018932
    69  H    0.003647
    70  H    0.072100
    71  H    0.046034
    72  H    0.059107
    73  H    0.056788
    74  H    0.034460
    75  H    0.035896
    76  H    0.041530
    77  H    0.056452
    78  H    0.071700
    79  H    0.051546
    80  H    0.031979
    81  H    0.052704
    82  H    0.078623
    83  H    0.061065
    84  H    0.059023
    85  H    0.049566
    86  H    0.040693
    87  H    0.052832
    88  H    0.047174
    89  H    0.042157
    90  H    0.047509
    91  H    0.036234
    92  H    0.034036
    93  H    0.047628
    94  H    0.031437
    95  H    0.047477
    96  H    0.031673
    97  H    0.051554
    98  H    0.090276
    99  H    0.056781
   100  H    0.057106
   101  H    0.042998
   102  H    0.049733
   103  H    0.054358
   104  H    0.027947
   105  H    0.044858
   106  H    0.064358
   107  H    0.033539
   108  H    0.027580
   109  H    0.031825
   110  H    0.034025
   111  H    0.035245
   112  H    0.036436
   113  H    0.035009
   114  H    0.043934
   115  H    0.035697
   116  H    0.030297
   117  H    0.023403
   118  H    0.017477
   119  H    0.024059
   120  H    0.024606
   121  H    0.022318
   122  H    0.021236
   123  H    0.026753
   124  H    0.028892
   125  H    0.026597
   126  H    0.031908
   127  H    0.034702
   128  H    0.022969
   129  H    0.022972
   130  H    0.036730
   131  H    0.022797
   132  H    0.034769
   133  H    0.041298
   134  H    0.028944
   135  H    0.036788
   136  H    0.039752
   137  H    0.019282
   138  H    0.039376
   139  H    0.032706
   140  H    0.035580
 Sum of Mulliken charges =  -0.00000

 Dipole moment (field-independent basis, Debye):
    X=              4.7031    Y=              3.3402    Z=             -1.4909  Tot=              5.9581
 Quadrupole moment (field-independent basis, Debye-Ang):
   XX=           -378.1099   YY=           -418.2364   ZZ=           -403.8993
   XY=            -30.9800   XZ=              8.3046   YZ=             15.4790

 Normal termination of Gaussian 16 at Fri Apr 29 17:59:03 2022.
