 Gaussian 16, Revision A.03,
 Gaussian 16:  ES64L-G16RevA.03 25-Dec-2016

 --------------------------------
 #p wB97XD/Def2SVP td=(nstates=5)
 --------------------------------

 ---------------------------------------------------
 step_401_chromophore_3 TDDFT with wB97XD functional
 ---------------------------------------------------
 Symbolic Z-matrix:
 Charge =  0 Multiplicity = 1

                         Standard orientation:
 ---------------------------------------------------------------------
 Center     Atomic      Atomic             Coordinates (Angstroms)
 Number     Number       Type             X           Y           Z
 ---------------------------------------------------------------------
      1         12           0       -5.185793    1.012157   -0.183962
      2          6           0       -4.386814   -2.473428   -0.041254
      3          6           0       -1.877424    1.611941    0.142435
      4          6           0       -6.060414    4.256205    0.173677
      5          6           0       -8.575947    0.093520   -0.090569
      6          7           0       -3.401101   -0.315331   -0.050405
      7          6           0       -3.260679   -1.679334   -0.034548
      8          6           0       -1.900134   -2.220910   -0.124787
      9          6           0       -1.155176   -0.846819    0.217524
     10          6           0       -2.194189    0.253270    0.109164
     11          6           0       -0.438736   -0.697734    1.706931
     12          6           0       -1.514485   -2.749979   -1.451245
     13          6           0       -0.207495   -3.645464   -1.607376
     14          6           0        0.826640   -3.778489   -0.458708
     15          8           0        0.624141   -4.302716    0.632725
     16          8           0        2.071783   -3.229410   -0.792859
     17          7           0       -4.067120    2.673707   -0.013246
     18          6           0       -2.747311    2.733404    0.152209
     19          6           0       -2.402973    4.146195    0.367292
     20          6           0       -3.515289    4.929320    0.260643
     21          6           0       -4.693609    3.924074    0.115577
     22          6           0       -0.991462    4.504387    0.694012
     23          6           0       -3.723034    6.469919    0.239198
     24          8           0       -4.764944    6.908536   -0.175188
     25          6           0       -2.635840    7.439363    0.598149
     26          7           0       -7.034735    2.067639   -0.135434
     27          6           0       -7.159982    3.425180    0.062227
     28          6           0       -8.607049    3.880816    0.005615
     29          6           0       -9.371027    2.478811   -0.137892
     30          6           0       -8.235205    1.429322   -0.294709
     31          6           0       -9.086503    4.789281    1.075158
     32          6           0      -10.369043    2.378623   -1.298597
     33          6           0      -11.756901    1.747889   -0.979615
     34          7           0       -6.329917   -0.778399   -0.123009
     35          6           0       -7.683389   -0.991795   -0.079527
     36          6           0       -7.970494   -2.427952    0.043312
     37          6           0       -6.680066   -3.019323    0.038425
     38          6           0       -5.724358   -2.013638   -0.121129
     39          6           0       -9.263409   -2.968869    0.209897
     40          6           0       -6.033727   -4.284362    0.076993
     41          8           0       -6.486265   -5.403267    0.248710
     42          6           0       -4.494692   -3.998815   -0.119889
     43          6           0       -3.749556   -4.833643    0.893165
     44          8           0       -3.493348   -4.479534    2.035855
     45          8           0       -3.444454   -6.009601    0.232845
     46          6           0       -2.554927   -6.822350    0.981451
     47          6           0        3.135869   -3.309849    0.186565
     48          6           0        4.407433   -3.154752   -0.556899
     49          6           0        5.568012   -3.513202   -0.110004
     50          6           0        5.917325   -4.275023    1.162941
     51          6           0        6.676234   -3.289255   -1.090962
     52          6           0        7.919374   -2.480550   -0.655919
     53          6           0        8.209097   -1.471543   -1.722157
     54          6           0        9.408444   -0.489480   -1.337977
     55          6           0       10.671089   -1.058762   -2.023291
     56          6           0        9.220687    0.978973   -1.881634
     57          6           0        9.094175    2.030663   -0.788938
     58          6           0        9.649813    3.424203   -1.118806
     59          6           0       10.680182    3.973816   -0.080199
     60          6           0       10.564457    5.456011    0.138079
     61          6           0       12.141361    3.498676   -0.423760
     62          6           0       12.827077    2.707357    0.725460
     63          6           0       13.052706    1.241083    0.425649
     64          6           0       13.434927    0.457045    1.743129
     65          6           0       14.977580    0.448555    2.016756
     66          6           0       12.741402   -0.917382    1.796055
     67          1           0       -0.795223    1.755942    0.127280
     68          1           0       -6.506785    5.248483    0.264069
     69          1           0       -9.631140   -0.179542   -0.023145
     70          1           0       -1.891407   -3.060198    0.570079
     71          1           0       -0.353218   -0.887140   -0.519323
     72          1           0       -0.596317   -1.578746    2.328329
     73          1           0       -0.758092    0.176275    2.275021
     74          1           0        0.647532   -0.723758    1.614188
     75          1           0       -1.395839   -1.886804   -2.105673
     76          1           0       -2.374231   -3.301100   -1.833753
     77          1           0        0.298915   -3.246214   -2.486440
     78          1           0       -0.561146   -4.630203   -1.912934
     79          1           0       -0.428437    3.836491    1.346540
     80          1           0       -0.964984    5.487752    1.164933
     81          1           0       -0.407438    4.526556   -0.225200
     82          1           0       -1.777266    7.249424   -0.045408
     83          1           0       -2.497180    7.096385    1.623649
     84          1           0       -2.970498    8.475350    0.650025
     85          1           0       -8.802516    4.438220   -0.911038
     86          1           0       -9.925513    2.447720    0.800578
     87          1           0       -8.911766    5.760684    0.610977
     88          1           0       -8.584967    4.721668    2.039986
     89          1           0      -10.146714    4.690636    1.305965
     90          1           0       -9.908937    1.798226   -2.097936
     91          1           0      -10.691706    3.340420   -1.697491
     92          1           0      -11.858700    0.701029   -1.265152
     93          1           0      -12.545154    2.274254   -1.517500
     94          1           0      -11.836552    1.655008    0.104198
     95          1           0       -9.543891   -3.864105   -0.345293
     96          1           0      -10.050551   -2.216301    0.164906
     97          1           0       -9.340448   -3.472291    1.173330
     98          1           0       -4.248365   -4.348747   -1.122357
     99          1           0       -2.542978   -7.853200    0.626179
    100          1           0       -2.708535   -6.782838    2.059544
    101          1           0       -1.559342   -6.390865    0.878939
    102          1           0        3.128624   -4.266017    0.709452
    103          1           0        3.009304   -2.523998    0.932016
    104          1           0        4.349051   -2.623855   -1.507599
    105          1           0        5.145874   -4.922503    1.580958
    106          1           0        6.321692   -3.577509    1.896825
    107          1           0        6.664370   -5.024121    0.899157
    108          1           0        6.325186   -2.919076   -2.053729
    109          1           0        6.931079   -4.341703   -1.219343
    110          1           0        8.723684   -3.212508   -0.579471
    111          1           0        7.612828   -2.005345    0.276739
    112          1           0        7.365852   -0.850077   -2.024258
    113          1           0        8.563274   -2.109948   -2.531032
    114          1           0        9.680880   -0.590320   -0.287390
    115          1           0       11.477628   -0.350078   -2.213688
    116          1           0       10.568136   -1.578339   -2.975744
    117          1           0       11.127113   -1.787682   -1.354247
    118          1           0        8.348659    0.968439   -2.536046
    119          1           0        9.993149    1.398284   -2.526496
    120          1           0        9.537688    1.679507    0.142026
    121          1           0        8.044301    2.130886   -0.514613
    122          1           0        8.742622    4.013996   -1.251677
    123          1           0       10.184532    3.490865   -2.066869
    124          1           0       10.367880    3.560926    0.879544
    125          1           0       11.436725    5.877950    0.637074
    126          1           0        9.718696    5.520346    0.821553
    127          1           0       10.432325    6.114251   -0.720733
    128          1           0       12.724090    4.378709   -0.697454
    129          1           0       12.094542    2.865260   -1.308548
    130          1           0       12.342284    2.883666    1.685585
    131          1           0       13.849222    3.082989    0.766004
    132          1           0       13.936818    1.040753   -0.180215
    133          1           0       12.161423    0.724499    0.070023
    134          1           0       13.064108    0.974634    2.627843
    135          1           0       15.194744    0.584221    3.075594
    136          1           0       15.473972    1.081215    1.280982
    137          1           0       15.346785   -0.567912    1.881009
    138          1           0       12.796977   -1.426443    0.833646
    139          1           0       11.665962   -0.794554    1.919794
    140          1           0       13.106356   -1.480341    2.654976
 ---------------------------------------------------------------------

 SCF Done:  E(RwB97XD) =  -3007.86115983     A.U. after   19 cycles

 Excitation energies and oscillator strengths:

 Excited State   1:      Singlet-A      1.7063 eV  726.61 nm  f=0.3682  <S**2>=0.000
     245 -> 248       -0.18300
     246 -> 247        0.68380
     245 <- 248       -0.11379
 This state for optimization and/or second-order correction.
 Total Energy, E(TD-HF/TD-DFT) =  -3007.79845313
 Copying the excited state density for this state as the 1-particle RhoCI density.

 Excited State   2:      Singlet-A      2.2583 eV  549.01 nm  f=0.0714  <S**2>=0.000
     245 -> 247        0.61335
     246 -> 248        0.33741

 Excited State   3:      Singlet-A      3.4613 eV  358.20 nm  f=0.1115  <S**2>=0.000
     244 -> 247        0.59560
     245 -> 247        0.12406
     246 -> 248       -0.31746

 Excited State   4:      Singlet-A      3.5470 eV  349.55 nm  f=0.7342  <S**2>=0.000
     241 -> 247       -0.18015
     244 -> 247        0.30893
     245 -> 247       -0.30659
     246 -> 248        0.51504

 Excited State   5:      Singlet-A      3.6700 eV  337.83 nm  f=0.0075  <S**2>=0.000
     243 -> 247        0.54641
     243 -> 249       -0.31239
     243 -> 250        0.24269

 The electronic state is 1-A.
 Alpha  occ. eigenvalues --  -46.94226 -19.30448 -19.29878 -19.25856 -19.24807
 Alpha  occ. eigenvalues --  -19.24469 -19.22780 -14.46312 -14.46213 -14.45024
 Alpha  occ. eigenvalues --  -14.43104 -10.44549 -10.42809 -10.39819 -10.37604
 Alpha  occ. eigenvalues --  -10.36029 -10.35471 -10.35162 -10.34862 -10.34631
 Alpha  occ. eigenvalues --  -10.33869 -10.33555 -10.33552 -10.32737 -10.32671
 Alpha  occ. eigenvalues --  -10.32550 -10.32377 -10.32234 -10.31824 -10.31713
 Alpha  occ. eigenvalues --  -10.31225 -10.31095 -10.31091 -10.30963 -10.30959
 Alpha  occ. eigenvalues --  -10.30928 -10.30768 -10.30768 -10.30738 -10.30648
 Alpha  occ. eigenvalues --  -10.30605 -10.30504 -10.30332 -10.30300 -10.29826
 Alpha  occ. eigenvalues --  -10.29521 -10.29488 -10.29451 -10.29433 -10.29345
 Alpha  occ. eigenvalues --  -10.29328 -10.29090 -10.28931 -10.28849 -10.28820
 Alpha  occ. eigenvalues --  -10.28818 -10.28791 -10.28707 -10.28615 -10.28558
 Alpha  occ. eigenvalues --  -10.28470 -10.28461 -10.28373 -10.28059 -10.28026
 Alpha  occ. eigenvalues --  -10.27801  -3.20243  -1.93858  -1.93344  -1.93241
 Alpha  occ. eigenvalues --   -1.18293  -1.18168  -1.14004  -1.11097  -1.10335
 Alpha  occ. eigenvalues --   -1.10308  -1.06437  -1.05433  -1.04591  -1.03652
 Alpha  occ. eigenvalues --   -0.94105  -0.93563  -0.91956  -0.91668  -0.90636
 Alpha  occ. eigenvalues --   -0.90594  -0.90294  -0.89727  -0.89480  -0.89113
 Alpha  occ. eigenvalues --   -0.88388  -0.87254  -0.86162  -0.85772  -0.85358
 Alpha  occ. eigenvalues --   -0.84800  -0.84449  -0.83485  -0.83118  -0.82577
 Alpha  occ. eigenvalues --   -0.82251  -0.80317  -0.79969  -0.78610  -0.78533
 Alpha  occ. eigenvalues --   -0.77586  -0.77353  -0.76810  -0.76729  -0.76167
 Alpha  occ. eigenvalues --   -0.75353  -0.74394  -0.73412  -0.72748  -0.70536
 Alpha  occ. eigenvalues --   -0.70117  -0.69882  -0.69266  -0.68377  -0.67729
 Alpha  occ. eigenvalues --   -0.67081  -0.66877  -0.66656  -0.66332  -0.66282
 Alpha  occ. eigenvalues --   -0.65755  -0.65148  -0.64358  -0.63894  -0.62390
 Alpha  occ. eigenvalues --   -0.61712  -0.61314  -0.61102  -0.60489  -0.59734
 Alpha  occ. eigenvalues --   -0.59154  -0.58905  -0.58332  -0.57982  -0.57733
 Alpha  occ. eigenvalues --   -0.57360  -0.57221  -0.56852  -0.56603  -0.56416
 Alpha  occ. eigenvalues --   -0.55843  -0.55696  -0.55600  -0.55389  -0.55177
 Alpha  occ. eigenvalues --   -0.54467  -0.54427  -0.54137  -0.54038  -0.53852
 Alpha  occ. eigenvalues --   -0.53369  -0.53272  -0.53145  -0.52934  -0.52775
 Alpha  occ. eigenvalues --   -0.52634  -0.52457  -0.52235  -0.52174  -0.51672
 Alpha  occ. eigenvalues --   -0.51414  -0.51160  -0.51056  -0.50834  -0.50788
 Alpha  occ. eigenvalues --   -0.50579  -0.50173  -0.50011  -0.49581  -0.49529
 Alpha  occ. eigenvalues --   -0.49388  -0.49098  -0.49015  -0.48727  -0.48519
 Alpha  occ. eigenvalues --   -0.48348  -0.48305  -0.47769  -0.47602  -0.47480
 Alpha  occ. eigenvalues --   -0.47045  -0.47008  -0.46902  -0.46717  -0.46616
 Alpha  occ. eigenvalues --   -0.46456  -0.46336  -0.46295  -0.45987  -0.45797
 Alpha  occ. eigenvalues --   -0.45726  -0.45691  -0.45389  -0.45305  -0.45139
 Alpha  occ. eigenvalues --   -0.45070  -0.44937  -0.44743  -0.44444  -0.43964
 Alpha  occ. eigenvalues --   -0.43930  -0.43721  -0.43242  -0.43072  -0.43027
 Alpha  occ. eigenvalues --   -0.42796  -0.42513  -0.42313  -0.41970  -0.41792
 Alpha  occ. eigenvalues --   -0.41708  -0.41183  -0.41137  -0.40878  -0.40363
 Alpha  occ. eigenvalues --   -0.39887  -0.39732  -0.39662  -0.39276  -0.38988
 Alpha  occ. eigenvalues --   -0.38939  -0.38631  -0.38579  -0.38181  -0.37994
 Alpha  occ. eigenvalues --   -0.37638  -0.37503  -0.37268  -0.36660  -0.36614
 Alpha  occ. eigenvalues --   -0.36120  -0.35767  -0.34938  -0.33989  -0.33392
 Alpha  occ. eigenvalues --   -0.32953  -0.32590  -0.31735  -0.30637  -0.25927
 Alpha  occ. eigenvalues --   -0.22511
 Alpha virt. eigenvalues --   -0.06305   0.00228   0.02996   0.04661   0.05766
 Alpha virt. eigenvalues --    0.06898   0.07615   0.08159   0.09073   0.09377
 Alpha virt. eigenvalues --    0.10558   0.11151   0.11721   0.12274   0.12349

 Mulliken charges:
               1
     1  Mg   0.968180
     2  C   -0.002947
     3  C   -0.108830
     4  C   -0.039336
     5  C   -0.074037
     6  N   -0.340049
     7  C   -0.019982
     8  C   -0.054814
     9  C   -0.108089
    10  C    0.095799
    11  C   -0.007628
    12  C    0.012844
    13  C    0.027908
    14  C    0.223914
    15  O   -0.260280
    16  O   -0.383345
    17  N   -0.496678
    18  C    0.195961
    19  C   -0.166615
    20  C   -0.091864
    21  C    0.213426
    22  C    0.061919
    23  C    0.038856
    24  O   -0.211885
    25  C    0.005710
    26  N   -0.392679
    27  C   -0.002690
    28  C   -0.049153
    29  C   -0.134661
    30  C    0.136080
    31  C    0.007934
    32  C   -0.015882
    33  C   -0.058520
    34  N   -0.429937
    35  C    0.104502
    36  C   -0.130618
    37  C   -0.020876
    38  C    0.136507
    39  C    0.072289
    40  C    0.090010
    41  O   -0.205470
    42  C   -0.122013
    43  C    0.272335
    44  O   -0.239364
    45  O   -0.346445
    46  C    0.134727
    47  C    0.281186
    48  C   -0.183571
    49  C   -0.178568
    50  C    0.043697
    51  C    0.017488
    52  C   -0.005297
    53  C   -0.010120
    54  C   -0.164846
    55  C   -0.037240
    56  C    0.044758
    57  C   -0.031219
    58  C   -0.005868
    59  C   -0.185670
    60  C    0.001858
    61  C    0.046227
    62  C   -0.024454
    63  C   -0.002714
    64  C   -0.235226
    65  C   -0.000652
    66  C   -0.007105
    67  H    0.003365
    68  H    0.014142
    69  H   -0.008320
    70  H    0.052819
    71  H    0.035073
    72  H    0.055539
    73  H    0.049832
    74  H    0.028691
    75  H    0.026774
    76  H    0.030759
    77  H    0.051769
    78  H    0.067403
    79  H    0.049004
    80  H    0.026147
    81  H    0.049598
    82  H    0.074342
    83  H    0.054366
    84  H    0.059480
    85  H    0.039736
    86  H    0.025987
    87  H    0.047294
    88  H    0.042190
    89  H    0.037671
    90  H    0.039216
    91  H    0.027433
    92  H    0.027872
    93  H    0.043304
    94  H    0.023971
    95  H    0.042221
    96  H    0.025267
    97  H    0.044980
    98  H    0.081628
    99  H    0.053551
   100  H    0.052401
   101  H    0.037991
   102  H    0.042557
   103  H    0.049587
   104  H    0.024901
   105  H    0.040454
   106  H    0.059397
   107  H    0.028069
   108  H    0.018283
   109  H    0.021133
   110  H    0.027092
   111  H    0.025034
   112  H    0.026916
   113  H    0.023328
   114  H    0.029939
   115  H    0.028264
   116  H    0.024598
   117  H    0.015603
   118  H    0.009427
   119  H    0.012190
   120  H    0.011191
   121  H    0.015109
   122  H    0.014496
   123  H    0.016339
   124  H    0.014260
   125  H    0.020296
   126  H    0.025825
   127  H    0.029414
   128  H    0.016393
   129  H    0.010558
   130  H    0.027760
   131  H    0.013574
   132  H    0.025338
   133  H    0.011697
   134  H    0.016521
   135  H    0.032132
   136  H    0.033378
   137  H    0.012726
   138  H    0.030226
   139  H    0.025041
   140  H    0.030581
 Sum of Mulliken charges =  -0.00000

 Dipole moment (field-independent basis, Debye):
    X=              5.0931    Y=              4.0604    Z=             -1.4552  Tot=              6.6741
 Quadrupole moment (field-independent basis, Debye-Ang):
   XX=           -382.4859   YY=           -415.5967   ZZ=           -403.6587
   XY=            -33.6953   XZ=              8.2916   YZ=             15.9240

 Normal termination of Gaussian 16 at Fri Apr 29 18:25:14 2022.
