 Gaussian 16, Revision A.03,
 Gaussian 16:  ES64L-G16RevA.03 25-Dec-2016

 --------------------
 #p ZINDO=(nstates=5)
 --------------------

 ----------------------------
 step_401_chromophore_3 ZINDO
 ----------------------------
 Symbolic Z-matrix:
 Charge =  0 Multiplicity = 1

                         Standard orientation:
 ---------------------------------------------------------------------
 Center     Atomic      Atomic             Coordinates (Angstroms)
 Number     Number       Type             X           Y           Z
 ---------------------------------------------------------------------
      1         12           0       -5.185793    1.012157   -0.183962
      2          6           0       -4.386814   -2.473428   -0.041254
      3          6           0       -1.877424    1.611941    0.142435
      4          6           0       -6.060414    4.256205    0.173677
      5          6           0       -8.575947    0.093520   -0.090569
      6          7           0       -3.401101   -0.315331   -0.050405
      7          6           0       -3.260679   -1.679334   -0.034548
      8          6           0       -1.900134   -2.220910   -0.124787
      9          6           0       -1.155176   -0.846819    0.217524
     10          6           0       -2.194189    0.253270    0.109164
     11          6           0       -0.438736   -0.697734    1.706931
     12          6           0       -1.514485   -2.749979   -1.451245
     13          6           0       -0.207495   -3.645464   -1.607376
     14          6           0        0.826640   -3.778489   -0.458708
     15          8           0        0.624141   -4.302716    0.632725
     16          8           0        2.071783   -3.229410   -0.792859
     17          7           0       -4.067120    2.673707   -0.013246
     18          6           0       -2.747311    2.733404    0.152209
     19          6           0       -2.402973    4.146195    0.367292
     20          6           0       -3.515289    4.929320    0.260643
     21          6           0       -4.693609    3.924074    0.115577
     22          6           0       -0.991462    4.504387    0.694012
     23          6           0       -3.723034    6.469919    0.239198
     24          8           0       -4.764944    6.908536   -0.175188
     25          6           0       -2.635840    7.439363    0.598149
     26          7           0       -7.034735    2.067639   -0.135434
     27          6           0       -7.159982    3.425180    0.062227
     28          6           0       -8.607049    3.880816    0.005615
     29          6           0       -9.371027    2.478811   -0.137892
     30          6           0       -8.235205    1.429322   -0.294709
     31          6           0       -9.086503    4.789281    1.075158
     32          6           0      -10.369043    2.378623   -1.298597
     33          6           0      -11.756901    1.747889   -0.979615
     34          7           0       -6.329917   -0.778399   -0.123009
     35          6           0       -7.683389   -0.991795   -0.079527
     36          6           0       -7.970494   -2.427952    0.043312
     37          6           0       -6.680066   -3.019323    0.038425
     38          6           0       -5.724358   -2.013638   -0.121129
     39          6           0       -9.263409   -2.968869    0.209897
     40          6           0       -6.033727   -4.284362    0.076993
     41          8           0       -6.486265   -5.403267    0.248710
     42          6           0       -4.494692   -3.998815   -0.119889
     43          6           0       -3.749556   -4.833643    0.893165
     44          8           0       -3.493348   -4.479534    2.035855
     45          8           0       -3.444454   -6.009601    0.232845
     46          6           0       -2.554927   -6.822350    0.981451
     47          6           0        3.135869   -3.309849    0.186565
     48          6           0        4.407433   -3.154752   -0.556899
     49          6           0        5.568012   -3.513202   -0.110004
     50          6           0        5.917325   -4.275023    1.162941
     51          6           0        6.676234   -3.289255   -1.090962
     52          6           0        7.919374   -2.480550   -0.655919
     53          6           0        8.209097   -1.471543   -1.722157
     54          6           0        9.408444   -0.489480   -1.337977
     55          6           0       10.671089   -1.058762   -2.023291
     56          6           0        9.220687    0.978973   -1.881634
     57          6           0        9.094175    2.030663   -0.788938
     58          6           0        9.649813    3.424203   -1.118806
     59          6           0       10.680182    3.973816   -0.080199
     60          6           0       10.564457    5.456011    0.138079
     61          6           0       12.141361    3.498676   -0.423760
     62          6           0       12.827077    2.707357    0.725460
     63          6           0       13.052706    1.241083    0.425649
     64          6           0       13.434927    0.457045    1.743129
     65          6           0       14.977580    0.448555    2.016756
     66          6           0       12.741402   -0.917382    1.796055
     67          1           0       -0.795223    1.755942    0.127280
     68          1           0       -6.506785    5.248483    0.264069
     69          1           0       -9.631140   -0.179542   -0.023145
     70          1           0       -1.891407   -3.060198    0.570079
     71          1           0       -0.353218   -0.887140   -0.519323
     72          1           0       -0.596317   -1.578746    2.328329
     73          1           0       -0.758092    0.176275    2.275021
     74          1           0        0.647532   -0.723758    1.614188
     75          1           0       -1.395839   -1.886804   -2.105673
     76          1           0       -2.374231   -3.301100   -1.833753
     77          1           0        0.298915   -3.246214   -2.486440
     78          1           0       -0.561146   -4.630203   -1.912934
     79          1           0       -0.428437    3.836491    1.346540
     80          1           0       -0.964984    5.487752    1.164933
     81          1           0       -0.407438    4.526556   -0.225200
     82          1           0       -1.777266    7.249424   -0.045408
     83          1           0       -2.497180    7.096385    1.623649
     84          1           0       -2.970498    8.475350    0.650025
     85          1           0       -8.802516    4.438220   -0.911038
     86          1           0       -9.925513    2.447720    0.800578
     87          1           0       -8.911766    5.760684    0.610977
     88          1           0       -8.584967    4.721668    2.039986
     89          1           0      -10.146714    4.690636    1.305965
     90          1           0       -9.908937    1.798226   -2.097936
     91          1           0      -10.691706    3.340420   -1.697491
     92          1           0      -11.858700    0.701029   -1.265152
     93          1           0      -12.545154    2.274254   -1.517500
     94          1           0      -11.836552    1.655008    0.104198
     95          1           0       -9.543891   -3.864105   -0.345293
     96          1           0      -10.050551   -2.216301    0.164906
     97          1           0       -9.340448   -3.472291    1.173330
     98          1           0       -4.248365   -4.348747   -1.122357
     99          1           0       -2.542978   -7.853200    0.626179
    100          1           0       -2.708535   -6.782838    2.059544
    101          1           0       -1.559342   -6.390865    0.878939
    102          1           0        3.128624   -4.266017    0.709452
    103          1           0        3.009304   -2.523998    0.932016
    104          1           0        4.349051   -2.623855   -1.507599
    105          1           0        5.145874   -4.922503    1.580958
    106          1           0        6.321692   -3.577509    1.896825
    107          1           0        6.664370   -5.024121    0.899157
    108          1           0        6.325186   -2.919076   -2.053729
    109          1           0        6.931079   -4.341703   -1.219343
    110          1           0        8.723684   -3.212508   -0.579471
    111          1           0        7.612828   -2.005345    0.276739
    112          1           0        7.365852   -0.850077   -2.024258
    113          1           0        8.563274   -2.109948   -2.531032
    114          1           0        9.680880   -0.590320   -0.287390
    115          1           0       11.477628   -0.350078   -2.213688
    116          1           0       10.568136   -1.578339   -2.975744
    117          1           0       11.127113   -1.787682   -1.354247
    118          1           0        8.348659    0.968439   -2.536046
    119          1           0        9.993149    1.398284   -2.526496
    120          1           0        9.537688    1.679507    0.142026
    121          1           0        8.044301    2.130886   -0.514613
    122          1           0        8.742622    4.013996   -1.251677
    123          1           0       10.184532    3.490865   -2.066869
    124          1           0       10.367880    3.560926    0.879544
    125          1           0       11.436725    5.877950    0.637074
    126          1           0        9.718696    5.520346    0.821553
    127          1           0       10.432325    6.114251   -0.720733
    128          1           0       12.724090    4.378709   -0.697454
    129          1           0       12.094542    2.865260   -1.308548
    130          1           0       12.342284    2.883666    1.685585
    131          1           0       13.849222    3.082989    0.766004
    132          1           0       13.936818    1.040753   -0.180215
    133          1           0       12.161423    0.724499    0.070023
    134          1           0       13.064108    0.974634    2.627843
    135          1           0       15.194744    0.584221    3.075594
    136          1           0       15.473972    1.081215    1.280982
    137          1           0       15.346785   -0.567912    1.881009
    138          1           0       12.796977   -1.426443    0.833646
    139          1           0       11.665962   -0.794554    1.919794
    140          1           0       13.106356   -1.480341    2.654976
 ---------------------------------------------------------------------

 SCF Done:  E(RZINDO/S) =  -474.564539154     A.U. after   19 cycles

 Excitation energies and oscillator strengths:

 Excited State   1:      Singlet-A      1.3460 eV  921.11 nm  f=0.5535  <S**2>=0.000
     175 ->178         0.16952
     176 ->177         0.66895
 This state for optimization and/or second-order correction.
 Total Energy, E(CIS/TDA) =  -474.515073643
 Copying the excited state density for this state as the 1-particle RhoCI density.

 Excited State   2:      Singlet-A      1.9865 eV  624.12 nm  f=0.0052  <S**2>=0.000
     175 ->177         0.49318
     176 ->178        -0.47534

 Excited State   3:      Singlet-A      2.9949 eV  413.99 nm  f=0.2476  <S**2>=0.000
     167 ->177        -0.14120
     167 ->179         0.23975
     167 ->181        -0.14883
     167 ->185         0.12870
     168 ->177        -0.17672
     168 ->178         0.11898
     168 ->179         0.27184
     168 ->181        -0.17051
     168 ->185         0.14684
     175 ->177         0.20206
     176 ->178         0.24546
     176 ->179         0.21624

 Excited State   4:      Singlet-A      3.0522 eV  406.21 nm  f=0.2225  <S**2>=0.000
     167 ->179        -0.12833
     168 ->179        -0.16833
     171 ->177         0.16452
     171 ->179         0.18707
     171 ->181         0.24806
     171 ->188         0.12314
     175 ->177         0.16328
     176 ->178         0.20749
     176 ->179         0.29315
     176 ->181         0.13476

 Excited State   5:      Singlet-A      3.0729 eV  403.48 nm  f=0.8209  <S**2>=0.000
     171 ->177        -0.10836
     171 ->179        -0.14439
     171 ->181        -0.18717
     175 ->177         0.36773
     176 ->178         0.37953
     176 ->179        -0.13809
     176 ->181        -0.14812

 The electronic state is 1-A.
 Alpha  occ. eigenvalues --   -1.83891  -1.80863  -1.79692  -1.72817  -1.72093
 Alpha  occ. eigenvalues --   -1.70494  -1.65458  -1.61746  -1.61470  -1.58015
 Alpha  occ. eigenvalues --   -1.56209  -1.52931  -1.49796  -1.48057  -1.46955
 Alpha  occ. eigenvalues --   -1.44404  -1.43883  -1.41167  -1.39862  -1.39514
 Alpha  occ. eigenvalues --   -1.35594  -1.34318  -1.33635  -1.31437  -1.29761
 Alpha  occ. eigenvalues --   -1.28575  -1.25361  -1.23794  -1.22068  -1.19117
 Alpha  occ. eigenvalues --   -1.17188  -1.16588  -1.15919  -1.14375  -1.13105
 Alpha  occ. eigenvalues --   -1.11748  -1.11642  -1.10286  -1.04400  -1.03413
 Alpha  occ. eigenvalues --   -1.01995  -1.01753  -0.99075  -0.97498  -0.96956
 Alpha  occ. eigenvalues --   -0.95267  -0.94376  -0.94330  -0.92344  -0.91641
 Alpha  occ. eigenvalues --   -0.91053  -0.90084  -0.89401  -0.88797  -0.86497
 Alpha  occ. eigenvalues --   -0.85826  -0.85056  -0.83577  -0.82548  -0.80080
 Alpha  occ. eigenvalues --   -0.79879  -0.79213  -0.77635  -0.76999  -0.76148
 Alpha  occ. eigenvalues --   -0.75865  -0.74987  -0.73739  -0.73636  -0.73370
 Alpha  occ. eigenvalues --   -0.73040  -0.72267  -0.71728  -0.71423  -0.71086
 Alpha  occ. eigenvalues --   -0.70431  -0.69598  -0.68869  -0.68108  -0.67695
 Alpha  occ. eigenvalues --   -0.67281  -0.66910  -0.66533  -0.66248  -0.65492
 Alpha  occ. eigenvalues --   -0.65074  -0.64833  -0.64569  -0.63989  -0.63646
 Alpha  occ. eigenvalues --   -0.63546  -0.63117  -0.62845  -0.62532  -0.62124
 Alpha  occ. eigenvalues --   -0.61237  -0.61069  -0.60407  -0.60157  -0.59527
 Alpha  occ. eigenvalues --   -0.59369  -0.59031  -0.58678  -0.58367  -0.58238
 Alpha  occ. eigenvalues --   -0.58023  -0.57890  -0.57695  -0.57146  -0.56797
 Alpha  occ. eigenvalues --   -0.56641  -0.55278  -0.55152  -0.54717  -0.54436
 Alpha  occ. eigenvalues --   -0.54125  -0.53971  -0.53072  -0.52792  -0.52206
 Alpha  occ. eigenvalues --   -0.52067  -0.51918  -0.51809  -0.51107  -0.50842
 Alpha  occ. eigenvalues --   -0.50560  -0.50509  -0.50405  -0.50153  -0.49885
 Alpha  occ. eigenvalues --   -0.49688  -0.49606  -0.49391  -0.49167  -0.48777
 Alpha  occ. eigenvalues --   -0.48345  -0.48279  -0.48244  -0.48016  -0.47796
 Alpha  occ. eigenvalues --   -0.47432  -0.47286  -0.46792  -0.46570  -0.46150
 Alpha  occ. eigenvalues --   -0.45840  -0.45798  -0.45588  -0.45231  -0.45007
 Alpha  occ. eigenvalues --   -0.44719  -0.44564  -0.44114  -0.43923  -0.43829
 Alpha  occ. eigenvalues --   -0.43467  -0.43153  -0.43040  -0.42432  -0.41930
 Alpha  occ. eigenvalues --   -0.41745  -0.40771  -0.40577  -0.39304  -0.38673
 Alpha  occ. eigenvalues --   -0.37602  -0.36506  -0.36065  -0.34983  -0.34166
 Alpha  occ. eigenvalues --   -0.33603  -0.33066  -0.32522  -0.30952  -0.26721
 Alpha  occ. eigenvalues --   -0.21429
 Alpha virt. eigenvalues --   -0.07619  -0.02012  -0.00075   0.01384   0.01603
 Alpha virt. eigenvalues --    0.02872   0.03284   0.03502   0.04928   0.05653
 Alpha virt. eigenvalues --    0.06034   0.06785   0.07093   0.07867   0.08340

 Mulliken charges:
               1
     1  Mg   0.417630
     2  C   -0.047884
     3  C   -0.109054
     4  C   -0.053734
     5  C   -0.036747
     6  N   -0.291647
     7  C    0.114282
     8  C    0.005336
     9  C   -0.001065
    10  C    0.180518
    11  C   -0.060723
    12  C   -0.010813
    13  C    0.002173
    14  C    0.463681
    15  O   -0.505981
    16  O   -0.280743
    17  N   -0.306387
    18  C    0.150817
    19  C    0.028634
    20  C   -0.033194
    21  C    0.129229
    22  C   -0.045009
    23  C    0.333479
    24  O   -0.507823
    25  C   -0.026426
    26  N   -0.264439
    27  C    0.151489
    28  C    0.005365
    29  C   -0.012866
    30  C    0.069529
    31  C   -0.045423
    32  C   -0.032763
    33  C   -0.066295
    34  N   -0.325389
    35  C    0.058114
    36  C    0.031073
    37  C   -0.063373
    38  C    0.097723
    39  C   -0.033832
    40  C    0.331352
    41  O   -0.534007
    42  C    0.044837
    43  C    0.492756
    44  O   -0.515183
    45  O   -0.255569
    46  C    0.072946
    47  C    0.106289
    48  C   -0.085415
    49  C   -0.002665
    50  C   -0.042695
    51  C   -0.036930
    52  C   -0.029045
    53  C   -0.032507
    54  C   -0.021549
    55  C   -0.063042
    56  C   -0.033144
    57  C   -0.034684
    58  C   -0.036118
    59  C   -0.009310
    60  C   -0.053946
    61  C   -0.037970
    62  C   -0.031685
    63  C   -0.033612
    64  C   -0.027521
    65  C   -0.064281
    66  C   -0.055719
    67  H    0.022350
    68  H    0.051839
    69  H    0.031848
    70  H    0.056325
    71  H    0.031331
    72  H    0.030335
    73  H    0.029691
    74  H    0.017995
    75  H    0.018213
    76  H    0.022533
    77  H    0.026790
    78  H    0.045335
    79  H    0.031575
    80  H    0.017940
    81  H    0.031007
    82  H    0.047002
    83  H    0.035275
    84  H    0.046623
    85  H    0.032218
    86  H    0.029306
    87  H    0.018841
    88  H    0.023056
    89  H    0.019314
    90  H    0.022683
    91  H    0.015940
    92  H    0.012647
    93  H    0.024757
    94  H    0.021967
    95  H    0.035758
    96  H    0.019917
    97  H    0.033164
    98  H    0.052615
    99  H    0.032903
   100  H    0.049334
   101  H    0.031350
   102  H    0.051935
   103  H    0.045035
   104  H    0.032410
   105  H    0.028853
   106  H    0.034592
   107  H    0.018825
   108  H    0.022851
   109  H    0.018283
   110  H    0.029001
   111  H    0.023554
   112  H    0.027540
   113  H    0.022840
   114  H    0.033850
   115  H    0.010319
   116  H    0.018616
   117  H    0.004399
   118  H    0.014931
   119  H    0.023827
   120  H    0.016963
   121  H    0.010422
   122  H    0.013967
   123  H    0.018634
   124  H    0.017015
   125  H    0.011632
   126  H    0.012841
   127  H    0.021439
   128  H    0.019016
   129  H    0.018467
   130  H    0.030317
   131  H    0.012411
   132  H    0.028832
   133  H    0.023114
   134  H    0.011238
   135  H    0.024535
   136  H    0.028761
   137  H    0.009413
   138  H    0.020921
   139  H    0.009383
   140  H    0.020188
 Sum of Mulliken charges =  -0.00000

 Dipole moment (field-independent basis, Debye):
    X=              8.3510    Y=              6.6221    Z=             -2.5136  Tot=             10.9503
 N-N= 4.303942547731D+03 E-N= 0.000000000000D+00  KE=-9.282766606182D+03
 Leave Link  601 at Fri Apr 29 18:37:18 2022, MaxMem=  6710886400 cpu:               0.8 elap:               0.0
 (Enter /sw/apps/gaussian-16.0/g16/l9999.exe)
 1\1\GINC-BP1-COMPUTE070\SP\RZINDO CIS\STO-3G\C55H74Mg1N4O6\OF15641\29-
 Apr-2022\0\\#p ZINDO=(nstates=5)\\step_401_chromophore_3 ZINDO\\0,1\Mg
 ,0,1.01,7.993,26.597\C,0,1.682,10.13,29.388\C,0,1.571,5.387,28.672\C,0
 ,0.856,6.07,23.823\C,0,0.897,10.879,24.596\N,0,1.486,7.848,28.769\C,0,
 1.693,8.797,29.737\C,0,1.805,8.335,31.125\C,0,2.035,6.793,30.765\C,0,1
 .685,6.629,29.298\C,0,3.554,6.16,30.979\C,0,0.602,8.54,31.961\C,0,0.69
 ,8.385,33.543\C,0,1.94,7.775,34.23\O,0,3.066,8.264,34.237\O,0,1.658,6.

 Normal termination of Gaussian 16 at Fri Apr 29 18:37:18 2022.
