 Gaussian 16, Revision A.03,
 Gaussian 16:  ES64L-G16RevA.03 25-Dec-2016

 ------------------------------
 #p blyp/Def2SVP td=(nstates=5)
 ------------------------------

 --------------------------------------------------
 step_1851_chromophore_7 TDDFT with blyp functional
 --------------------------------------------------
 Symbolic Z-matrix:
 Charge =  0 Multiplicity = 1

                         Standard orientation:
 ---------------------------------------------------------------------
 Center     Atomic      Atomic             Coordinates (Angstroms)
 Number     Number       Type             X           Y           Z
 ---------------------------------------------------------------------
      1         12           0        6.053051    0.544340    0.123699
      2          6           0        3.761971   -2.101711   -0.026171
      3          6           0        3.582405    2.626930   -1.087259
      4          6           0        8.319478    3.117690    0.038105
      5          6           0        8.557285   -1.642375    1.020780
      6          7           0        3.974024    0.275797   -0.469317
      7          6           0        3.167902   -0.832198   -0.305472
      8          6           0        1.721238   -0.563501   -0.654242
      9          6           0        1.701668    0.991120   -0.919608
     10          6           0        3.198669    1.350560   -0.820375
     11          6           0        0.968599    1.374929   -2.247466
     12          6           0        0.685887   -1.060511    0.362659
     13          6           0       -0.764883   -0.527357    0.349637
     14          6           0       -1.896906   -1.441315    0.910788
     15          8           0       -2.362560   -1.333962    2.024011
     16          8           0       -2.289447   -2.379151   -0.019274
     17          7           0        5.959224    2.609739   -0.413658
     18          6           0        4.831807    3.214272   -0.945407
     19          6           0        5.136722    4.597834   -1.153920
     20          6           0        6.580936    4.835017   -0.850901
     21          6           0        7.033671    3.458408   -0.424150
     22          6           0        4.084066    5.623064   -1.659674
     23          6           0        7.397645    6.060831   -0.790260
     24          8           0        8.657367    6.087200   -0.756696
     25          6           0        6.783729    7.358454   -0.927992
     26          7           0        8.128527    0.679575    0.303899
     27          6           0        8.761016    1.832774    0.431015
     28          6           0       10.254863    1.599687    0.875141
     29          6           0       10.340989    0.095518    0.958736
     30          6           0        8.908454   -0.323900    0.811798
     31          6           0       11.309255    2.188771   -0.099373
     32          6           0       10.848887   -0.259514    2.443831
     33          6           0       11.583575   -1.604392    2.500438
     34          7           0        6.166852   -1.511186    0.514562
     35          6           0        7.288940   -2.217642    0.831860
     36          6           0        6.920952   -3.597058    0.764704
     37          6           0        5.521230   -3.651643    0.558013
     38          6           0        5.129656   -2.340416    0.302929
     39          6           0        7.813191   -4.734246    1.012170
     40          6           0        4.303042   -4.516236    0.516890
     41          8           0        4.224014   -5.700219    0.734642
     42          6           0        3.176146   -3.465038    0.194272
     43          6           0        2.342671   -4.006387   -0.981566
     44          8           0        2.612350   -3.993369   -2.153051
     45          8           0        1.188012   -4.529086   -0.452007
     46          6           0        0.287026   -5.068843   -1.428259
     47          6           0       -3.575691   -3.108552    0.205889
     48          6           0       -4.702839   -2.539109   -0.585331
     49          6           0       -5.965467   -3.098286   -0.891232
     50          6           0       -6.538302   -4.318144   -0.216927
     51          6           0       -6.912623   -2.262748   -1.711869
     52          6           0       -7.632573   -1.313245   -0.771811
     53          6           0       -8.378938   -0.147398   -1.565068
     54          6           0       -9.931684   -0.322646   -1.819822
     55          6           0      -10.378392   -0.086030   -3.297203
     56          6           0      -10.785204    0.615121   -0.897600
     57          6           0      -12.050787    0.021085   -0.298953
     58          6           0      -13.321105    0.675245   -0.813489
     59          6           0      -14.414092    0.382003    0.210809
     60          6           0      -15.421513   -0.630077   -0.418006
     61          6           0      -15.036235    1.738874    0.719701
     62          6           0      -14.479656    2.211759    2.079752
     63          6           0      -13.635495    3.467066    1.952921
     64          6           0      -12.219922    3.189223    2.483355
     65          6           0      -12.103493    2.624181    3.891109
     66          6           0      -11.302853    4.402783    2.312987
     67          1           0        2.720648    3.241853   -1.350860
     68          1           0        9.084485    3.895568   -0.013883
     69          1           0        9.337746   -2.376317    1.233792
     70          1           0        1.686843   -1.177768   -1.554674
     71          1           0        1.187770    1.480744   -0.092747
     72          1           0        1.278158    0.606646   -2.956240
     73          1           0        1.347356    2.342328   -2.579199
     74          1           0       -0.110825    1.490201   -2.160206
     75          1           0        1.027936   -0.733520    1.344834
     76          1           0        0.515260   -2.133421    0.277280
     77          1           0       -1.041837   -0.214522   -0.656495
     78          1           0       -0.724013    0.403290    0.916028
     79          1           0        3.324494    5.828928   -0.906420
     80          1           0        3.606271    5.053787   -2.456883
     81          1           0        4.491680    6.500019   -2.163131
     82          1           0        5.993226    7.337639   -0.176757
     83          1           0        6.436757    7.423881   -1.958959
     84          1           0        7.434649    8.204879   -0.708269
     85          1           0       10.399969    2.041987    1.860098
     86          1           0       10.860506   -0.317296    0.094758
     87          1           0       10.849710    2.831121   -0.851117
     88          1           0       11.987369    1.524630   -0.635205
     89          1           0       11.883047    2.901062    0.493033
     90          1           0        9.999265   -0.125246    3.113235
     91          1           0       11.507215    0.528009    2.809480
     92          1           0       12.647930   -1.419334    2.646624
     93          1           0       11.458934   -2.231141    1.617148
     94          1           0       11.243510   -2.046766    3.436712
     95          1           0        8.429778   -4.871587    0.123364
     96          1           0        7.182558   -5.609223    1.165079
     97          1           0        8.361696   -4.797477    1.951374
     98          1           0        2.608653   -3.501102    1.124046
     99          1           0        0.763524   -5.676978   -2.196279
    100          1           0       -0.240932   -4.271773   -1.951140
    101          1           0       -0.395982   -5.733536   -0.898550
    102          1           0       -3.909827   -3.100808    1.243433
    103          1           0       -3.387670   -4.108454   -0.183907
    104          1           0       -4.419760   -1.613957   -1.087408
    105          1           0       -5.797214   -4.904019    0.327896
    106          1           0       -7.118175   -4.854901   -0.967602
    107          1           0       -7.347829   -3.952536    0.412912
    108          1           0       -7.529162   -3.013035   -2.206736
    109          1           0       -6.386823   -1.692713   -2.477430
    110          1           0       -6.881057   -0.773246   -0.195358
    111          1           0       -8.209581   -1.842865   -0.012836
    112          1           0       -7.900295    0.089140   -2.516095
    113          1           0       -8.322848    0.740178   -0.936137
    114          1           0      -10.145378   -1.339435   -1.489090
    115          1           0      -10.891850   -1.031660   -3.467502
    116          1           0       -9.491559   -0.116435   -3.930293
    117          1           0      -11.112934    0.688701   -3.516277
    118          1           0      -11.057438    1.518473   -1.444125
    119          1           0      -10.157507    1.012891   -0.099422
    120          1           0      -11.893061    0.154656    0.771099
    121          1           0      -12.134584   -1.025764   -0.589018
    122          1           0      -13.489004    0.150323   -1.753189
    123          1           0      -13.181353    1.724965   -1.070832
    124          1           0      -13.991665   -0.020514    1.131478
    125          1           0      -15.611502   -0.325586   -1.446235
    126          1           0      -16.322914   -0.635105    0.194436
    127          1           0      -14.867142   -1.568868   -0.445554
    128          1           0      -16.119202    1.716905    0.838362
    129          1           0      -14.941903    2.498252   -0.056665
    130          1           0      -13.933847    1.403864    2.564883
    131          1           0      -15.232717    2.529510    2.800451
    132          1           0      -14.116818    4.173716    2.629008
    133          1           0      -13.669911    3.904513    0.955336
    134          1           0      -11.839423    2.323860    1.940810
    135          1           0      -12.234384    1.543237    3.837393
    136          1           0      -12.812479    2.949949    4.652045
    137          1           0      -11.062082    2.788800    4.167402
    138          1           0      -10.460977    4.146296    1.670332
    139          1           0      -10.906253    4.924793    3.184373
    140          1           0      -11.859621    5.180386    1.791098
 ---------------------------------------------------------------------

 SCF Done:  E(RB-LYP) =  -3007.36849958     A.U. after   21 cycles

 Excitation energies and oscillator strengths:

 Excited State   1:      Singlet-A      1.5551 eV  797.27 nm  f=0.0073  <S**2>=0.000
     244 -> 247        0.56396
     245 -> 247        0.40557
     246 -> 247        0.12811
 This state for optimization and/or second-order correction.
 Total Energy, E(TD-HF/TD-DFT) =  -3007.31135028
 Copying the excited state density for this state as the 1-particle RhoCI density.

 Excited State   2:      Singlet-A      1.7834 eV  695.20 nm  f=0.3233  <S**2>=0.000
     245 -> 248       -0.14671
     246 -> 247        0.68558
     246 <- 247       -0.16132

 Excited State   3:      Singlet-A      1.9577 eV  633.31 nm  f=0.0006  <S**2>=0.000
     243 -> 247        0.70408

 Excited State   4:      Singlet-A      1.9591 eV  632.86 nm  f=0.0568  <S**2>=0.000
     242 -> 247       -0.32964
     244 -> 247       -0.34488
     245 -> 247        0.47066
     246 -> 248        0.17759

 Excited State   5:      Singlet-A      2.0499 eV  604.84 nm  f=0.0195  <S**2>=0.000
     240 -> 247       -0.10365
     242 -> 247        0.62029
     244 -> 247       -0.16777
     245 -> 247        0.24038
     246 -> 248        0.12132

 The electronic state is 1-A.
 Alpha  occ. eigenvalues --  -46.26910 -18.82576 -18.82310 -18.77468 -18.77273
 Alpha  occ. eigenvalues --  -18.76593 -18.74414 -14.03826 -14.03404 -14.01249
 Alpha  occ. eigenvalues --  -14.00184 -10.04762 -10.04130 -10.00305  -9.98869
 Alpha  occ. eigenvalues --   -9.98523  -9.97449  -9.97199  -9.96475  -9.96402
 Alpha  occ. eigenvalues --   -9.96125  -9.96046  -9.95685  -9.94768  -9.94752
 Alpha  occ. eigenvalues --   -9.94688  -9.94517  -9.94249  -9.94089  -9.94029
 Alpha  occ. eigenvalues --   -9.93853  -9.93572  -9.93542  -9.93333  -9.93232
 Alpha  occ. eigenvalues --   -9.93226  -9.93197  -9.93093  -9.93066  -9.93057
 Alpha  occ. eigenvalues --   -9.92858  -9.92643  -9.92514  -9.92350  -9.92318
 Alpha  occ. eigenvalues --   -9.92237  -9.92091  -9.92065  -9.92035  -9.91683
 Alpha  occ. eigenvalues --   -9.91648  -9.91586  -9.91564  -9.91493  -9.91236
 Alpha  occ. eigenvalues --   -9.91075  -9.91040  -9.90749  -9.90683  -9.90652
 Alpha  occ. eigenvalues --   -9.90620  -9.90593  -9.90556  -9.90529  -9.90421
 Alpha  occ. eigenvalues --   -9.90382  -2.91537  -1.71978  -1.71407  -1.71250
 Alpha  occ. eigenvalues --   -0.98754  -0.97670  -0.92624  -0.91083  -0.90340
 Alpha  occ. eigenvalues --   -0.89140  -0.87366  -0.86390  -0.85722  -0.84410
 Alpha  occ. eigenvalues --   -0.75677  -0.73975  -0.73471  -0.73255  -0.72873
 Alpha  occ. eigenvalues --   -0.72274  -0.72148  -0.71055  -0.70761  -0.69976
 Alpha  occ. eigenvalues --   -0.69484  -0.69329  -0.68236  -0.67478  -0.67303
 Alpha  occ. eigenvalues --   -0.66825  -0.66239  -0.65675  -0.65420  -0.64839
 Alpha  occ. eigenvalues --   -0.64431  -0.62829  -0.62445  -0.61656  -0.60748
 Alpha  occ. eigenvalues --   -0.60557  -0.60335  -0.59863  -0.59397  -0.59114
 Alpha  occ. eigenvalues --   -0.58224  -0.57577  -0.56926  -0.55795  -0.54571
 Alpha  occ. eigenvalues --   -0.54059  -0.53671  -0.52840  -0.52592  -0.51880
 Alpha  occ. eigenvalues --   -0.51577  -0.51442  -0.51013  -0.50415  -0.50009
 Alpha  occ. eigenvalues --   -0.49583  -0.49304  -0.48715  -0.48582  -0.46645
 Alpha  occ. eigenvalues --   -0.46600  -0.46046  -0.45560  -0.45470  -0.44880
 Alpha  occ. eigenvalues --   -0.44300  -0.43841  -0.43121  -0.42818  -0.42683
 Alpha  occ. eigenvalues --   -0.42598  -0.41862  -0.41661  -0.41550  -0.41009
 Alpha  occ. eigenvalues --   -0.40904  -0.40706  -0.40324  -0.40224  -0.40112
 Alpha  occ. eigenvalues --   -0.39959  -0.39868  -0.39632  -0.39427  -0.39046
 Alpha  occ. eigenvalues --   -0.38793  -0.38718  -0.38619  -0.38434  -0.38319
 Alpha  occ. eigenvalues --   -0.38141  -0.38077  -0.37993  -0.37844  -0.37559
 Alpha  occ. eigenvalues --   -0.37450  -0.37190  -0.36890  -0.36825  -0.36670
 Alpha  occ. eigenvalues --   -0.36593  -0.36375  -0.36263  -0.36189  -0.35910
 Alpha  occ. eigenvalues --   -0.35801  -0.35548  -0.35351  -0.35108  -0.34786
 Alpha  occ. eigenvalues --   -0.34659  -0.34406  -0.34252  -0.34234  -0.34179
 Alpha  occ. eigenvalues --   -0.33927  -0.33745  -0.33598  -0.33491  -0.33414
 Alpha  occ. eigenvalues --   -0.33297  -0.32737  -0.32607  -0.32542  -0.32425
 Alpha  occ. eigenvalues --   -0.32377  -0.32099  -0.31922  -0.31833  -0.31725
 Alpha  occ. eigenvalues --   -0.31497  -0.31336  -0.31243  -0.31093  -0.30788
 Alpha  occ. eigenvalues --   -0.30615  -0.30478  -0.30336  -0.30170  -0.30062
 Alpha  occ. eigenvalues --   -0.30012  -0.29719  -0.29608  -0.29370  -0.29265
 Alpha  occ. eigenvalues --   -0.28790  -0.28726  -0.28228  -0.27971  -0.27883
 Alpha  occ. eigenvalues --   -0.27499  -0.27263  -0.27033  -0.26941  -0.26608
 Alpha  occ. eigenvalues --   -0.25993  -0.25670  -0.25508  -0.25369  -0.25245
 Alpha  occ. eigenvalues --   -0.24859  -0.24722  -0.24452  -0.24318  -0.23330
 Alpha  occ. eigenvalues --   -0.23226  -0.22866  -0.22279  -0.21877  -0.20284
 Alpha  occ. eigenvalues --   -0.20063  -0.19310  -0.19155  -0.17630  -0.17488
 Alpha  occ. eigenvalues --   -0.16018
 Alpha virt. eigenvalues --   -0.11961  -0.06790  -0.06244  -0.04680  -0.03498
 Alpha virt. eigenvalues --   -0.02650  -0.02210  -0.01902  -0.01714   0.00049
 Alpha virt. eigenvalues --    0.01179   0.01443   0.01606   0.02170   0.02470

 Mulliken charges:
               1
     1  Mg   0.679039
     2  C    0.079258
     3  C   -0.110452
     4  C   -0.059754
     5  C   -0.075094
     6  N   -0.222649
     7  C   -0.086895
     8  C    0.052252
     9  C   -0.002391
    10  C    0.038205
    11  C    0.122816
    12  C    0.072663
    13  C    0.134757
    14  C    0.082448
    15  O   -0.165915
    16  O   -0.294979
    17  N   -0.289962
    18  C    0.213222
    19  C   -0.172312
    20  C    0.041227
    21  C    0.094995
    22  C    0.170222
    23  C   -0.087935
    24  O   -0.211579
    25  C    0.151522
    26  N   -0.214404
    27  C    0.041323
    28  C    0.016559
    29  C    0.035031
    30  C    0.050702
    31  C    0.118487
    32  C    0.049945
    33  C    0.100554
    34  N   -0.248814
    35  C    0.100136
    36  C   -0.185236
    37  C    0.063806
    38  C    0.023272
    39  C    0.164502
    40  C   -0.029289
    41  O   -0.097433
    42  C    0.001149
    43  C    0.107077
    44  O   -0.154753
    45  O   -0.259092
    46  C    0.219243
    47  C    0.324175
    48  C   -0.130439
    49  C   -0.180936
    50  C    0.168016
    51  C    0.143513
    52  C    0.078938
    53  C    0.121292
    54  C   -0.093445
    55  C    0.122170
    56  C    0.087091
    57  C    0.050549
    58  C    0.104907
    59  C   -0.070316
    60  C    0.124285
    61  C    0.116879
    62  C    0.070610
    63  C    0.121822
    64  C   -0.125051
    65  C    0.105751
    66  C    0.126782
    67  H   -0.062173
    68  H   -0.034436
    69  H   -0.074367
    70  H   -0.002748
    71  H   -0.019256
    72  H    0.001003
    73  H   -0.018611
    74  H    0.003184
    75  H   -0.019440
    76  H    0.006119
    77  H   -0.020638
    78  H   -0.017140
    79  H    0.009818
    80  H   -0.004567
    81  H   -0.009795
    82  H   -0.003735
    83  H    0.023494
    84  H   -0.009476
    85  H   -0.019333
    86  H   -0.014166
    87  H   -0.000025
    88  H   -0.005874
    89  H   -0.015513
    90  H   -0.021347
    91  H   -0.021442
    92  H   -0.013555
    93  H    0.017946
    94  H   -0.009149
    95  H    0.003971
    96  H   -0.009949
    97  H   -0.002314
    98  H    0.013239
    99  H    0.011826
   100  H    0.006484
   101  H    0.010192
   102  H    0.019372
   103  H    0.010427
   104  H   -0.031581
   105  H    0.003214
   106  H   -0.016576
   107  H   -0.009024
   108  H   -0.034280
   109  H   -0.028601
   110  H   -0.032380
   111  H   -0.027764
   112  H   -0.041548
   113  H   -0.038704
   114  H   -0.037036
   115  H   -0.025508
   116  H   -0.019516
   117  H    0.003315
   118  H   -0.044048
   119  H   -0.043691
   120  H   -0.018169
   121  H   -0.031146
   122  H   -0.041713
   123  H   -0.027618
   124  H   -0.032573
   125  H   -0.013402
   126  H   -0.009852
   127  H   -0.018013
   128  H   -0.055505
   129  H   -0.043515
   130  H   -0.034665
   131  H   -0.041993
   132  H   -0.045587
   133  H   -0.028152
   134  H   -0.034971
   135  H   -0.024633
   136  H   -0.015773
   137  H   -0.017904
   138  H   -0.019405
   139  H   -0.016700
   140  H   -0.035080
 Sum of Mulliken charges =  -0.00000

 Dipole moment (field-independent basis, Debye):
    X=             -3.2039    Y=              1.4605    Z=             -0.1863  Tot=              3.5261
 Quadrupole moment (field-independent basis, Debye-Ang):
   XX=           -384.9749   YY=           -426.9998   ZZ=           -411.0785
   XY=             -1.2070   XZ=             23.4447   YZ=              0.7395

 Normal termination of Gaussian 16 at Fri Apr 29 05:09:49 2022.
