 Gaussian 16, Revision A.03,
 Gaussian 16:  ES64L-G16RevA.03 25-Dec-2016

 -----------------------------------
 #p cam-b3lyp/Def2SVP td=(nstates=5)
 -----------------------------------

 -------------------------------------------------------
 step_1851_chromophore_7 TDDFT with cam-b3lyp functional
 -------------------------------------------------------
 Symbolic Z-matrix:
 Charge =  0 Multiplicity = 1

                         Standard orientation:
 ---------------------------------------------------------------------
 Center     Atomic      Atomic             Coordinates (Angstroms)
 Number     Number       Type             X           Y           Z
 ---------------------------------------------------------------------
      1         12           0        6.053051    0.544340    0.123699
      2          6           0        3.761971   -2.101711   -0.026171
      3          6           0        3.582405    2.626930   -1.087259
      4          6           0        8.319478    3.117690    0.038105
      5          6           0        8.557285   -1.642375    1.020780
      6          7           0        3.974024    0.275797   -0.469317
      7          6           0        3.167902   -0.832198   -0.305472
      8          6           0        1.721238   -0.563501   -0.654242
      9          6           0        1.701668    0.991120   -0.919608
     10          6           0        3.198669    1.350560   -0.820375
     11          6           0        0.968599    1.374929   -2.247466
     12          6           0        0.685887   -1.060511    0.362659
     13          6           0       -0.764883   -0.527357    0.349637
     14          6           0       -1.896906   -1.441315    0.910788
     15          8           0       -2.362560   -1.333962    2.024011
     16          8           0       -2.289447   -2.379151   -0.019274
     17          7           0        5.959224    2.609739   -0.413658
     18          6           0        4.831807    3.214272   -0.945407
     19          6           0        5.136722    4.597834   -1.153920
     20          6           0        6.580936    4.835017   -0.850901
     21          6           0        7.033671    3.458408   -0.424150
     22          6           0        4.084066    5.623064   -1.659674
     23          6           0        7.397645    6.060831   -0.790260
     24          8           0        8.657367    6.087200   -0.756696
     25          6           0        6.783729    7.358454   -0.927992
     26          7           0        8.128527    0.679575    0.303899
     27          6           0        8.761016    1.832774    0.431015
     28          6           0       10.254863    1.599687    0.875141
     29          6           0       10.340989    0.095518    0.958736
     30          6           0        8.908454   -0.323900    0.811798
     31          6           0       11.309255    2.188771   -0.099373
     32          6           0       10.848887   -0.259514    2.443831
     33          6           0       11.583575   -1.604392    2.500438
     34          7           0        6.166852   -1.511186    0.514562
     35          6           0        7.288940   -2.217642    0.831860
     36          6           0        6.920952   -3.597058    0.764704
     37          6           0        5.521230   -3.651643    0.558013
     38          6           0        5.129656   -2.340416    0.302929
     39          6           0        7.813191   -4.734246    1.012170
     40          6           0        4.303042   -4.516236    0.516890
     41          8           0        4.224014   -5.700219    0.734642
     42          6           0        3.176146   -3.465038    0.194272
     43          6           0        2.342671   -4.006387   -0.981566
     44          8           0        2.612350   -3.993369   -2.153051
     45          8           0        1.188012   -4.529086   -0.452007
     46          6           0        0.287026   -5.068843   -1.428259
     47          6           0       -3.575691   -3.108552    0.205889
     48          6           0       -4.702839   -2.539109   -0.585331
     49          6           0       -5.965467   -3.098286   -0.891232
     50          6           0       -6.538302   -4.318144   -0.216927
     51          6           0       -6.912623   -2.262748   -1.711869
     52          6           0       -7.632573   -1.313245   -0.771811
     53          6           0       -8.378938   -0.147398   -1.565068
     54          6           0       -9.931684   -0.322646   -1.819822
     55          6           0      -10.378392   -0.086030   -3.297203
     56          6           0      -10.785204    0.615121   -0.897600
     57          6           0      -12.050787    0.021085   -0.298953
     58          6           0      -13.321105    0.675245   -0.813489
     59          6           0      -14.414092    0.382003    0.210809
     60          6           0      -15.421513   -0.630077   -0.418006
     61          6           0      -15.036235    1.738874    0.719701
     62          6           0      -14.479656    2.211759    2.079752
     63          6           0      -13.635495    3.467066    1.952921
     64          6           0      -12.219922    3.189223    2.483355
     65          6           0      -12.103493    2.624181    3.891109
     66          6           0      -11.302853    4.402783    2.312987
     67          1           0        2.720648    3.241853   -1.350860
     68          1           0        9.084485    3.895568   -0.013883
     69          1           0        9.337746   -2.376317    1.233792
     70          1           0        1.686843   -1.177768   -1.554674
     71          1           0        1.187770    1.480744   -0.092747
     72          1           0        1.278158    0.606646   -2.956240
     73          1           0        1.347356    2.342328   -2.579199
     74          1           0       -0.110825    1.490201   -2.160206
     75          1           0        1.027936   -0.733520    1.344834
     76          1           0        0.515260   -2.133421    0.277280
     77          1           0       -1.041837   -0.214522   -0.656495
     78          1           0       -0.724013    0.403290    0.916028
     79          1           0        3.324494    5.828928   -0.906420
     80          1           0        3.606271    5.053787   -2.456883
     81          1           0        4.491680    6.500019   -2.163131
     82          1           0        5.993226    7.337639   -0.176757
     83          1           0        6.436757    7.423881   -1.958959
     84          1           0        7.434649    8.204879   -0.708269
     85          1           0       10.399969    2.041987    1.860098
     86          1           0       10.860506   -0.317296    0.094758
     87          1           0       10.849710    2.831121   -0.851117
     88          1           0       11.987369    1.524630   -0.635205
     89          1           0       11.883047    2.901062    0.493033
     90          1           0        9.999265   -0.125246    3.113235
     91          1           0       11.507215    0.528009    2.809480
     92          1           0       12.647930   -1.419334    2.646624
     93          1           0       11.458934   -2.231141    1.617148
     94          1           0       11.243510   -2.046766    3.436712
     95          1           0        8.429778   -4.871587    0.123364
     96          1           0        7.182558   -5.609223    1.165079
     97          1           0        8.361696   -4.797477    1.951374
     98          1           0        2.608653   -3.501102    1.124046
     99          1           0        0.763524   -5.676978   -2.196279
    100          1           0       -0.240932   -4.271773   -1.951140
    101          1           0       -0.395982   -5.733536   -0.898550
    102          1           0       -3.909827   -3.100808    1.243433
    103          1           0       -3.387670   -4.108454   -0.183907
    104          1           0       -4.419760   -1.613957   -1.087408
    105          1           0       -5.797214   -4.904019    0.327896
    106          1           0       -7.118175   -4.854901   -0.967602
    107          1           0       -7.347829   -3.952536    0.412912
    108          1           0       -7.529162   -3.013035   -2.206736
    109          1           0       -6.386823   -1.692713   -2.477430
    110          1           0       -6.881057   -0.773246   -0.195358
    111          1           0       -8.209581   -1.842865   -0.012836
    112          1           0       -7.900295    0.089140   -2.516095
    113          1           0       -8.322848    0.740178   -0.936137
    114          1           0      -10.145378   -1.339435   -1.489090
    115          1           0      -10.891850   -1.031660   -3.467502
    116          1           0       -9.491559   -0.116435   -3.930293
    117          1           0      -11.112934    0.688701   -3.516277
    118          1           0      -11.057438    1.518473   -1.444125
    119          1           0      -10.157507    1.012891   -0.099422
    120          1           0      -11.893061    0.154656    0.771099
    121          1           0      -12.134584   -1.025764   -0.589018
    122          1           0      -13.489004    0.150323   -1.753189
    123          1           0      -13.181353    1.724965   -1.070832
    124          1           0      -13.991665   -0.020514    1.131478
    125          1           0      -15.611502   -0.325586   -1.446235
    126          1           0      -16.322914   -0.635105    0.194436
    127          1           0      -14.867142   -1.568868   -0.445554
    128          1           0      -16.119202    1.716905    0.838362
    129          1           0      -14.941903    2.498252   -0.056665
    130          1           0      -13.933847    1.403864    2.564883
    131          1           0      -15.232717    2.529510    2.800451
    132          1           0      -14.116818    4.173716    2.629008
    133          1           0      -13.669911    3.904513    0.955336
    134          1           0      -11.839423    2.323860    1.940810
    135          1           0      -12.234384    1.543237    3.837393
    136          1           0      -12.812479    2.949949    4.652045
    137          1           0      -11.062082    2.788800    4.167402
    138          1           0      -10.460977    4.146296    1.670332
    139          1           0      -10.906253    4.924793    3.184373
    140          1           0      -11.859621    5.180386    1.791098
 ---------------------------------------------------------------------

 SCF Done:  E(RCAM-B3LYP) =  -3007.16579336     A.U. after   19 cycles

 Excitation energies and oscillator strengths:

 Excited State   1:      Singlet-A      1.6582 eV  747.68 nm  f=0.4059  <S**2>=0.000
     245 -> 248       -0.16945
     246 -> 247        0.68930
     245 <- 248       -0.10827
 This state for optimization and/or second-order correction.
 Total Energy, E(TD-HF/TD-DFT) =  -3007.10485382
 Copying the excited state density for this state as the 1-particle RhoCI density.

 Excited State   2:      Singlet-A      2.1892 eV  566.35 nm  f=0.1321  <S**2>=0.000
     245 -> 247        0.64902
     246 -> 248        0.26235

 Excited State   3:      Singlet-A      3.1549 eV  392.99 nm  f=0.0034  <S**2>=0.000
     242 -> 247       -0.40680
     243 -> 247        0.55009

 Excited State   4:      Singlet-A      3.2329 eV  383.51 nm  f=0.0040  <S**2>=0.000
     241 -> 247       -0.33437
     241 -> 249        0.21244
     241 -> 250        0.11631
     242 -> 247        0.38419
     243 -> 247        0.36919
     246 -> 248       -0.11747

 Excited State   5:      Singlet-A      3.3095 eV  374.63 nm  f=0.0080  <S**2>=0.000
     241 -> 247        0.47655
     241 -> 249       -0.20357
     241 -> 250       -0.10272
     242 -> 247        0.36646
     243 -> 247        0.18936
     246 -> 248       -0.13894

 The electronic state is 1-A.
 Alpha  occ. eigenvalues --  -46.88438 -19.25439 -19.25199 -19.20580 -19.20294
 Alpha  occ. eigenvalues --  -19.19704 -19.17754 -14.42781 -14.42252 -14.39803
 Alpha  occ. eigenvalues --  -14.38427 -10.40076 -10.39565 -10.35584 -10.34238
 Alpha  occ. eigenvalues --  -10.32587 -10.31926 -10.31073 -10.31071 -10.31021
 Alpha  occ. eigenvalues --  -10.30796 -10.30260 -10.30235 -10.29740 -10.28851
 Alpha  occ. eigenvalues --  -10.28714 -10.28603 -10.28537 -10.28293 -10.28167
 Alpha  occ. eigenvalues --  -10.27902 -10.27891 -10.27813 -10.27490 -10.27479
 Alpha  occ. eigenvalues --  -10.27177 -10.27027 -10.26978 -10.26894 -10.26830
 Alpha  occ. eigenvalues --  -10.26773 -10.26740 -10.26495 -10.26296 -10.26197
 Alpha  occ. eigenvalues --  -10.26046 -10.26026 -10.25876 -10.25586 -10.25369
 Alpha  occ. eigenvalues --  -10.25364 -10.25349 -10.25331 -10.25311 -10.24995
 Alpha  occ. eigenvalues --  -10.24681 -10.24640 -10.24519 -10.24390 -10.24330
 Alpha  occ. eigenvalues --  -10.24280 -10.24260 -10.24209 -10.24174 -10.24102
 Alpha  occ. eigenvalues --  -10.23968  -3.16971  -1.91888  -1.91425  -1.91269
 Alpha  occ. eigenvalues --   -1.17314  -1.16133  -1.10987  -1.09036  -1.08203
 Alpha  occ. eigenvalues --   -1.07617  -1.05100  -1.04065  -1.03245  -1.02052
 Alpha  occ. eigenvalues --   -0.92768  -0.90881  -0.90326  -0.90071  -0.89592
 Alpha  occ. eigenvalues --   -0.88997  -0.88894  -0.87638  -0.87342  -0.86602
 Alpha  occ. eigenvalues --   -0.86091  -0.85685  -0.84527  -0.83683  -0.83421
 Alpha  occ. eigenvalues --   -0.82923  -0.82475  -0.81632  -0.81234  -0.80731
 Alpha  occ. eigenvalues --   -0.80241  -0.78497  -0.78157  -0.77303  -0.76130
 Alpha  occ. eigenvalues --   -0.75940  -0.75728  -0.75156  -0.74683  -0.74376
 Alpha  occ. eigenvalues --   -0.73241  -0.72560  -0.71828  -0.70623  -0.69106
 Alpha  occ. eigenvalues --   -0.68700  -0.68248  -0.67323  -0.67043  -0.65965
 Alpha  occ. eigenvalues --   -0.65781  -0.65459  -0.65255  -0.64399  -0.64086
 Alpha  occ. eigenvalues --   -0.63334  -0.63215  -0.62467  -0.62442  -0.60236
 Alpha  occ. eigenvalues --   -0.60147  -0.59651  -0.59132  -0.58900  -0.58455
 Alpha  occ. eigenvalues --   -0.57701  -0.57168  -0.56403  -0.55939  -0.55731
 Alpha  occ. eigenvalues --   -0.55513  -0.55116  -0.54810  -0.54468  -0.54218
 Alpha  occ. eigenvalues --   -0.53906  -0.53456  -0.53405  -0.53012  -0.52868
 Alpha  occ. eigenvalues --   -0.52733  -0.52448  -0.52270  -0.52081  -0.51749
 Alpha  occ. eigenvalues --   -0.51488  -0.51256  -0.51023  -0.50860  -0.50685
 Alpha  occ. eigenvalues --   -0.50585  -0.50473  -0.50334  -0.50297  -0.50106
 Alpha  occ. eigenvalues --   -0.49736  -0.49691  -0.49468  -0.49328  -0.49044
 Alpha  occ. eigenvalues --   -0.48739  -0.48499  -0.48432  -0.48154  -0.48100
 Alpha  occ. eigenvalues --   -0.47934  -0.47640  -0.47471  -0.47087  -0.46900
 Alpha  occ. eigenvalues --   -0.46646  -0.46268  -0.46140  -0.46088  -0.45974
 Alpha  occ. eigenvalues --   -0.45749  -0.45550  -0.45487  -0.45208  -0.45143
 Alpha  occ. eigenvalues --   -0.45078  -0.44463  -0.44338  -0.44161  -0.44047
 Alpha  occ. eigenvalues --   -0.43802  -0.43679  -0.43456  -0.43407  -0.43264
 Alpha  occ. eigenvalues --   -0.43132  -0.42841  -0.42726  -0.42658  -0.42157
 Alpha  occ. eigenvalues --   -0.42048  -0.41957  -0.41880  -0.41840  -0.41611
 Alpha  occ. eigenvalues --   -0.41377  -0.41043  -0.40771  -0.40725  -0.40433
 Alpha  occ. eigenvalues --   -0.40247  -0.39739  -0.39485  -0.38894  -0.38848
 Alpha  occ. eigenvalues --   -0.38385  -0.38158  -0.37858  -0.37839  -0.37389
 Alpha  occ. eigenvalues --   -0.36984  -0.36802  -0.36715  -0.36484  -0.36309
 Alpha  occ. eigenvalues --   -0.35480  -0.35322  -0.35151  -0.34979  -0.34452
 Alpha  occ. eigenvalues --   -0.34146  -0.33737  -0.33452  -0.31196  -0.31004
 Alpha  occ. eigenvalues --   -0.30340  -0.29497  -0.29213  -0.28594  -0.24321
 Alpha  occ. eigenvalues --   -0.21359
 Alpha virt. eigenvalues --   -0.09239  -0.01552   0.00118   0.02311   0.03050
 Alpha virt. eigenvalues --    0.04010   0.04713   0.05270   0.05736   0.06851
 Alpha virt. eigenvalues --    0.07592   0.08008   0.08388   0.08741   0.08920

 Mulliken charges:
               1
     1  Mg   0.811977
     2  C    0.056726
     3  C   -0.122620
     4  C   -0.077670
     5  C   -0.081238
     6  N   -0.293897
     7  C   -0.037963
     8  C   -0.001390
     9  C   -0.066161
    10  C    0.063067
    11  C    0.070117
    12  C    0.025390
    13  C    0.070338
    14  C    0.161807
    15  O   -0.207070
    16  O   -0.359809
    17  N   -0.377034
    18  C    0.216582
    19  C   -0.171204
    20  C   -0.026084
    21  C    0.123040
    22  C    0.113548
    23  C   -0.010883
    24  O   -0.251701
    25  C    0.066360
    26  N   -0.287451
    27  C    0.064169
    28  C   -0.039327
    29  C   -0.028754
    30  C    0.071671
    31  C    0.057259
    32  C    0.000397
    33  C    0.032985
    34  N   -0.340447
    35  C    0.108460
    36  C   -0.182481
    37  C   -0.011275
    38  C    0.053865
    39  C    0.103020
    40  C    0.074022
    41  O   -0.137256
    42  C   -0.073996
    43  C    0.189430
    44  O   -0.191409
    45  O   -0.321269
    46  C    0.177861
    47  C    0.289954
    48  C   -0.147380
    49  C   -0.203903
    50  C    0.106590
    51  C    0.083207
    52  C    0.021575
    53  C    0.068098
    54  C   -0.143519
    55  C    0.062842
    56  C    0.035767
    57  C    0.002347
    58  C    0.052025
    59  C   -0.130351
    60  C    0.070651
    61  C    0.061252
    62  C    0.012970
    63  C    0.067730
    64  C   -0.176677
    65  C    0.045989
    66  C    0.061890
    67  H   -0.026795
    68  H    0.007376
    69  H   -0.036690
    70  H    0.030253
    71  H    0.014436
    72  H    0.025948
    73  H    0.005469
    74  H    0.026608
    75  H    0.011721
    76  H    0.033371
    77  H    0.009603
    78  H    0.014887
    79  H    0.037781
    80  H    0.021724
    81  H    0.018626
    82  H    0.024483
    83  H    0.048755
    84  H    0.027501
    85  H    0.015617
    86  H    0.020778
    87  H    0.025357
    88  H    0.020099
    89  H    0.009647
    90  H    0.008904
    91  H    0.006345
    92  H    0.012078
    93  H    0.036838
    94  H    0.015707
    95  H    0.029470
    96  H    0.018682
    97  H    0.022851
    98  H    0.055927
    99  H    0.036746
   100  H    0.028001
   101  H    0.033052
   102  H    0.051558
   103  H    0.036218
   104  H   -0.000051
   105  H    0.026971
   106  H    0.008858
   107  H    0.015177
   108  H   -0.005522
   109  H    0.002886
   110  H   -0.000963
   111  H   -0.001045
   112  H   -0.013020
   113  H   -0.008953
   114  H   -0.006928
   115  H   -0.001297
   116  H    0.004840
   117  H    0.025588
   118  H   -0.015723
   119  H   -0.015548
   120  H    0.005225
   121  H   -0.004494
   122  H   -0.013010
   123  H   -0.000512
   124  H   -0.001067
   125  H    0.009392
   126  H    0.014010
   127  H    0.005243
   128  H   -0.023307
   129  H   -0.015195
   130  H   -0.009068
   131  H   -0.010129
   132  H   -0.015839
   133  H   -0.000209
   134  H   -0.009221
   135  H   -0.001697
   136  H    0.008591
   137  H    0.007945
   138  H    0.004778
   139  H    0.008765
   140  H   -0.009163
 Sum of Mulliken charges =  -0.00000

 Dipole moment (field-independent basis, Debye):
    X=             -3.4304    Y=              2.3896    Z=             -0.3342  Tot=              4.1940
 Quadrupole moment (field-independent basis, Debye-Ang):
   XX=           -385.0621   YY=           -422.2833   ZZ=           -411.3863
   XY=              2.8783   XZ=             24.0201   YZ=             -0.0232

 Normal termination of Gaussian 16 at Fri Apr 29 04:15:31 2022.
