 Gaussian 16, Revision A.03,
 Gaussian 16:  ES64L-G16RevA.03 25-Dec-2016

 ---------------------------------
 #p PBE1PBE/Def2SVP td=(nstates=5)
 ---------------------------------

 -----------------------------------------------------
 step_1851_chromophore_7 TDDFT with PBE1PBE functional
 -----------------------------------------------------
 Symbolic Z-matrix:
 Charge =  0 Multiplicity = 1

                         Standard orientation:
 ---------------------------------------------------------------------
 Center     Atomic      Atomic             Coordinates (Angstroms)
 Number     Number       Type             X           Y           Z
 ---------------------------------------------------------------------
      1         12           0        6.053051    0.544340    0.123699
      2          6           0        3.761971   -2.101711   -0.026171
      3          6           0        3.582405    2.626930   -1.087259
      4          6           0        8.319478    3.117690    0.038105
      5          6           0        8.557285   -1.642375    1.020780
      6          7           0        3.974024    0.275797   -0.469317
      7          6           0        3.167902   -0.832198   -0.305472
      8          6           0        1.721238   -0.563501   -0.654242
      9          6           0        1.701668    0.991120   -0.919608
     10          6           0        3.198669    1.350560   -0.820375
     11          6           0        0.968599    1.374929   -2.247466
     12          6           0        0.685887   -1.060511    0.362659
     13          6           0       -0.764883   -0.527357    0.349637
     14          6           0       -1.896906   -1.441315    0.910788
     15          8           0       -2.362560   -1.333962    2.024011
     16          8           0       -2.289447   -2.379151   -0.019274
     17          7           0        5.959224    2.609739   -0.413658
     18          6           0        4.831807    3.214272   -0.945407
     19          6           0        5.136722    4.597834   -1.153920
     20          6           0        6.580936    4.835017   -0.850901
     21          6           0        7.033671    3.458408   -0.424150
     22          6           0        4.084066    5.623064   -1.659674
     23          6           0        7.397645    6.060831   -0.790260
     24          8           0        8.657367    6.087200   -0.756696
     25          6           0        6.783729    7.358454   -0.927992
     26          7           0        8.128527    0.679575    0.303899
     27          6           0        8.761016    1.832774    0.431015
     28          6           0       10.254863    1.599687    0.875141
     29          6           0       10.340989    0.095518    0.958736
     30          6           0        8.908454   -0.323900    0.811798
     31          6           0       11.309255    2.188771   -0.099373
     32          6           0       10.848887   -0.259514    2.443831
     33          6           0       11.583575   -1.604392    2.500438
     34          7           0        6.166852   -1.511186    0.514562
     35          6           0        7.288940   -2.217642    0.831860
     36          6           0        6.920952   -3.597058    0.764704
     37          6           0        5.521230   -3.651643    0.558013
     38          6           0        5.129656   -2.340416    0.302929
     39          6           0        7.813191   -4.734246    1.012170
     40          6           0        4.303042   -4.516236    0.516890
     41          8           0        4.224014   -5.700219    0.734642
     42          6           0        3.176146   -3.465038    0.194272
     43          6           0        2.342671   -4.006387   -0.981566
     44          8           0        2.612350   -3.993369   -2.153051
     45          8           0        1.188012   -4.529086   -0.452007
     46          6           0        0.287026   -5.068843   -1.428259
     47          6           0       -3.575691   -3.108552    0.205889
     48          6           0       -4.702839   -2.539109   -0.585331
     49          6           0       -5.965467   -3.098286   -0.891232
     50          6           0       -6.538302   -4.318144   -0.216927
     51          6           0       -6.912623   -2.262748   -1.711869
     52          6           0       -7.632573   -1.313245   -0.771811
     53          6           0       -8.378938   -0.147398   -1.565068
     54          6           0       -9.931684   -0.322646   -1.819822
     55          6           0      -10.378392   -0.086030   -3.297203
     56          6           0      -10.785204    0.615121   -0.897600
     57          6           0      -12.050787    0.021085   -0.298953
     58          6           0      -13.321105    0.675245   -0.813489
     59          6           0      -14.414092    0.382003    0.210809
     60          6           0      -15.421513   -0.630077   -0.418006
     61          6           0      -15.036235    1.738874    0.719701
     62          6           0      -14.479656    2.211759    2.079752
     63          6           0      -13.635495    3.467066    1.952921
     64          6           0      -12.219922    3.189223    2.483355
     65          6           0      -12.103493    2.624181    3.891109
     66          6           0      -11.302853    4.402783    2.312987
     67          1           0        2.720648    3.241853   -1.350860
     68          1           0        9.084485    3.895568   -0.013883
     69          1           0        9.337746   -2.376317    1.233792
     70          1           0        1.686843   -1.177768   -1.554674
     71          1           0        1.187770    1.480744   -0.092747
     72          1           0        1.278158    0.606646   -2.956240
     73          1           0        1.347356    2.342328   -2.579199
     74          1           0       -0.110825    1.490201   -2.160206
     75          1           0        1.027936   -0.733520    1.344834
     76          1           0        0.515260   -2.133421    0.277280
     77          1           0       -1.041837   -0.214522   -0.656495
     78          1           0       -0.724013    0.403290    0.916028
     79          1           0        3.324494    5.828928   -0.906420
     80          1           0        3.606271    5.053787   -2.456883
     81          1           0        4.491680    6.500019   -2.163131
     82          1           0        5.993226    7.337639   -0.176757
     83          1           0        6.436757    7.423881   -1.958959
     84          1           0        7.434649    8.204879   -0.708269
     85          1           0       10.399969    2.041987    1.860098
     86          1           0       10.860506   -0.317296    0.094758
     87          1           0       10.849710    2.831121   -0.851117
     88          1           0       11.987369    1.524630   -0.635205
     89          1           0       11.883047    2.901062    0.493033
     90          1           0        9.999265   -0.125246    3.113235
     91          1           0       11.507215    0.528009    2.809480
     92          1           0       12.647930   -1.419334    2.646624
     93          1           0       11.458934   -2.231141    1.617148
     94          1           0       11.243510   -2.046766    3.436712
     95          1           0        8.429778   -4.871587    0.123364
     96          1           0        7.182558   -5.609223    1.165079
     97          1           0        8.361696   -4.797477    1.951374
     98          1           0        2.608653   -3.501102    1.124046
     99          1           0        0.763524   -5.676978   -2.196279
    100          1           0       -0.240932   -4.271773   -1.951140
    101          1           0       -0.395982   -5.733536   -0.898550
    102          1           0       -3.909827   -3.100808    1.243433
    103          1           0       -3.387670   -4.108454   -0.183907
    104          1           0       -4.419760   -1.613957   -1.087408
    105          1           0       -5.797214   -4.904019    0.327896
    106          1           0       -7.118175   -4.854901   -0.967602
    107          1           0       -7.347829   -3.952536    0.412912
    108          1           0       -7.529162   -3.013035   -2.206736
    109          1           0       -6.386823   -1.692713   -2.477430
    110          1           0       -6.881057   -0.773246   -0.195358
    111          1           0       -8.209581   -1.842865   -0.012836
    112          1           0       -7.900295    0.089140   -2.516095
    113          1           0       -8.322848    0.740178   -0.936137
    114          1           0      -10.145378   -1.339435   -1.489090
    115          1           0      -10.891850   -1.031660   -3.467502
    116          1           0       -9.491559   -0.116435   -3.930293
    117          1           0      -11.112934    0.688701   -3.516277
    118          1           0      -11.057438    1.518473   -1.444125
    119          1           0      -10.157507    1.012891   -0.099422
    120          1           0      -11.893061    0.154656    0.771099
    121          1           0      -12.134584   -1.025764   -0.589018
    122          1           0      -13.489004    0.150323   -1.753189
    123          1           0      -13.181353    1.724965   -1.070832
    124          1           0      -13.991665   -0.020514    1.131478
    125          1           0      -15.611502   -0.325586   -1.446235
    126          1           0      -16.322914   -0.635105    0.194436
    127          1           0      -14.867142   -1.568868   -0.445554
    128          1           0      -16.119202    1.716905    0.838362
    129          1           0      -14.941903    2.498252   -0.056665
    130          1           0      -13.933847    1.403864    2.564883
    131          1           0      -15.232717    2.529510    2.800451
    132          1           0      -14.116818    4.173716    2.629008
    133          1           0      -13.669911    3.904513    0.955336
    134          1           0      -11.839423    2.323860    1.940810
    135          1           0      -12.234384    1.543237    3.837393
    136          1           0      -12.812479    2.949949    4.652045
    137          1           0      -11.062082    2.788800    4.167402
    138          1           0      -10.460977    4.146296    1.670332
    139          1           0      -10.906253    4.924793    3.184373
    140          1           0      -11.859621    5.180386    1.791098
 ---------------------------------------------------------------------

 SCF Done:  E(RPBE1PBE) =  -3005.35605013     A.U. after   16 cycles

 Excitation energies and oscillator strengths:

 Excited State   1:      Singlet-A      1.8153 eV  683.01 nm  f=0.3938  <S**2>=0.000
     245 -> 248        0.16207
     246 -> 247        0.69767
     246 <- 247       -0.11858
 This state for optimization and/or second-order correction.
 Total Energy, E(TD-HF/TD-DFT) =  -3005.28934074
 Copying the excited state density for this state as the 1-particle RhoCI density.

 Excited State   2:      Singlet-A      2.1928 eV  565.42 nm  f=0.1183  <S**2>=0.000
     245 -> 247        0.65718
     246 -> 248       -0.23620

 Excited State   3:      Singlet-A      2.6803 eV  462.57 nm  f=0.0016  <S**2>=0.000
     241 -> 247        0.19186
     243 -> 247        0.64319
     243 -> 249        0.12904

 Excited State   4:      Singlet-A      2.8392 eV  436.68 nm  f=0.0010  <S**2>=0.000
     241 -> 247       -0.12375
     242 -> 247        0.67054
     243 -> 247        0.14706

 Excited State   5:      Singlet-A      2.9581 eV  419.14 nm  f=0.0255  <S**2>=0.000
     240 -> 247        0.11810
     241 -> 247        0.63997
     242 -> 247        0.13871
     243 -> 247       -0.17464
     246 -> 248        0.10845

 The electronic state is 1-A.
 Alpha  occ. eigenvalues --  -46.91835 -19.26173 -19.25876 -19.20807 -19.20596
 Alpha  occ. eigenvalues --  -19.20007 -19.17886 -14.42299 -14.41749 -14.39423
 Alpha  occ. eigenvalues --  -14.38178 -10.37156 -10.36608 -10.32830 -10.31202
 Alpha  occ. eigenvalues --  -10.30012 -10.29768 -10.28686 -10.28644 -10.28353
 Alpha  occ. eigenvalues --  -10.28306 -10.28106 -10.27755 -10.27237 -10.26642
 Alpha  occ. eigenvalues --  -10.26596 -10.26369 -10.26286 -10.26148 -10.25997
 Alpha  occ. eigenvalues --  -10.25510 -10.25499 -10.25432 -10.25105 -10.24981
 Alpha  occ. eigenvalues --  -10.24847 -10.24795 -10.24779 -10.24498 -10.24486
 Alpha  occ. eigenvalues --  -10.24384 -10.24183 -10.24134 -10.23881 -10.23829
 Alpha  occ. eigenvalues --  -10.23631 -10.23604 -10.23572 -10.23073 -10.23034
 Alpha  occ. eigenvalues --  -10.23001 -10.22969 -10.22820 -10.22535 -10.22515
 Alpha  occ. eigenvalues --  -10.22411 -10.22093 -10.22036 -10.21922 -10.21921
 Alpha  occ. eigenvalues --  -10.21816 -10.21759 -10.21707 -10.21681 -10.21667
 Alpha  occ. eigenvalues --  -10.21341  -3.13949  -1.86808  -1.86322  -1.86169
 Alpha  occ. eigenvalues --   -1.12109  -1.10974  -1.05833  -1.03893  -1.03118
 Alpha  occ. eigenvalues --   -1.02197  -0.99741  -0.98722  -0.97986  -0.96630
 Alpha  occ. eigenvalues --   -0.87180  -0.85011  -0.84427  -0.84289  -0.83914
 Alpha  occ. eigenvalues --   -0.83205  -0.83104  -0.81978  -0.81466  -0.80847
 Alpha  occ. eigenvalues --   -0.80378  -0.79943  -0.78754  -0.77941  -0.77698
 Alpha  occ. eigenvalues --   -0.77135  -0.76648  -0.75850  -0.75534  -0.75067
 Alpha  occ. eigenvalues --   -0.74411  -0.72797  -0.72459  -0.71576  -0.70344
 Alpha  occ. eigenvalues --   -0.70257  -0.69802  -0.69516  -0.68832  -0.68555
 Alpha  occ. eigenvalues --   -0.67643  -0.67005  -0.66243  -0.64975  -0.63454
 Alpha  occ. eigenvalues --   -0.63061  -0.62568  -0.61774  -0.61252  -0.60408
 Alpha  occ. eigenvalues --   -0.60215  -0.60070  -0.59421  -0.58990  -0.58232
 Alpha  occ. eigenvalues --   -0.57841  -0.57409  -0.57042  -0.56675  -0.54786
 Alpha  occ. eigenvalues --   -0.54521  -0.54191  -0.53648  -0.53507  -0.52945
 Alpha  occ. eigenvalues --   -0.52231  -0.51717  -0.50875  -0.50531  -0.50291
 Alpha  occ. eigenvalues --   -0.50046  -0.49612  -0.49374  -0.48988  -0.48659
 Alpha  occ. eigenvalues --   -0.48547  -0.48116  -0.47846  -0.47419  -0.47244
 Alpha  occ. eigenvalues --   -0.47176  -0.47100  -0.46784  -0.46560  -0.46327
 Alpha  occ. eigenvalues --   -0.46026  -0.45818  -0.45737  -0.45403  -0.45302
 Alpha  occ. eigenvalues --   -0.45085  -0.44990  -0.44946  -0.44867  -0.44743
 Alpha  occ. eigenvalues --   -0.44386  -0.44189  -0.44004  -0.43900  -0.43661
 Alpha  occ. eigenvalues --   -0.43324  -0.43201  -0.43052  -0.42740  -0.42705
 Alpha  occ. eigenvalues --   -0.42524  -0.42288  -0.42156  -0.41725  -0.41562
 Alpha  occ. eigenvalues --   -0.41414  -0.41020  -0.40867  -0.40745  -0.40540
 Alpha  occ. eigenvalues --   -0.40484  -0.40247  -0.40203  -0.39913  -0.39879
 Alpha  occ. eigenvalues --   -0.39826  -0.39243  -0.39057  -0.38878  -0.38748
 Alpha  occ. eigenvalues --   -0.38631  -0.38502  -0.38253  -0.38176  -0.38149
 Alpha  occ. eigenvalues --   -0.37928  -0.37661  -0.37589  -0.37401  -0.37050
 Alpha  occ. eigenvalues --   -0.36892  -0.36787  -0.36694  -0.36609  -0.36456
 Alpha  occ. eigenvalues --   -0.36089  -0.35904  -0.35561  -0.35504  -0.35195
 Alpha  occ. eigenvalues --   -0.35036  -0.34536  -0.34381  -0.33811  -0.33659
 Alpha  occ. eigenvalues --   -0.33185  -0.33046  -0.32908  -0.32634  -0.32434
 Alpha  occ. eigenvalues --   -0.31937  -0.31747  -0.31667  -0.31397  -0.31374
 Alpha  occ. eigenvalues --   -0.30321  -0.30237  -0.30114  -0.29847  -0.29468
 Alpha  occ. eigenvalues --   -0.29209  -0.28964  -0.28684  -0.26859  -0.26077
 Alpha  occ. eigenvalues --   -0.25264  -0.24964  -0.24688  -0.23954  -0.21257
 Alpha  occ. eigenvalues --   -0.18991
 Alpha virt. eigenvalues --   -0.11647  -0.05099  -0.04036  -0.02122  -0.00487
 Alpha virt. eigenvalues --    0.00362   0.00390   0.00922   0.01039   0.03010
 Alpha virt. eigenvalues --    0.04052   0.04270   0.04552   0.05060   0.05445

 Mulliken charges:
               1
     1  Mg   0.961141
     2  C    0.053896
     3  C   -0.109664
     4  C   -0.062252
     5  C   -0.069429
     6  N   -0.402565
     7  C    0.036649
     8  C   -0.072642
     9  C   -0.150872
    10  C    0.105399
    11  C    0.012050
    12  C   -0.030841
    13  C   -0.005080
    14  C    0.228572
    15  O   -0.240783
    16  O   -0.389004
    17  N   -0.489577
    18  C    0.230930
    19  C   -0.189688
    20  C   -0.068446
    21  C    0.153332
    22  C    0.051933
    23  C    0.026505
    24  O   -0.288096
    25  C   -0.005909
    26  N   -0.394554
    27  C    0.098488
    28  C   -0.115692
    29  C   -0.115753
    30  C    0.109687
    31  C    0.001618
    32  C   -0.053520
    33  C   -0.042227
    34  N   -0.472526
    35  C    0.146000
    36  C   -0.215748
    37  C   -0.051856
    38  C    0.100064
    39  C    0.047874
    40  C    0.173093
    41  O   -0.185366
    42  C   -0.175161
    43  C    0.273868
    44  O   -0.228407
    45  O   -0.353669
    46  C    0.121814
    47  C    0.246407
    48  C   -0.152465
    49  C   -0.251543
    50  C    0.044079
    51  C    0.019398
    52  C   -0.045041
    53  C    0.015188
    54  C   -0.225797
    55  C    0.003549
    56  C   -0.015270
    57  C   -0.062230
    58  C    0.001855
    59  C   -0.219838
    60  C    0.006035
    61  C    0.011315
    62  C   -0.049869
    63  C    0.014558
    64  C   -0.282729
    65  C   -0.013162
    66  C    0.001401
    67  H    0.003948
    68  H    0.037886
    69  H    0.000036
    70  H    0.069034
    71  H    0.053237
    72  H    0.053532
    73  H    0.033642
    74  H    0.053008
    75  H    0.045319
    76  H    0.073123
    77  H    0.044195
    78  H    0.047706
    79  H    0.064673
    80  H    0.049039
    81  H    0.045779
    82  H    0.051990
    83  H    0.074436
    84  H    0.054557
    85  H    0.051849
    86  H    0.056953
    87  H    0.052985
    88  H    0.046324
    89  H    0.037414
    90  H    0.041101
    91  H    0.039695
    92  H    0.041415
    93  H    0.060920
    94  H    0.044306
    95  H    0.058612
    96  H    0.047894
    97  H    0.049807
    98  H    0.092853
    99  H    0.058809
   100  H    0.050731
   101  H    0.055106
   102  H    0.077659
   103  H    0.062386
   104  H    0.029772
   105  H    0.053298
   106  H    0.036937
   107  H    0.043795
   108  H    0.027718
   109  H    0.034584
   110  H    0.033740
   111  H    0.030551
   112  H    0.018081
   113  H    0.023944
   114  H    0.031505
   115  H    0.026896
   116  H    0.032372
   117  H    0.050904
   118  H    0.017096
   119  H    0.016542
   120  H    0.037012
   121  H    0.028647
   122  H    0.021111
   123  H    0.029558
   124  H    0.036778
   125  H    0.037346
   126  H    0.041698
   127  H    0.034520
   128  H    0.009585
   129  H    0.016306
   130  H    0.022258
   131  H    0.023007
   132  H    0.018387
   133  H    0.030420
   134  H    0.039930
   135  H    0.025005
   136  H    0.035938
   137  H    0.036923
   138  H    0.032253
   139  H    0.035298
   140  H    0.018901
 Sum of Mulliken charges =  -0.00000

 Dipole moment (field-independent basis, Debye):
    X=             -3.3829    Y=              2.0375    Z=             -0.2114  Tot=              3.9547
 Quadrupole moment (field-independent basis, Debye-Ang):
   XX=           -378.6121   YY=           -420.2353   ZZ=           -408.9226
   XY=              0.2897   XZ=             25.3767   YZ=             -0.1252

 Normal termination of Gaussian 16 at Fri Apr 29 04:32:48 2022.
