 Gaussian 16, Revision A.03,
 Gaussian 16:  ES64L-G16RevA.03 25-Dec-2016

 --------------------------------
 #p wB97XD/Def2SVP td=(nstates=5)
 --------------------------------

 ----------------------------------------------------
 step_1851_chromophore_7 TDDFT with wB97XD functional
 ----------------------------------------------------
 Symbolic Z-matrix:
 Charge =  0 Multiplicity = 1

                         Standard orientation:
 ---------------------------------------------------------------------
 Center     Atomic      Atomic             Coordinates (Angstroms)
 Number     Number       Type             X           Y           Z
 ---------------------------------------------------------------------
      1         12           0        6.053051    0.544340    0.123699
      2          6           0        3.761971   -2.101711   -0.026171
      3          6           0        3.582405    2.626930   -1.087259
      4          6           0        8.319478    3.117690    0.038105
      5          6           0        8.557285   -1.642375    1.020780
      6          7           0        3.974024    0.275797   -0.469317
      7          6           0        3.167902   -0.832198   -0.305472
      8          6           0        1.721238   -0.563501   -0.654242
      9          6           0        1.701668    0.991120   -0.919608
     10          6           0        3.198669    1.350560   -0.820375
     11          6           0        0.968599    1.374929   -2.247466
     12          6           0        0.685887   -1.060511    0.362659
     13          6           0       -0.764883   -0.527357    0.349637
     14          6           0       -1.896906   -1.441315    0.910788
     15          8           0       -2.362560   -1.333962    2.024011
     16          8           0       -2.289447   -2.379151   -0.019274
     17          7           0        5.959224    2.609739   -0.413658
     18          6           0        4.831807    3.214272   -0.945407
     19          6           0        5.136722    4.597834   -1.153920
     20          6           0        6.580936    4.835017   -0.850901
     21          6           0        7.033671    3.458408   -0.424150
     22          6           0        4.084066    5.623064   -1.659674
     23          6           0        7.397645    6.060831   -0.790260
     24          8           0        8.657367    6.087200   -0.756696
     25          6           0        6.783729    7.358454   -0.927992
     26          7           0        8.128527    0.679575    0.303899
     27          6           0        8.761016    1.832774    0.431015
     28          6           0       10.254863    1.599687    0.875141
     29          6           0       10.340989    0.095518    0.958736
     30          6           0        8.908454   -0.323900    0.811798
     31          6           0       11.309255    2.188771   -0.099373
     32          6           0       10.848887   -0.259514    2.443831
     33          6           0       11.583575   -1.604392    2.500438
     34          7           0        6.166852   -1.511186    0.514562
     35          6           0        7.288940   -2.217642    0.831860
     36          6           0        6.920952   -3.597058    0.764704
     37          6           0        5.521230   -3.651643    0.558013
     38          6           0        5.129656   -2.340416    0.302929
     39          6           0        7.813191   -4.734246    1.012170
     40          6           0        4.303042   -4.516236    0.516890
     41          8           0        4.224014   -5.700219    0.734642
     42          6           0        3.176146   -3.465038    0.194272
     43          6           0        2.342671   -4.006387   -0.981566
     44          8           0        2.612350   -3.993369   -2.153051
     45          8           0        1.188012   -4.529086   -0.452007
     46          6           0        0.287026   -5.068843   -1.428259
     47          6           0       -3.575691   -3.108552    0.205889
     48          6           0       -4.702839   -2.539109   -0.585331
     49          6           0       -5.965467   -3.098286   -0.891232
     50          6           0       -6.538302   -4.318144   -0.216927
     51          6           0       -6.912623   -2.262748   -1.711869
     52          6           0       -7.632573   -1.313245   -0.771811
     53          6           0       -8.378938   -0.147398   -1.565068
     54          6           0       -9.931684   -0.322646   -1.819822
     55          6           0      -10.378392   -0.086030   -3.297203
     56          6           0      -10.785204    0.615121   -0.897600
     57          6           0      -12.050787    0.021085   -0.298953
     58          6           0      -13.321105    0.675245   -0.813489
     59          6           0      -14.414092    0.382003    0.210809
     60          6           0      -15.421513   -0.630077   -0.418006
     61          6           0      -15.036235    1.738874    0.719701
     62          6           0      -14.479656    2.211759    2.079752
     63          6           0      -13.635495    3.467066    1.952921
     64          6           0      -12.219922    3.189223    2.483355
     65          6           0      -12.103493    2.624181    3.891109
     66          6           0      -11.302853    4.402783    2.312987
     67          1           0        2.720648    3.241853   -1.350860
     68          1           0        9.084485    3.895568   -0.013883
     69          1           0        9.337746   -2.376317    1.233792
     70          1           0        1.686843   -1.177768   -1.554674
     71          1           0        1.187770    1.480744   -0.092747
     72          1           0        1.278158    0.606646   -2.956240
     73          1           0        1.347356    2.342328   -2.579199
     74          1           0       -0.110825    1.490201   -2.160206
     75          1           0        1.027936   -0.733520    1.344834
     76          1           0        0.515260   -2.133421    0.277280
     77          1           0       -1.041837   -0.214522   -0.656495
     78          1           0       -0.724013    0.403290    0.916028
     79          1           0        3.324494    5.828928   -0.906420
     80          1           0        3.606271    5.053787   -2.456883
     81          1           0        4.491680    6.500019   -2.163131
     82          1           0        5.993226    7.337639   -0.176757
     83          1           0        6.436757    7.423881   -1.958959
     84          1           0        7.434649    8.204879   -0.708269
     85          1           0       10.399969    2.041987    1.860098
     86          1           0       10.860506   -0.317296    0.094758
     87          1           0       10.849710    2.831121   -0.851117
     88          1           0       11.987369    1.524630   -0.635205
     89          1           0       11.883047    2.901062    0.493033
     90          1           0        9.999265   -0.125246    3.113235
     91          1           0       11.507215    0.528009    2.809480
     92          1           0       12.647930   -1.419334    2.646624
     93          1           0       11.458934   -2.231141    1.617148
     94          1           0       11.243510   -2.046766    3.436712
     95          1           0        8.429778   -4.871587    0.123364
     96          1           0        7.182558   -5.609223    1.165079
     97          1           0        8.361696   -4.797477    1.951374
     98          1           0        2.608653   -3.501102    1.124046
     99          1           0        0.763524   -5.676978   -2.196279
    100          1           0       -0.240932   -4.271773   -1.951140
    101          1           0       -0.395982   -5.733536   -0.898550
    102          1           0       -3.909827   -3.100808    1.243433
    103          1           0       -3.387670   -4.108454   -0.183907
    104          1           0       -4.419760   -1.613957   -1.087408
    105          1           0       -5.797214   -4.904019    0.327896
    106          1           0       -7.118175   -4.854901   -0.967602
    107          1           0       -7.347829   -3.952536    0.412912
    108          1           0       -7.529162   -3.013035   -2.206736
    109          1           0       -6.386823   -1.692713   -2.477430
    110          1           0       -6.881057   -0.773246   -0.195358
    111          1           0       -8.209581   -1.842865   -0.012836
    112          1           0       -7.900295    0.089140   -2.516095
    113          1           0       -8.322848    0.740178   -0.936137
    114          1           0      -10.145378   -1.339435   -1.489090
    115          1           0      -10.891850   -1.031660   -3.467502
    116          1           0       -9.491559   -0.116435   -3.930293
    117          1           0      -11.112934    0.688701   -3.516277
    118          1           0      -11.057438    1.518473   -1.444125
    119          1           0      -10.157507    1.012891   -0.099422
    120          1           0      -11.893061    0.154656    0.771099
    121          1           0      -12.134584   -1.025764   -0.589018
    122          1           0      -13.489004    0.150323   -1.753189
    123          1           0      -13.181353    1.724965   -1.070832
    124          1           0      -13.991665   -0.020514    1.131478
    125          1           0      -15.611502   -0.325586   -1.446235
    126          1           0      -16.322914   -0.635105    0.194436
    127          1           0      -14.867142   -1.568868   -0.445554
    128          1           0      -16.119202    1.716905    0.838362
    129          1           0      -14.941903    2.498252   -0.056665
    130          1           0      -13.933847    1.403864    2.564883
    131          1           0      -15.232717    2.529510    2.800451
    132          1           0      -14.116818    4.173716    2.629008
    133          1           0      -13.669911    3.904513    0.955336
    134          1           0      -11.839423    2.323860    1.940810
    135          1           0      -12.234384    1.543237    3.837393
    136          1           0      -12.812479    2.949949    4.652045
    137          1           0      -11.062082    2.788800    4.167402
    138          1           0      -10.460977    4.146296    1.670332
    139          1           0      -10.906253    4.924793    3.184373
    140          1           0      -11.859621    5.180386    1.791098
 ---------------------------------------------------------------------

 SCF Done:  E(RwB97XD) =  -3007.86411235     A.U. after   20 cycles

 Excitation energies and oscillator strengths:

 Excited State   1:      Singlet-A      1.6005 eV  774.66 nm  f=0.4047  <S**2>=0.000
     245 -> 248       -0.17465
     246 -> 247        0.68698
     245 <- 248       -0.11736
 This state for optimization and/or second-order correction.
 Total Energy, E(TD-HF/TD-DFT) =  -3007.80529477
 Copying the excited state density for this state as the 1-particle RhoCI density.

 Excited State   2:      Singlet-A      2.1328 eV  581.32 nm  f=0.1281  <S**2>=0.000
     245 -> 247        0.64662
     246 -> 248        0.26542

 Excited State   3:      Singlet-A      3.1767 eV  390.29 nm  f=0.0040  <S**2>=0.000
     242 -> 247       -0.47089
     242 -> 249        0.10955
     243 -> 247        0.48429

 Excited State   4:      Singlet-A      3.2570 eV  380.67 nm  f=0.0015  <S**2>=0.000
     241 -> 247       -0.34895
     241 -> 249        0.23796
     241 -> 250        0.12582
     242 -> 247        0.31253
     242 -> 249       -0.10155
     243 -> 247        0.39073
     246 -> 248       -0.11052

 Excited State   5:      Singlet-A      3.3349 eV  371.78 nm  f=0.0086  <S**2>=0.000
     241 -> 247        0.45976
     241 -> 249       -0.18809
     242 -> 247        0.32334
     243 -> 247        0.27318
     246 -> 248       -0.18309

 The electronic state is 1-A.
 Alpha  occ. eigenvalues --  -46.94790 -19.30695 -19.30414 -19.25492 -19.25257
 Alpha  occ. eigenvalues --  -19.24717 -19.22846 -14.47401 -14.46850 -14.44448
 Alpha  occ. eigenvalues --  -14.42997 -10.43924 -10.43408 -10.39587 -10.38223
 Alpha  occ. eigenvalues --  -10.36485 -10.35945 -10.35123 -10.35058 -10.34897
 Alpha  occ. eigenvalues --  -10.34779 -10.34322 -10.34230 -10.33985 -10.32920
 Alpha  occ. eigenvalues --  -10.32674 -10.32643 -10.32593 -10.32420 -10.32132
 Alpha  occ. eigenvalues --  -10.32068 -10.31853 -10.31837 -10.31481 -10.31468
 Alpha  occ. eigenvalues --  -10.31213 -10.31048 -10.30931 -10.30925 -10.30884
 Alpha  occ. eigenvalues --  -10.30723 -10.30577 -10.30509 -10.30294 -10.30255
 Alpha  occ. eigenvalues --  -10.29999 -10.29956 -10.29872 -10.29420 -10.29316
 Alpha  occ. eigenvalues --  -10.29304 -10.29290 -10.29241 -10.29204 -10.28837
 Alpha  occ. eigenvalues --  -10.28540 -10.28515 -10.28473 -10.28306 -10.28267
 Alpha  occ. eigenvalues --  -10.28184 -10.28119 -10.28096 -10.28078 -10.28032
 Alpha  occ. eigenvalues --  -10.27767  -3.20749  -1.94359  -1.93873  -1.93720
 Alpha  occ. eigenvalues --   -1.19467  -1.18331  -1.13203  -1.11220  -1.10436
 Alpha  occ. eigenvalues --   -1.09861  -1.07102  -1.06068  -1.05267  -1.04134
 Alpha  occ. eigenvalues --   -0.94725  -0.92687  -0.92087  -0.91920  -0.91487
 Alpha  occ. eigenvalues --   -0.90841  -0.90759  -0.89560  -0.89129  -0.88565
 Alpha  occ. eigenvalues --   -0.88026  -0.87581  -0.86417  -0.85580  -0.85302
 Alpha  occ. eigenvalues --   -0.84788  -0.84410  -0.83514  -0.83147  -0.82690
 Alpha  occ. eigenvalues --   -0.82073  -0.80419  -0.80122  -0.79244  -0.77981
 Alpha  occ. eigenvalues --   -0.77873  -0.77500  -0.77105  -0.76507  -0.76214
 Alpha  occ. eigenvalues --   -0.75195  -0.74536  -0.73797  -0.72572  -0.70992
 Alpha  occ. eigenvalues --   -0.70666  -0.70171  -0.69340  -0.68899  -0.67885
 Alpha  occ. eigenvalues --   -0.67754  -0.67472  -0.67087  -0.66405  -0.65904
 Alpha  occ. eigenvalues --   -0.65294  -0.65068  -0.64412  -0.64295  -0.62237
 Alpha  occ. eigenvalues --   -0.62046  -0.61629  -0.61112  -0.60861  -0.60403
 Alpha  occ. eigenvalues --   -0.59646  -0.59131  -0.58339  -0.57888  -0.57673
 Alpha  occ. eigenvalues --   -0.57435  -0.57044  -0.56783  -0.56408  -0.56135
 Alpha  occ. eigenvalues --   -0.55859  -0.55409  -0.55273  -0.54977  -0.54790
 Alpha  occ. eigenvalues --   -0.54599  -0.54371  -0.54200  -0.53942  -0.53681
 Alpha  occ. eigenvalues --   -0.53410  -0.53179  -0.52951  -0.52746  -0.52608
 Alpha  occ. eigenvalues --   -0.52536  -0.52378  -0.52250  -0.52197  -0.52033
 Alpha  occ. eigenvalues --   -0.51664  -0.51544  -0.51456  -0.51209  -0.50967
 Alpha  occ. eigenvalues --   -0.50621  -0.50391  -0.50341  -0.50106  -0.49999
 Alpha  occ. eigenvalues --   -0.49844  -0.49570  -0.49402  -0.48983  -0.48871
 Alpha  occ. eigenvalues --   -0.48582  -0.48215  -0.48063  -0.47969  -0.47813
 Alpha  occ. eigenvalues --   -0.47676  -0.47438  -0.47406  -0.47113  -0.47047
 Alpha  occ. eigenvalues --   -0.47010  -0.46416  -0.46230  -0.46064  -0.45925
 Alpha  occ. eigenvalues --   -0.45726  -0.45604  -0.45369  -0.45305  -0.45207
 Alpha  occ. eigenvalues --   -0.45040  -0.44757  -0.44610  -0.44514  -0.44120
 Alpha  occ. eigenvalues --   -0.44008  -0.43886  -0.43782  -0.43712  -0.43528
 Alpha  occ. eigenvalues --   -0.43221  -0.42953  -0.42756  -0.42592  -0.42298
 Alpha  occ. eigenvalues --   -0.42225  -0.41592  -0.41387  -0.40758  -0.40712
 Alpha  occ. eigenvalues --   -0.40209  -0.40057  -0.39786  -0.39675  -0.39507
 Alpha  occ. eigenvalues --   -0.38972  -0.38709  -0.38685  -0.38405  -0.38214
 Alpha  occ. eigenvalues --   -0.37325  -0.37170  -0.37140  -0.36812  -0.36401
 Alpha  occ. eigenvalues --   -0.36136  -0.35652  -0.35570  -0.33417  -0.32993
 Alpha  occ. eigenvalues --   -0.32321  -0.31690  -0.31362  -0.30645  -0.26253
 Alpha  occ. eigenvalues --   -0.23165
 Alpha virt. eigenvalues --   -0.07609   0.00369   0.02168   0.04410   0.06125
 Alpha virt. eigenvalues --    0.06242   0.07108   0.07667   0.07879   0.09518
 Alpha virt. eigenvalues --    0.10575   0.10841   0.11352   0.11730   0.12221

 Mulliken charges:
               1
     1  Mg   0.951176
     2  C    0.046903
     3  C   -0.127075
     4  C   -0.082209
     5  C   -0.083917
     6  N   -0.367770
     7  C    0.004475
     8  C   -0.049115
     9  C   -0.120267
    10  C    0.089414
    11  C    0.023772
    12  C   -0.011255
    13  C    0.012328
    14  C    0.218579
    15  O   -0.238711
    16  O   -0.388432
    17  N   -0.457461
    18  C    0.228271
    19  C   -0.183143
    20  C   -0.066413
    21  C    0.147659
    22  C    0.066203
    23  C    0.030497
    24  O   -0.281396
    25  C    0.003827
    26  N   -0.361741
    27  C    0.086539
    28  C   -0.090491
    29  C   -0.087605
    30  C    0.097676
    31  C    0.010684
    32  C   -0.038527
    33  C   -0.027694
    34  N   -0.431666
    35  C    0.128873
    36  C   -0.203292
    37  C   -0.051359
    38  C    0.084975
    39  C    0.054723
    40  C    0.153289
    41  O   -0.175716
    42  C   -0.138178
    43  C    0.250997
    44  O   -0.222175
    45  O   -0.351659
    46  C    0.136546
    47  C    0.260392
    48  C   -0.164961
    49  C   -0.233605
    50  C    0.056648
    51  C    0.036405
    52  C   -0.026963
    53  C    0.031226
    54  C   -0.198051
    55  C    0.015705
    56  C    0.002517
    57  C   -0.040426
    58  C    0.015253
    59  C   -0.187355
    60  C    0.022272
    61  C    0.023532
    62  C   -0.029304
    63  C    0.024363
    64  C   -0.234240
    65  C   -0.004409
    66  C    0.011129
    67  H   -0.005161
    68  H    0.032170
    69  H   -0.012310
    70  H    0.056755
    71  H    0.041182
    72  H    0.047854
    73  H    0.026730
    74  H    0.048216
    75  H    0.037606
    76  H    0.056032
    77  H    0.034454
    78  H    0.041230
    79  H    0.061807
    80  H    0.042882
    81  H    0.041514
    82  H    0.045968
    83  H    0.069228
    84  H    0.054520
    85  H    0.041638
    86  H    0.046707
    87  H    0.045686
    88  H    0.042301
    89  H    0.032066
    90  H    0.032663
    91  H    0.030102
    92  H    0.036256
    93  H    0.055395
    94  H    0.038793
    95  H    0.053240
    96  H    0.043260
    97  H    0.044860
    98  H    0.085888
    99  H    0.054213
   100  H    0.047165
   101  H    0.051733
   102  H    0.073875
   103  H    0.058010
   104  H    0.025263
   105  H    0.049405
   106  H    0.030832
   107  H    0.036674
   108  H    0.019207
   109  H    0.027274
   110  H    0.024160
   111  H    0.021730
   112  H    0.009053
   113  H    0.014857
   114  H    0.016313
   115  H    0.020327
   116  H    0.026174
   117  H    0.045563
   118  H    0.005033
   119  H    0.007028
   120  H    0.024942
   121  H    0.018236
   122  H    0.010478
   123  H    0.019180
   124  H    0.021786
   125  H    0.030205
   126  H    0.036344
   127  H    0.027483
   128  H    0.002736
   129  H    0.005840
   130  H    0.006503
   131  H    0.016698
   132  H    0.009284
   133  H    0.021483
   134  H    0.014881
   135  H    0.018936
   136  H    0.030769
   137  H    0.030776
   138  H    0.027024
   139  H    0.030256
   140  H    0.012468
 Sum of Mulliken charges =  -0.00000

 Dipole moment (field-independent basis, Debye):
    X=             -3.5003    Y=              2.5545    Z=             -0.3440  Tot=              4.3469
 Quadrupole moment (field-independent basis, Debye-Ang):
   XX=           -379.8052   YY=           -417.6781   ZZ=           -408.6832
   XY=              3.6011   XZ=             24.7499   YZ=             -0.3869

 Normal termination of Gaussian 16 at Fri Apr 29 04:56:04 2022.
