 Gaussian 16, Revision A.03,
 Gaussian 16:  ES64L-G16RevA.03 25-Dec-2016

 --------------------
 #p ZINDO=(nstates=5)
 --------------------

 -----------------------------
 step_1851_chromophore_7 ZINDO
 -----------------------------
 Symbolic Z-matrix:
 Charge =  0 Multiplicity = 1

                         Standard orientation:
 ---------------------------------------------------------------------
 Center     Atomic      Atomic             Coordinates (Angstroms)
 Number     Number       Type             X           Y           Z
 ---------------------------------------------------------------------
      1         12           0        6.053051    0.544340    0.123699
      2          6           0        3.761971   -2.101711   -0.026171
      3          6           0        3.582405    2.626930   -1.087259
      4          6           0        8.319478    3.117690    0.038105
      5          6           0        8.557285   -1.642375    1.020780
      6          7           0        3.974024    0.275797   -0.469317
      7          6           0        3.167902   -0.832198   -0.305472
      8          6           0        1.721238   -0.563501   -0.654242
      9          6           0        1.701668    0.991120   -0.919608
     10          6           0        3.198669    1.350560   -0.820375
     11          6           0        0.968599    1.374929   -2.247466
     12          6           0        0.685887   -1.060511    0.362659
     13          6           0       -0.764883   -0.527357    0.349637
     14          6           0       -1.896906   -1.441315    0.910788
     15          8           0       -2.362560   -1.333962    2.024011
     16          8           0       -2.289447   -2.379151   -0.019274
     17          7           0        5.959224    2.609739   -0.413658
     18          6           0        4.831807    3.214272   -0.945407
     19          6           0        5.136722    4.597834   -1.153920
     20          6           0        6.580936    4.835017   -0.850901
     21          6           0        7.033671    3.458408   -0.424150
     22          6           0        4.084066    5.623064   -1.659674
     23          6           0        7.397645    6.060831   -0.790260
     24          8           0        8.657367    6.087200   -0.756696
     25          6           0        6.783729    7.358454   -0.927992
     26          7           0        8.128527    0.679575    0.303899
     27          6           0        8.761016    1.832774    0.431015
     28          6           0       10.254863    1.599687    0.875141
     29          6           0       10.340989    0.095518    0.958736
     30          6           0        8.908454   -0.323900    0.811798
     31          6           0       11.309255    2.188771   -0.099373
     32          6           0       10.848887   -0.259514    2.443831
     33          6           0       11.583575   -1.604392    2.500438
     34          7           0        6.166852   -1.511186    0.514562
     35          6           0        7.288940   -2.217642    0.831860
     36          6           0        6.920952   -3.597058    0.764704
     37          6           0        5.521230   -3.651643    0.558013
     38          6           0        5.129656   -2.340416    0.302929
     39          6           0        7.813191   -4.734246    1.012170
     40          6           0        4.303042   -4.516236    0.516890
     41          8           0        4.224014   -5.700219    0.734642
     42          6           0        3.176146   -3.465038    0.194272
     43          6           0        2.342671   -4.006387   -0.981566
     44          8           0        2.612350   -3.993369   -2.153051
     45          8           0        1.188012   -4.529086   -0.452007
     46          6           0        0.287026   -5.068843   -1.428259
     47          6           0       -3.575691   -3.108552    0.205889
     48          6           0       -4.702839   -2.539109   -0.585331
     49          6           0       -5.965467   -3.098286   -0.891232
     50          6           0       -6.538302   -4.318144   -0.216927
     51          6           0       -6.912623   -2.262748   -1.711869
     52          6           0       -7.632573   -1.313245   -0.771811
     53          6           0       -8.378938   -0.147398   -1.565068
     54          6           0       -9.931684   -0.322646   -1.819822
     55          6           0      -10.378392   -0.086030   -3.297203
     56          6           0      -10.785204    0.615121   -0.897600
     57          6           0      -12.050787    0.021085   -0.298953
     58          6           0      -13.321105    0.675245   -0.813489
     59          6           0      -14.414092    0.382003    0.210809
     60          6           0      -15.421513   -0.630077   -0.418006
     61          6           0      -15.036235    1.738874    0.719701
     62          6           0      -14.479656    2.211759    2.079752
     63          6           0      -13.635495    3.467066    1.952921
     64          6           0      -12.219922    3.189223    2.483355
     65          6           0      -12.103493    2.624181    3.891109
     66          6           0      -11.302853    4.402783    2.312987
     67          1           0        2.720648    3.241853   -1.350860
     68          1           0        9.084485    3.895568   -0.013883
     69          1           0        9.337746   -2.376317    1.233792
     70          1           0        1.686843   -1.177768   -1.554674
     71          1           0        1.187770    1.480744   -0.092747
     72          1           0        1.278158    0.606646   -2.956240
     73          1           0        1.347356    2.342328   -2.579199
     74          1           0       -0.110825    1.490201   -2.160206
     75          1           0        1.027936   -0.733520    1.344834
     76          1           0        0.515260   -2.133421    0.277280
     77          1           0       -1.041837   -0.214522   -0.656495
     78          1           0       -0.724013    0.403290    0.916028
     79          1           0        3.324494    5.828928   -0.906420
     80          1           0        3.606271    5.053787   -2.456883
     81          1           0        4.491680    6.500019   -2.163131
     82          1           0        5.993226    7.337639   -0.176757
     83          1           0        6.436757    7.423881   -1.958959
     84          1           0        7.434649    8.204879   -0.708269
     85          1           0       10.399969    2.041987    1.860098
     86          1           0       10.860506   -0.317296    0.094758
     87          1           0       10.849710    2.831121   -0.851117
     88          1           0       11.987369    1.524630   -0.635205
     89          1           0       11.883047    2.901062    0.493033
     90          1           0        9.999265   -0.125246    3.113235
     91          1           0       11.507215    0.528009    2.809480
     92          1           0       12.647930   -1.419334    2.646624
     93          1           0       11.458934   -2.231141    1.617148
     94          1           0       11.243510   -2.046766    3.436712
     95          1           0        8.429778   -4.871587    0.123364
     96          1           0        7.182558   -5.609223    1.165079
     97          1           0        8.361696   -4.797477    1.951374
     98          1           0        2.608653   -3.501102    1.124046
     99          1           0        0.763524   -5.676978   -2.196279
    100          1           0       -0.240932   -4.271773   -1.951140
    101          1           0       -0.395982   -5.733536   -0.898550
    102          1           0       -3.909827   -3.100808    1.243433
    103          1           0       -3.387670   -4.108454   -0.183907
    104          1           0       -4.419760   -1.613957   -1.087408
    105          1           0       -5.797214   -4.904019    0.327896
    106          1           0       -7.118175   -4.854901   -0.967602
    107          1           0       -7.347829   -3.952536    0.412912
    108          1           0       -7.529162   -3.013035   -2.206736
    109          1           0       -6.386823   -1.692713   -2.477430
    110          1           0       -6.881057   -0.773246   -0.195358
    111          1           0       -8.209581   -1.842865   -0.012836
    112          1           0       -7.900295    0.089140   -2.516095
    113          1           0       -8.322848    0.740178   -0.936137
    114          1           0      -10.145378   -1.339435   -1.489090
    115          1           0      -10.891850   -1.031660   -3.467502
    116          1           0       -9.491559   -0.116435   -3.930293
    117          1           0      -11.112934    0.688701   -3.516277
    118          1           0      -11.057438    1.518473   -1.444125
    119          1           0      -10.157507    1.012891   -0.099422
    120          1           0      -11.893061    0.154656    0.771099
    121          1           0      -12.134584   -1.025764   -0.589018
    122          1           0      -13.489004    0.150323   -1.753189
    123          1           0      -13.181353    1.724965   -1.070832
    124          1           0      -13.991665   -0.020514    1.131478
    125          1           0      -15.611502   -0.325586   -1.446235
    126          1           0      -16.322914   -0.635105    0.194436
    127          1           0      -14.867142   -1.568868   -0.445554
    128          1           0      -16.119202    1.716905    0.838362
    129          1           0      -14.941903    2.498252   -0.056665
    130          1           0      -13.933847    1.403864    2.564883
    131          1           0      -15.232717    2.529510    2.800451
    132          1           0      -14.116818    4.173716    2.629008
    133          1           0      -13.669911    3.904513    0.955336
    134          1           0      -11.839423    2.323860    1.940810
    135          1           0      -12.234384    1.543237    3.837393
    136          1           0      -12.812479    2.949949    4.652045
    137          1           0      -11.062082    2.788800    4.167402
    138          1           0      -10.460977    4.146296    1.670332
    139          1           0      -10.906253    4.924793    3.184373
    140          1           0      -11.859621    5.180386    1.791098
 ---------------------------------------------------------------------

 SCF Done:  E(RZINDO/S) =  -474.469837725     A.U. after   20 cycles

 Excitation energies and oscillator strengths:

 Excited State   1:      Singlet-A      1.2157 eV 1019.84 nm  f=0.6318  <S**2>=0.000
     175 ->178         0.18692
     176 ->177         0.66431
 This state for optimization and/or second-order correction.
 Total Energy, E(CIS/TDA) =  -474.425160973
 Copying the excited state density for this state as the 1-particle RhoCI density.

 Excited State   2:      Singlet-A      1.9036 eV  651.32 nm  f=0.0852  <S**2>=0.000
     175 ->177         0.57327
     176 ->178        -0.38564

 Excited State   3:      Singlet-A      2.7830 eV  445.51 nm  f=0.0031  <S**2>=0.000
     170 ->177         0.35807
     170 ->178        -0.12525
     170 ->179        -0.37828
     170 ->180         0.26508
     170 ->186        -0.20221
     170 ->187         0.14144

 Excited State   4:      Singlet-A      3.0173 eV  410.91 nm  f=0.4901  <S**2>=0.000
     171 ->177        -0.35527
     172 ->177        -0.15533
     173 ->177        -0.10503
     175 ->177         0.24639
     176 ->178         0.43697
     176 ->179         0.19026

 Excited State   5:      Singlet-A      3.0523 eV  406.21 nm  f=0.1414  <S**2>=0.000
     169 ->177         0.13664
     169 ->179         0.14796
     169 ->180         0.16403
     169 ->186         0.10410
     171 ->177         0.25290
     172 ->177        -0.21726
     173 ->177         0.38629
     175 ->177         0.11939
     176 ->178         0.19328
     176 ->179        -0.22119

 The electronic state is 1-A.
 Alpha  occ. eigenvalues --   -1.85328  -1.82556  -1.79625  -1.73794  -1.71502
 Alpha  occ. eigenvalues --   -1.70072  -1.67183  -1.60992  -1.58885  -1.58795
 Alpha  occ. eigenvalues --   -1.56863  -1.51351  -1.49228  -1.49103  -1.47611
 Alpha  occ. eigenvalues --   -1.45750  -1.45259  -1.40451  -1.40165  -1.38388
 Alpha  occ. eigenvalues --   -1.36332  -1.34010  -1.32734  -1.31596  -1.28244
 Alpha  occ. eigenvalues --   -1.27353  -1.26072  -1.23087  -1.21266  -1.18575
 Alpha  occ. eigenvalues --   -1.17521  -1.16969  -1.15417  -1.15196  -1.13085
 Alpha  occ. eigenvalues --   -1.12614  -1.10950  -1.10422  -1.04310  -1.03463
 Alpha  occ. eigenvalues --   -1.01504  -1.00724  -0.98756  -0.98363  -0.97550
 Alpha  occ. eigenvalues --   -0.96320  -0.95170  -0.93945  -0.92529  -0.92088
 Alpha  occ. eigenvalues --   -0.90947  -0.90788  -0.89397  -0.88826  -0.86140
 Alpha  occ. eigenvalues --   -0.86062  -0.84522  -0.83107  -0.81634  -0.80364
 Alpha  occ. eigenvalues --   -0.79691  -0.79466  -0.77610  -0.77143  -0.76509
 Alpha  occ. eigenvalues --   -0.75687  -0.75279  -0.74903  -0.74620  -0.73435
 Alpha  occ. eigenvalues --   -0.73316  -0.72396  -0.72112  -0.71748  -0.70747
 Alpha  occ. eigenvalues --   -0.70115  -0.69154  -0.68141  -0.67906  -0.67793
 Alpha  occ. eigenvalues --   -0.67058  -0.66882  -0.66665  -0.66361  -0.65647
 Alpha  occ. eigenvalues --   -0.65377  -0.65106  -0.64543  -0.64475  -0.63511
 Alpha  occ. eigenvalues --   -0.63366  -0.63137  -0.62995  -0.62813  -0.62366
 Alpha  occ. eigenvalues --   -0.62059  -0.61146  -0.60998  -0.60630  -0.60081
 Alpha  occ. eigenvalues --   -0.59224  -0.58991  -0.58752  -0.58258  -0.58172
 Alpha  occ. eigenvalues --   -0.57605  -0.57356  -0.57310  -0.56998  -0.56506
 Alpha  occ. eigenvalues --   -0.56414  -0.55814  -0.55607  -0.55467  -0.55118
 Alpha  occ. eigenvalues --   -0.54971  -0.54579  -0.54113  -0.53535  -0.52987
 Alpha  occ. eigenvalues --   -0.52581  -0.52362  -0.51979  -0.51879  -0.51353
 Alpha  occ. eigenvalues --   -0.50989  -0.50852  -0.50710  -0.50572  -0.50467
 Alpha  occ. eigenvalues --   -0.50131  -0.50076  -0.49767  -0.49508  -0.49217
 Alpha  occ. eigenvalues --   -0.48782  -0.48427  -0.48368  -0.48247  -0.47989
 Alpha  occ. eigenvalues --   -0.47651  -0.47302  -0.47218  -0.46816  -0.46597
 Alpha  occ. eigenvalues --   -0.46324  -0.46179  -0.45892  -0.45705  -0.45638
 Alpha  occ. eigenvalues --   -0.45016  -0.44118  -0.43760  -0.43562  -0.43278
 Alpha  occ. eigenvalues --   -0.43101  -0.43077  -0.42295  -0.42163  -0.42145
 Alpha  occ. eigenvalues --   -0.41892  -0.41535  -0.40889  -0.39475  -0.39182
 Alpha  occ. eigenvalues --   -0.38612  -0.36922  -0.35379  -0.34905  -0.34742
 Alpha  occ. eigenvalues --   -0.32690  -0.32488  -0.31963  -0.30327  -0.26791
 Alpha  occ. eigenvalues --   -0.22058
 Alpha virt. eigenvalues --   -0.09078  -0.01965  -0.00682   0.01195   0.01874
 Alpha virt. eigenvalues --    0.02679   0.02925   0.03031   0.03950   0.04829
 Alpha virt. eigenvalues --    0.06106   0.06559   0.07060   0.07320   0.08002

 Mulliken charges:
               1
     1  Mg   0.418755
     2  C   -0.051542
     3  C   -0.069137
     4  C   -0.067478
     5  C   -0.064712
     6  N   -0.282318
     7  C    0.120335
     8  C    0.006205
     9  C   -0.002491
    10  C    0.136206
    11  C   -0.054298
    12  C   -0.021670
    13  C    0.000130
    14  C    0.472482
    15  O   -0.505101
    16  O   -0.280322
    17  N   -0.333938
    18  C    0.121656
    19  C    0.007417
    20  C   -0.064068
    21  C    0.144253
    22  C   -0.050034
    23  C    0.339594
    24  O   -0.557317
    25  C   -0.021331
    26  N   -0.246652
    27  C    0.151619
    28  C    0.000582
    29  C   -0.005444
    30  C    0.116061
    31  C   -0.058189
    32  C   -0.032383
    33  C   -0.057649
    34  N   -0.327427
    35  C    0.087415
    36  C    0.031866
    37  C   -0.066322
    38  C    0.107787
    39  C   -0.045745
    40  C    0.336717
    41  O   -0.501706
    42  C    0.063554
    43  C    0.482225
    44  O   -0.507325
    45  O   -0.266266
    46  C    0.078183
    47  C    0.110864
    48  C   -0.105927
    49  C   -0.020093
    50  C   -0.041882
    51  C   -0.012205
    52  C   -0.025683
    53  C   -0.048258
    54  C   -0.017741
    55  C   -0.063949
    56  C   -0.043568
    57  C   -0.035755
    58  C   -0.031139
    59  C   -0.017432
    60  C   -0.058447
    61  C   -0.041087
    62  C   -0.040494
    63  C   -0.030463
    64  C   -0.005452
    65  C   -0.054528
    66  C   -0.059576
    67  H    0.025801
    68  H    0.054806
    69  H    0.030792
    70  H    0.045103
    71  H    0.030615
    72  H    0.028808
    73  H    0.018785
    74  H    0.026787
    75  H    0.027364
    76  H    0.032138
    77  H    0.030778
    78  H    0.029388
    79  H    0.039130
    80  H    0.021102
    81  H    0.031803
    82  H    0.027248
    83  H    0.047086
    84  H    0.039017
    85  H    0.035944
    86  H    0.047302
    87  H    0.024555
    88  H    0.028611
    89  H    0.015033
    90  H    0.026987
    91  H    0.014632
    92  H    0.016760
    93  H    0.031505
    94  H    0.019758
    95  H    0.035151
    96  H    0.021177
    97  H    0.030719
    98  H    0.056755
    99  H    0.045865
   100  H    0.037234
   101  H    0.028674
   102  H    0.064244
   103  H    0.042375
   104  H    0.027621
   105  H    0.033073
   106  H    0.026292
   107  H    0.030966
   108  H    0.020928
   109  H    0.024638
   110  H    0.017172
   111  H    0.030852
   112  H    0.024052
   113  H    0.014505
   114  H    0.020160
   115  H    0.008308
   116  H    0.023275
   117  H    0.035775
   118  H    0.013035
   119  H    0.009640
   120  H    0.021366
   121  H    0.020871
   122  H    0.014872
   123  H    0.025202
   124  H    0.025116
   125  H    0.023118
   126  H    0.022966
   127  H    0.020575
   128  H    0.008636
   129  H    0.017497
   130  H    0.024752
   131  H    0.014705
   132  H    0.011454
   133  H    0.025625
   134  H    0.018107
   135  H    0.008372
   136  H    0.024482
   137  H    0.017006
   138  H    0.014657
   139  H    0.023100
   140  H    0.008031
 Sum of Mulliken charges =  -0.00000

 Dipole moment (field-independent basis, Debye):
    X=             -4.6892    Y=              4.6904    Z=             -0.3684  Tot=              6.6426
 N-N= 4.227480776968D+03 E-N= 0.000000000000D+00  KE=-9.129230069420D+03
 Leave Link  601 at Fri Apr 29 05:09:56 2022, MaxMem=  6710886400 cpu:               1.0 elap:               0.1
 (Enter /sw/apps/gaussian-16.0/g16/l9999.exe)
 1\1\GINC-BP1-COMPUTE082\SP\RZINDO CIS\STO-3G\C55H74Mg1N4O6\OF15641\29-
 Apr-2022\0\\#p ZINDO=(nstates=5)\\step_1851_chromophore_7 ZINDO\\0,1\M
 g,0,26.62,0.519,29.138\C,0,28.338,-0.127,32.122\C,0,23.734,0.895,30.99
 2\C,0,24.852,0.934,26.228\C,0,29.46,-0.184,27.322\N,0,26.13,0.393,31.2
 57\C,0,26.986,0.285,32.334\C,0,26.281,0.438,33.663\C,0,24.814,0.838,33
 .244\C,0,24.874,0.707,31.708\C,0,23.718,0.001,33.983\C,0,26.949,1.385,
 34.668\C,0,26.168,1.942,35.88\C,0,26.967,2.342,37.158\O,0,27.281,3.48,

 Normal termination of Gaussian 16 at Fri Apr 29 05:09:56 2022.
