 Gaussian 16, Revision A.03,
 Gaussian 16:  ES64L-G16RevA.03 25-Dec-2016

 ------------------------------
 #p blyp/Def2SVP td=(nstates=5)
 ------------------------------

 --------------------------------------------------
 step_1601_chromophore_8 TDDFT with blyp functional
 --------------------------------------------------
 Symbolic Z-matrix:
 Charge =  0 Multiplicity = 1

                         Standard orientation:
 ---------------------------------------------------------------------
 Center     Atomic      Atomic             Coordinates (Angstroms)
 Number     Number       Type             X           Y           Z
 ---------------------------------------------------------------------
      1         12           0        4.560361    0.909025    0.155055
      2          6           0        3.929028   -2.457547    0.693687
      3          6           0        4.231302    0.358256   -3.271513
      4          6           0        4.443545    4.350033   -0.423204
      5          6           0        4.210220    1.524575    3.513947
      6          7           0        4.178617   -0.791788   -1.053946
      7          6           0        4.018197   -2.114210   -0.639212
      8          6           0        3.954093   -3.066228   -1.817486
      9          6           0        4.169822   -2.204280   -3.068934
     10          6           0        4.158141   -0.760648   -2.421942
     11          6           0        5.494153   -2.430237   -3.804418
     12          6           0        2.700086   -3.978298   -1.874656
     13          6           0        1.331151   -3.259990   -1.976118
     14          6           0        0.166066   -3.977843   -1.336169
     15          8           0        0.228619   -4.735374   -0.345302
     16          8           0       -0.962081   -3.833607   -2.078121
     17          7           0        4.380086    2.214831   -1.583603
     18          6           0        4.371815    1.741474   -2.878938
     19          6           0        4.172836    2.860920   -3.747380
     20          6           0        4.004449    4.015374   -2.932122
     21          6           0        4.240765    3.562403   -1.565042
     22          6           0        4.146366    2.749060   -5.221532
     23          6           0        3.712563    5.449311   -3.345616
     24          8           0        3.702488    5.799870   -4.535744
     25          6           0        3.351008    6.453356   -2.340561
     26          7           0        4.111133    2.638827    1.436388
     27          6           0        4.423349    3.926813    0.918716
     28          6           0        4.809587    4.914105    2.014649
     29          6           0        4.645636    4.025414    3.344830
     30          6           0        4.340236    2.605528    2.734528
     31          6           0        6.318504    5.443737    1.821279
     32          6           0        3.563738    4.507386    4.306627
     33          6           0        4.043044    5.353163    5.476843
     34          7           0        4.131915   -0.187765    1.846959
     35          6           0        4.096834    0.166013    3.189945
     36          6           0        4.159655   -1.078171    3.961602
     37          6           0        4.002929   -2.100696    3.049356
     38          6           0        4.032912   -1.538427    1.771118
     39          6           0        4.303414   -1.064135    5.462768
     40          6           0        3.828929   -3.471792    2.935662
     41          8           0        3.745508   -4.307923    3.781280
     42          6           0        3.843258   -3.784233    1.377365
     43          6           0        5.002393   -4.573367    1.210258
     44          8           0        6.148496   -4.192503    1.440360
     45          8           0        4.645637   -5.767771    0.638345
     46          6           0        5.717997   -6.735300    0.334953
     47          6           0       -2.234536   -4.448969   -1.638465
     48          6           0       -3.046619   -3.386734   -0.940799
     49          6           0       -4.374874   -3.381159   -0.617415
     50          6           0       -5.336463   -4.571272   -0.807359
     51          6           0       -4.967628   -2.079291   -0.079486
     52          6           0       -5.532279   -1.235208   -1.249984
     53          6           0       -4.720378    0.014152   -1.565104
     54          6           0       -5.520836    1.247920   -2.116720
     55          6           0       -4.547139    2.337094   -2.777407
     56          6           0       -6.460280    1.837632   -1.041304
     57          6           0       -7.990973    1.734910   -1.334660
     58          6           0       -8.646278    0.816089   -0.283851
     59          6           0       -9.725037    1.496687    0.578668
     60          6           0       -9.071631    2.093176    1.788112
     61          6           0      -10.874141    0.537236    1.086299
     62          6           0      -12.108326    0.528289    0.212567
     63          6           0      -13.372999   -0.175017    0.951490
     64          6           0      -14.322371    0.956425    1.398643
     65          6           0      -15.450842    1.189639    0.436584
     66          6           0      -14.916260    0.438002    2.785174
     67          1           0        4.238197    0.081676   -4.328201
     68          1           0        4.681187    5.415094   -0.455217
     69          1           0        4.379236    1.643253    4.585634
     70          1           0        4.790117   -3.716558   -1.562519
     71          1           0        3.309439   -2.260391   -3.735164
     72          1           0        5.244284   -2.712063   -4.827774
     73          1           0        6.092929   -3.213220   -3.338072
     74          1           0        6.169053   -1.577085   -3.870691
     75          1           0        2.739828   -4.644812   -1.013235
     76          1           0        2.882042   -4.536561   -2.792603
     77          1           0        1.090559   -3.051533   -3.018604
     78          1           0        1.370608   -2.317269   -1.429925
     79          1           0        3.112682    2.799378   -5.562239
     80          1           0        4.505161    1.755517   -5.491800
     81          1           0        4.779044    3.575658   -5.544396
     82          1           0        4.112147    7.190340   -2.086282
     83          1           0        2.893247    5.889645   -1.527179
     84          1           0        2.463786    6.989042   -2.680742
     85          1           0        4.154487    5.786408    2.003846
     86          1           0        5.548262    3.842765    3.928100
     87          1           0        6.250603    6.331327    1.191130
     88          1           0        6.957437    4.646373    1.442986
     89          1           0        6.621259    5.727674    2.828774
     90          1           0        3.017588    3.597345    4.556359
     91          1           0        2.985902    5.257801    3.767132
     92          1           0        3.770487    6.405630    5.394077
     93          1           0        5.119297    5.221939    5.588420
     94          1           0        3.601306    4.917853    6.372902
     95          1           0        5.124702   -0.452337    5.836879
     96          1           0        4.357458   -2.028939    5.968098
     97          1           0        3.354462   -0.696813    5.855275
     98          1           0        2.949129   -4.386806    1.217299
     99          1           0        5.726739   -6.753548   -0.754895
    100          1           0        5.331058   -7.676183    0.727099
    101          1           0        6.685059   -6.502012    0.781654
    102          1           0       -1.980086   -5.282254   -0.982248
    103          1           0       -2.703714   -4.959958   -2.478688
    104          1           0       -2.438111   -2.482908   -0.974559
    105          1           0       -5.652707   -4.736431   -1.836710
    106          1           0       -6.128194   -4.397190   -0.078201
    107          1           0       -4.780571   -5.473027   -0.550049
    108          1           0       -4.112330   -1.593540    0.389859
    109          1           0       -5.732210   -2.356757    0.646180
    110          1           0       -6.588593   -1.034754   -1.069941
    111          1           0       -5.516985   -1.888276   -2.122932
    112          1           0       -4.066743   -0.286850   -2.384683
    113          1           0       -4.134959    0.411270   -0.736846
    114          1           0       -6.128475    0.944743   -2.969049
    115          1           0       -4.633125    3.339238   -2.358108
    116          1           0       -4.650503    2.329564   -3.862985
    117          1           0       -3.539669    1.966994   -2.583363
    118          1           0       -6.325348    2.918024   -0.993413
    119          1           0       -6.103709    1.510661   -0.063844
    120          1           0       -8.317801    1.459862   -2.337008
    121          1           0       -8.360605    2.747330   -1.168873
    122          1           0       -7.969755    0.218420    0.327359
    123          1           0       -9.132066    0.046090   -0.883640
    124          1           0      -10.227324    2.256792   -0.019209
    125          1           0       -9.727493    2.786231    2.314399
    126          1           0       -8.222344    2.672149    1.424326
    127          1           0       -8.746098    1.404941    2.568492
    128          1           0      -11.193234    0.643482    2.122657
    129          1           0      -10.526479   -0.495321    1.055589
    130          1           0      -11.843741    0.143201   -0.772048
    131          1           0      -12.372763    1.537657   -0.101730
    132          1           0      -13.118099   -0.899376    1.725013
    133          1           0      -13.892767   -0.764878    0.197382
    134          1           0      -13.813509    1.911915    1.525592
    135          1           0      -15.432632    2.234728    0.127870
    136          1           0      -16.395741    1.001894    0.947471
    137          1           0      -15.480285    0.583633   -0.469057
    138          1           0      -14.173518   -0.105009    3.369433
    139          1           0      -15.819238   -0.172789    2.803310
    140          1           0      -15.141964    1.416606    3.208711
 ---------------------------------------------------------------------

 SCF Done:  E(RB-LYP) =  -3007.36882764     A.U. after   21 cycles

 Excitation energies and oscillator strengths:

 Excited State   1:      Singlet-A      1.6136 eV  768.38 nm  f=0.0122  <S**2>=0.000
     244 -> 247        0.62652
     245 -> 247        0.29107
     246 -> 247        0.14822
 This state for optimization and/or second-order correction.
 Total Energy, E(TD-HF/TD-DFT) =  -3007.30952938
 Copying the excited state density for this state as the 1-particle RhoCI density.

 Excited State   2:      Singlet-A      1.7790 eV  696.95 nm  f=0.2957  <S**2>=0.000
     244 -> 247       -0.12639
     245 -> 248        0.15513
     246 -> 247        0.68381
     246 <- 247       -0.16559

 Excited State   3:      Singlet-A      1.8717 eV  662.41 nm  f=0.0038  <S**2>=0.000
     243 -> 247        0.67206
     244 -> 247       -0.10010
     245 -> 247        0.18682

 Excited State   4:      Singlet-A      2.0302 eV  610.69 nm  f=0.0830  <S**2>=0.000
     243 -> 247       -0.21368
     244 -> 247       -0.26075
     245 -> 247        0.55752
     246 -> 248       -0.22056

 Excited State   5:      Singlet-A      2.1401 eV  579.35 nm  f=0.0000  <S**2>=0.000
     242 -> 247        0.70701

 The electronic state is 1-A.
 Alpha  occ. eigenvalues --  -46.27577 -18.82212 -18.81851 -18.76490 -18.75937
 Alpha  occ. eigenvalues --  -18.75452 -18.74494 -14.03874 -14.02884 -14.00997
 Alpha  occ. eigenvalues --  -14.00476 -10.04359 -10.02963  -9.98997  -9.98631
 Alpha  occ. eigenvalues --   -9.98025  -9.97595  -9.96799  -9.96652  -9.96596
 Alpha  occ. eigenvalues --   -9.95781  -9.95628  -9.95421  -9.95390  -9.94548
 Alpha  occ. eigenvalues --   -9.94446  -9.94271  -9.93961  -9.93954  -9.93807
 Alpha  occ. eigenvalues --   -9.93736  -9.93538  -9.93415  -9.93226  -9.93223
 Alpha  occ. eigenvalues --   -9.93122  -9.92897  -9.92871  -9.92753  -9.92702
 Alpha  occ. eigenvalues --   -9.92320  -9.92294  -9.92289  -9.92025  -9.91943
 Alpha  occ. eigenvalues --   -9.91931  -9.91878  -9.91865  -9.91819  -9.91725
 Alpha  occ. eigenvalues --   -9.91630  -9.91591  -9.91420  -9.91379  -9.91348
 Alpha  occ. eigenvalues --   -9.91258  -9.91066  -9.90870  -9.90802  -9.90774
 Alpha  occ. eigenvalues --   -9.90646  -9.90646  -9.90486  -9.90460  -9.90366
 Alpha  occ. eigenvalues --   -9.90211  -2.92147  -1.72541  -1.72029  -1.71872
 Alpha  occ. eigenvalues --   -0.97533  -0.97140  -0.92759  -0.89801  -0.89231
 Alpha  occ. eigenvalues --   -0.88661  -0.86398  -0.85574  -0.85438  -0.84658
 Alpha  occ. eigenvalues --   -0.76189  -0.73482  -0.73208  -0.72774  -0.72396
 Alpha  occ. eigenvalues --   -0.72160  -0.71637  -0.71229  -0.70774  -0.70027
 Alpha  occ. eigenvalues --   -0.69641  -0.69338  -0.68446  -0.67947  -0.67451
 Alpha  occ. eigenvalues --   -0.66512  -0.66257  -0.65449  -0.65220  -0.64850
 Alpha  occ. eigenvalues --   -0.64048  -0.62936  -0.62014  -0.61642  -0.60825
 Alpha  occ. eigenvalues --   -0.60424  -0.59897  -0.59861  -0.59276  -0.58555
 Alpha  occ. eigenvalues --   -0.58458  -0.57903  -0.57002  -0.56056  -0.54412
 Alpha  occ. eigenvalues --   -0.54146  -0.53650  -0.52425  -0.52102  -0.51606
 Alpha  occ. eigenvalues --   -0.51355  -0.51219  -0.50982  -0.50381  -0.49853
 Alpha  occ. eigenvalues --   -0.49296  -0.49238  -0.48957  -0.48218  -0.46939
 Alpha  occ. eigenvalues --   -0.46365  -0.45841  -0.45268  -0.44994  -0.44817
 Alpha  occ. eigenvalues --   -0.44331  -0.43856  -0.43058  -0.42666  -0.42356
 Alpha  occ. eigenvalues --   -0.42082  -0.41730  -0.41697  -0.41414  -0.41077
 Alpha  occ. eigenvalues --   -0.40707  -0.40390  -0.40228  -0.40045  -0.39954
 Alpha  occ. eigenvalues --   -0.39710  -0.39613  -0.39468  -0.39279  -0.38991
 Alpha  occ. eigenvalues --   -0.38731  -0.38550  -0.38419  -0.38284  -0.38233
 Alpha  occ. eigenvalues --   -0.37892  -0.37722  -0.37555  -0.37345  -0.37232
 Alpha  occ. eigenvalues --   -0.37137  -0.36793  -0.36630  -0.36572  -0.36516
 Alpha  occ. eigenvalues --   -0.36278  -0.36144  -0.36006  -0.35781  -0.35359
 Alpha  occ. eigenvalues --   -0.35173  -0.35084  -0.34943  -0.34728  -0.34678
 Alpha  occ. eigenvalues --   -0.34552  -0.34505  -0.34413  -0.34221  -0.34018
 Alpha  occ. eigenvalues --   -0.33850  -0.33584  -0.33333  -0.33176  -0.33041
 Alpha  occ. eigenvalues --   -0.32952  -0.32833  -0.32711  -0.32687  -0.32461
 Alpha  occ. eigenvalues --   -0.32206  -0.32041  -0.31729  -0.31658  -0.31402
 Alpha  occ. eigenvalues --   -0.31146  -0.31046  -0.30806  -0.30709  -0.30532
 Alpha  occ. eigenvalues --   -0.30439  -0.30150  -0.29998  -0.29839  -0.29648
 Alpha  occ. eigenvalues --   -0.29510  -0.29375  -0.29170  -0.28950  -0.28729
 Alpha  occ. eigenvalues --   -0.28602  -0.28484  -0.28444  -0.28180  -0.28079
 Alpha  occ. eigenvalues --   -0.27720  -0.27288  -0.26986  -0.26652  -0.26369
 Alpha  occ. eigenvalues --   -0.26343  -0.25909  -0.25585  -0.25245  -0.24963
 Alpha  occ. eigenvalues --   -0.24734  -0.24567  -0.23828  -0.23637  -0.23085
 Alpha  occ. eigenvalues --   -0.22920  -0.22455  -0.21771  -0.21460  -0.20605
 Alpha  occ. eigenvalues --   -0.19891  -0.19738  -0.18692  -0.17780  -0.17545
 Alpha  occ. eigenvalues --   -0.15862
 Alpha virt. eigenvalues --   -0.11873  -0.06748  -0.05781  -0.04476  -0.03606
 Alpha virt. eigenvalues --   -0.03023  -0.02233  -0.01893  -0.01487   0.00232
 Alpha virt. eigenvalues --    0.01613   0.01779   0.02218   0.02824   0.03101

 Mulliken charges:
               1
     1  Mg   0.676089
     2  C    0.055905
     3  C   -0.044036
     4  C   -0.052136
     5  C   -0.060570
     6  N   -0.243312
     7  C   -0.105136
     8  C    0.056021
     9  C   -0.005064
    10  C   -0.003301
    11  C    0.134217
    12  C    0.106651
    13  C    0.125713
    14  C    0.067021
    15  O   -0.208538
    16  O   -0.268019
    17  N   -0.260386
    18  C    0.139705
    19  C   -0.186708
    20  C    0.035234
    21  C    0.152865
    22  C    0.211149
    23  C   -0.091131
    24  O   -0.190572
    25  C    0.143259
    26  N   -0.208537
    27  C   -0.008145
    28  C   -0.001094
    29  C    0.024222
    30  C    0.028634
    31  C    0.109001
    32  C    0.093891
    33  C    0.076927
    34  N   -0.287623
    35  C    0.075332
    36  C   -0.162157
    37  C    0.187618
    38  C    0.066345
    39  C    0.160773
    40  C   -0.143872
    41  O   -0.087359
    42  C    0.067449
    43  C    0.098712
    44  O   -0.197586
    45  O   -0.276259
    46  C    0.205662
    47  C    0.292094
    48  C   -0.091633
    49  C   -0.201997
    50  C    0.146705
    51  C    0.147568
    52  C    0.102502
    53  C    0.087991
    54  C   -0.086324
    55  C    0.101518
    56  C    0.107681
    57  C    0.092373
    58  C    0.064759
    59  C   -0.019434
    60  C    0.111307
    61  C    0.109573
    62  C    0.037691
    63  C    0.129955
    64  C   -0.106800
    65  C    0.125576
    66  C    0.073774
    67  H   -0.058791
    68  H   -0.057707
    69  H   -0.068812
    70  H   -0.022321
    71  H   -0.016190
    72  H   -0.009466
    73  H   -0.010197
    74  H    0.001315
    75  H    0.011830
    76  H   -0.022768
    77  H   -0.003805
    78  H    0.019880
    79  H    0.004919
    80  H   -0.028035
    81  H    0.021879
    82  H    0.025353
    83  H   -0.012058
    84  H   -0.007448
    85  H   -0.018068
    86  H   -0.031289
    87  H    0.002648
    88  H    0.004660
    89  H   -0.004247
    90  H   -0.012686
    91  H   -0.026605
    92  H    0.000707
    93  H   -0.019611
    94  H   -0.009192
    95  H    0.003588
    96  H   -0.005250
    97  H   -0.002555
    98  H    0.006095
    99  H    0.013473
   100  H    0.021976
   101  H    0.033982
   102  H    0.006258
   103  H   -0.002438
   104  H   -0.021550
   105  H    0.012825
   106  H   -0.005283
   107  H   -0.005901
   108  H   -0.019064
   109  H   -0.032708
   110  H   -0.029126
   111  H   -0.031037
   112  H   -0.028692
   113  H   -0.019884
   114  H   -0.046199
   115  H   -0.009483
   116  H   -0.012984
   117  H   -0.029548
   118  H   -0.048399
   119  H   -0.027469
   120  H   -0.019687
   121  H   -0.032890
   122  H   -0.019957
   123  H   -0.046741
   124  H   -0.044396
   125  H   -0.026226
   126  H   -0.029161
   127  H   -0.015912
   128  H   -0.041387
   129  H   -0.044000
   130  H   -0.048389
   131  H   -0.044150
   132  H   -0.029464
   133  H   -0.045549
   134  H   -0.018408
   135  H   -0.021716
   136  H   -0.024088
   137  H   -0.015097
   138  H   -0.013861
   139  H   -0.005529
   140  H   -0.019643
 Sum of Mulliken charges =  -0.00000

 Dipole moment (field-independent basis, Debye):
    X=             -0.7086    Y=              0.8406    Z=             -0.8487  Tot=              1.3889
 Quadrupole moment (field-independent basis, Debye-Ang):
   XX=           -382.6694   YY=           -405.4774   ZZ=           -414.7374
   XY=              9.2903   XZ=              5.7792   YZ=             56.5592

 Normal termination of Gaussian 16 at Thu Apr 28 16:26:11 2022.
