 Gaussian 16, Revision A.03,
 Gaussian 16:  ES64L-G16RevA.03 25-Dec-2016

 -----------------------------------
 #p cam-b3lyp/Def2SVP td=(nstates=5)
 -----------------------------------

 -------------------------------------------------------
 step_1601_chromophore_8 TDDFT with cam-b3lyp functional
 -------------------------------------------------------
 Symbolic Z-matrix:
 Charge =  0 Multiplicity = 1

                         Standard orientation:
 ---------------------------------------------------------------------
 Center     Atomic      Atomic             Coordinates (Angstroms)
 Number     Number       Type             X           Y           Z
 ---------------------------------------------------------------------
      1         12           0        4.560361    0.909025    0.155055
      2          6           0        3.929028   -2.457547    0.693687
      3          6           0        4.231302    0.358256   -3.271513
      4          6           0        4.443545    4.350033   -0.423204
      5          6           0        4.210220    1.524575    3.513947
      6          7           0        4.178617   -0.791788   -1.053946
      7          6           0        4.018197   -2.114210   -0.639212
      8          6           0        3.954093   -3.066228   -1.817486
      9          6           0        4.169822   -2.204280   -3.068934
     10          6           0        4.158141   -0.760648   -2.421942
     11          6           0        5.494153   -2.430237   -3.804418
     12          6           0        2.700086   -3.978298   -1.874656
     13          6           0        1.331151   -3.259990   -1.976118
     14          6           0        0.166066   -3.977843   -1.336169
     15          8           0        0.228619   -4.735374   -0.345302
     16          8           0       -0.962081   -3.833607   -2.078121
     17          7           0        4.380086    2.214831   -1.583603
     18          6           0        4.371815    1.741474   -2.878938
     19          6           0        4.172836    2.860920   -3.747380
     20          6           0        4.004449    4.015374   -2.932122
     21          6           0        4.240765    3.562403   -1.565042
     22          6           0        4.146366    2.749060   -5.221532
     23          6           0        3.712563    5.449311   -3.345616
     24          8           0        3.702488    5.799870   -4.535744
     25          6           0        3.351008    6.453356   -2.340561
     26          7           0        4.111133    2.638827    1.436388
     27          6           0        4.423349    3.926813    0.918716
     28          6           0        4.809587    4.914105    2.014649
     29          6           0        4.645636    4.025414    3.344830
     30          6           0        4.340236    2.605528    2.734528
     31          6           0        6.318504    5.443737    1.821279
     32          6           0        3.563738    4.507386    4.306627
     33          6           0        4.043044    5.353163    5.476843
     34          7           0        4.131915   -0.187765    1.846959
     35          6           0        4.096834    0.166013    3.189945
     36          6           0        4.159655   -1.078171    3.961602
     37          6           0        4.002929   -2.100696    3.049356
     38          6           0        4.032912   -1.538427    1.771118
     39          6           0        4.303414   -1.064135    5.462768
     40          6           0        3.828929   -3.471792    2.935662
     41          8           0        3.745508   -4.307923    3.781280
     42          6           0        3.843258   -3.784233    1.377365
     43          6           0        5.002393   -4.573367    1.210258
     44          8           0        6.148496   -4.192503    1.440360
     45          8           0        4.645637   -5.767771    0.638345
     46          6           0        5.717997   -6.735300    0.334953
     47          6           0       -2.234536   -4.448969   -1.638465
     48          6           0       -3.046619   -3.386734   -0.940799
     49          6           0       -4.374874   -3.381159   -0.617415
     50          6           0       -5.336463   -4.571272   -0.807359
     51          6           0       -4.967628   -2.079291   -0.079486
     52          6           0       -5.532279   -1.235208   -1.249984
     53          6           0       -4.720378    0.014152   -1.565104
     54          6           0       -5.520836    1.247920   -2.116720
     55          6           0       -4.547139    2.337094   -2.777407
     56          6           0       -6.460280    1.837632   -1.041304
     57          6           0       -7.990973    1.734910   -1.334660
     58          6           0       -8.646278    0.816089   -0.283851
     59          6           0       -9.725037    1.496687    0.578668
     60          6           0       -9.071631    2.093176    1.788112
     61          6           0      -10.874141    0.537236    1.086299
     62          6           0      -12.108326    0.528289    0.212567
     63          6           0      -13.372999   -0.175017    0.951490
     64          6           0      -14.322371    0.956425    1.398643
     65          6           0      -15.450842    1.189639    0.436584
     66          6           0      -14.916260    0.438002    2.785174
     67          1           0        4.238197    0.081676   -4.328201
     68          1           0        4.681187    5.415094   -0.455217
     69          1           0        4.379236    1.643253    4.585634
     70          1           0        4.790117   -3.716558   -1.562519
     71          1           0        3.309439   -2.260391   -3.735164
     72          1           0        5.244284   -2.712063   -4.827774
     73          1           0        6.092929   -3.213220   -3.338072
     74          1           0        6.169053   -1.577085   -3.870691
     75          1           0        2.739828   -4.644812   -1.013235
     76          1           0        2.882042   -4.536561   -2.792603
     77          1           0        1.090559   -3.051533   -3.018604
     78          1           0        1.370608   -2.317269   -1.429925
     79          1           0        3.112682    2.799378   -5.562239
     80          1           0        4.505161    1.755517   -5.491800
     81          1           0        4.779044    3.575658   -5.544396
     82          1           0        4.112147    7.190340   -2.086282
     83          1           0        2.893247    5.889645   -1.527179
     84          1           0        2.463786    6.989042   -2.680742
     85          1           0        4.154487    5.786408    2.003846
     86          1           0        5.548262    3.842765    3.928100
     87          1           0        6.250603    6.331327    1.191130
     88          1           0        6.957437    4.646373    1.442986
     89          1           0        6.621259    5.727674    2.828774
     90          1           0        3.017588    3.597345    4.556359
     91          1           0        2.985902    5.257801    3.767132
     92          1           0        3.770487    6.405630    5.394077
     93          1           0        5.119297    5.221939    5.588420
     94          1           0        3.601306    4.917853    6.372902
     95          1           0        5.124702   -0.452337    5.836879
     96          1           0        4.357458   -2.028939    5.968098
     97          1           0        3.354462   -0.696813    5.855275
     98          1           0        2.949129   -4.386806    1.217299
     99          1           0        5.726739   -6.753548   -0.754895
    100          1           0        5.331058   -7.676183    0.727099
    101          1           0        6.685059   -6.502012    0.781654
    102          1           0       -1.980086   -5.282254   -0.982248
    103          1           0       -2.703714   -4.959958   -2.478688
    104          1           0       -2.438111   -2.482908   -0.974559
    105          1           0       -5.652707   -4.736431   -1.836710
    106          1           0       -6.128194   -4.397190   -0.078201
    107          1           0       -4.780571   -5.473027   -0.550049
    108          1           0       -4.112330   -1.593540    0.389859
    109          1           0       -5.732210   -2.356757    0.646180
    110          1           0       -6.588593   -1.034754   -1.069941
    111          1           0       -5.516985   -1.888276   -2.122932
    112          1           0       -4.066743   -0.286850   -2.384683
    113          1           0       -4.134959    0.411270   -0.736846
    114          1           0       -6.128475    0.944743   -2.969049
    115          1           0       -4.633125    3.339238   -2.358108
    116          1           0       -4.650503    2.329564   -3.862985
    117          1           0       -3.539669    1.966994   -2.583363
    118          1           0       -6.325348    2.918024   -0.993413
    119          1           0       -6.103709    1.510661   -0.063844
    120          1           0       -8.317801    1.459862   -2.337008
    121          1           0       -8.360605    2.747330   -1.168873
    122          1           0       -7.969755    0.218420    0.327359
    123          1           0       -9.132066    0.046090   -0.883640
    124          1           0      -10.227324    2.256792   -0.019209
    125          1           0       -9.727493    2.786231    2.314399
    126          1           0       -8.222344    2.672149    1.424326
    127          1           0       -8.746098    1.404941    2.568492
    128          1           0      -11.193234    0.643482    2.122657
    129          1           0      -10.526479   -0.495321    1.055589
    130          1           0      -11.843741    0.143201   -0.772048
    131          1           0      -12.372763    1.537657   -0.101730
    132          1           0      -13.118099   -0.899376    1.725013
    133          1           0      -13.892767   -0.764878    0.197382
    134          1           0      -13.813509    1.911915    1.525592
    135          1           0      -15.432632    2.234728    0.127870
    136          1           0      -16.395741    1.001894    0.947471
    137          1           0      -15.480285    0.583633   -0.469057
    138          1           0      -14.173518   -0.105009    3.369433
    139          1           0      -15.819238   -0.172789    2.803310
    140          1           0      -15.141964    1.416606    3.208711
 ---------------------------------------------------------------------

 SCF Done:  E(RCAM-B3LYP) =  -3007.16710058     A.U. after   17 cycles

 Excitation energies and oscillator strengths:

 Excited State   1:      Singlet-A      1.6340 eV  758.77 nm  f=0.3762  <S**2>=0.000
     245 -> 248       -0.15966
     246 -> 247        0.69134
     245 <- 248       -0.10536
 This state for optimization and/or second-order correction.
 Total Energy, E(TD-HF/TD-DFT) =  -3007.10705144
 Copying the excited state density for this state as the 1-particle RhoCI density.

 Excited State   2:      Singlet-A      2.2189 eV  558.76 nm  f=0.1227  <S**2>=0.000
     245 -> 247        0.64398
     246 -> 248        0.27286

 Excited State   3:      Singlet-A      3.1366 eV  395.29 nm  f=0.0024  <S**2>=0.000
     244 -> 247        0.68255

 Excited State   4:      Singlet-A      3.3646 eV  368.50 nm  f=0.0068  <S**2>=0.000
     242 -> 247        0.64146
     246 -> 248       -0.24066

 Excited State   5:      Singlet-A      3.4329 eV  361.16 nm  f=0.0022  <S**2>=0.000
     241 -> 247        0.54472
     241 -> 248       -0.17253
     241 -> 249       -0.29124
     241 -> 251        0.22028

 The electronic state is 1-A.
 Alpha  occ. eigenvalues --  -46.89201 -19.25047 -19.24885 -19.19368 -19.19085
 Alpha  occ. eigenvalues --  -19.18630 -19.17693 -14.42823 -14.41754 -14.39452
 Alpha  occ. eigenvalues --  -14.38900 -10.39641 -10.38465 -10.34162 -10.33890
 Alpha  occ. eigenvalues --  -10.32052 -10.31665 -10.31315 -10.31214 -10.31168
 Alpha  occ. eigenvalues --  -10.30130 -10.30051 -10.29709 -10.29675 -10.28617
 Alpha  occ. eigenvalues --  -10.28572 -10.28490 -10.28311 -10.27981 -10.27890
 Alpha  occ. eigenvalues --  -10.27813 -10.27748 -10.27596 -10.27371 -10.27285
 Alpha  occ. eigenvalues --  -10.27173 -10.27026 -10.26972 -10.26621 -10.26415
 Alpha  occ. eigenvalues --  -10.26406 -10.26073 -10.26033 -10.26022 -10.25985
 Alpha  occ. eigenvalues --  -10.25677 -10.25626 -10.25604 -10.25565 -10.25550
 Alpha  occ. eigenvalues --  -10.25310 -10.25245 -10.25202 -10.25152 -10.25014
 Alpha  occ. eigenvalues --  -10.24966 -10.24768 -10.24551 -10.24434 -10.24369
 Alpha  occ. eigenvalues --  -10.24271 -10.24259 -10.24243 -10.24124 -10.23999
 Alpha  occ. eigenvalues --  -10.23903  -3.17665  -1.92537  -1.92118  -1.91970
 Alpha  occ. eigenvalues --   -1.15903  -1.15767  -1.11242  -1.08158  -1.07259
 Alpha  occ. eigenvalues --   -1.06432  -1.04157  -1.03252  -1.03051  -1.02178
 Alpha  occ. eigenvalues --   -0.93408  -0.90319  -0.90013  -0.89549  -0.89169
 Alpha  occ. eigenvalues --   -0.88811  -0.88291  -0.87872  -0.87319  -0.86578
 Alpha  occ. eigenvalues --   -0.86098  -0.85837  -0.84736  -0.84204  -0.83659
 Alpha  occ. eigenvalues --   -0.82520  -0.82347  -0.81496  -0.81081  -0.80728
 Alpha  occ. eigenvalues --   -0.79832  -0.78599  -0.77565  -0.77260  -0.76286
 Alpha  occ. eigenvalues --   -0.75747  -0.75220  -0.75147  -0.74537  -0.73708
 Alpha  occ. eigenvalues --   -0.73582  -0.72932  -0.71916  -0.70880  -0.69064
 Alpha  occ. eigenvalues --   -0.68745  -0.68167  -0.66815  -0.66469  -0.65738
 Alpha  occ. eigenvalues --   -0.65571  -0.65369  -0.65096  -0.64388  -0.63863
 Alpha  occ. eigenvalues --   -0.63176  -0.62970  -0.62832  -0.62021  -0.60500
 Alpha  occ. eigenvalues --   -0.59987  -0.59411  -0.58810  -0.58550  -0.58370
 Alpha  occ. eigenvalues --   -0.57779  -0.57301  -0.56205  -0.55820  -0.55644
 Alpha  occ. eigenvalues --   -0.55266  -0.54707  -0.54513  -0.54114  -0.53871
 Alpha  occ. eigenvalues --   -0.53492  -0.53039  -0.53001  -0.52947  -0.52671
 Alpha  occ. eigenvalues --   -0.52422  -0.52210  -0.52168  -0.51894  -0.51733
 Alpha  occ. eigenvalues --   -0.51277  -0.51123  -0.50931  -0.50897  -0.50480
 Alpha  occ. eigenvalues --   -0.50207  -0.49969  -0.49918  -0.49766  -0.49413
 Alpha  occ. eigenvalues --   -0.49384  -0.49277  -0.49172  -0.49010  -0.48814
 Alpha  occ. eigenvalues --   -0.48640  -0.48476  -0.48237  -0.47985  -0.47447
 Alpha  occ. eigenvalues --   -0.47094  -0.46996  -0.46890  -0.46737  -0.46631
 Alpha  occ. eigenvalues --   -0.46416  -0.46312  -0.46246  -0.46209  -0.45869
 Alpha  occ. eigenvalues --   -0.45605  -0.45556  -0.45417  -0.45080  -0.44773
 Alpha  occ. eigenvalues --   -0.44600  -0.44423  -0.44391  -0.44250  -0.44011
 Alpha  occ. eigenvalues --   -0.43727  -0.43508  -0.43357  -0.43246  -0.43078
 Alpha  occ. eigenvalues --   -0.42749  -0.42651  -0.42437  -0.42265  -0.42029
 Alpha  occ. eigenvalues --   -0.41969  -0.41690  -0.41248  -0.41038  -0.40986
 Alpha  occ. eigenvalues --   -0.40849  -0.40665  -0.40623  -0.40288  -0.40185
 Alpha  occ. eigenvalues --   -0.39601  -0.39473  -0.39385  -0.39245  -0.38936
 Alpha  occ. eigenvalues --   -0.38589  -0.38158  -0.37842  -0.37372  -0.37285
 Alpha  occ. eigenvalues --   -0.37112  -0.36833  -0.36667  -0.36357  -0.36096
 Alpha  occ. eigenvalues --   -0.35638  -0.35293  -0.34307  -0.34240  -0.34112
 Alpha  occ. eigenvalues --   -0.33907  -0.33173  -0.32968  -0.31539  -0.30593
 Alpha  occ. eigenvalues --   -0.30245  -0.29972  -0.29279  -0.29110  -0.24484
 Alpha  occ. eigenvalues --   -0.21133
 Alpha virt. eigenvalues --   -0.09145  -0.01460   0.00632   0.01274   0.02721
 Alpha virt. eigenvalues --    0.04671   0.05201   0.05706   0.05976   0.07266
 Alpha virt. eigenvalues --    0.07633   0.08564   0.08722   0.09114   0.09429

 Mulliken charges:
               1
     1  Mg   0.806338
     2  C    0.021318
     3  C   -0.059604
     4  C   -0.077217
     5  C   -0.073564
     6  N   -0.314516
     7  C   -0.061887
     8  C    0.007806
     9  C   -0.061731
    10  C    0.016999
    11  C    0.074180
    12  C    0.057623
    13  C    0.048400
    14  C    0.156251
    15  O   -0.253034
    16  O   -0.334402
    17  N   -0.345710
    18  C    0.149258
    19  C   -0.187750
    20  C   -0.042169
    21  C    0.178293
    22  C    0.153727
    23  C   -0.002360
    24  O   -0.229371
    25  C    0.048494
    26  N   -0.275101
    27  C    0.016583
    28  C   -0.061274
    29  C   -0.025469
    30  C    0.047929
    31  C    0.057454
    32  C    0.035963
    33  C    0.015252
    34  N   -0.375405
    35  C    0.084317
    36  C   -0.152707
    37  C    0.101064
    38  C    0.108558
    39  C    0.105813
    40  C   -0.042289
    41  O   -0.127157
    42  C   -0.016165
    43  C    0.192435
    44  O   -0.235214
    45  O   -0.340474
    46  C    0.168667
    47  C    0.259321
    48  C   -0.112365
    49  C   -0.220390
    50  C    0.086718
    51  C    0.086077
    52  C    0.047939
    53  C    0.034762
    54  C   -0.138082
    55  C    0.045757
    56  C    0.050371
    57  C    0.037257
    58  C    0.010352
    59  C   -0.078422
    60  C    0.054545
    61  C    0.057135
    62  C   -0.010269
    63  C    0.070037
    64  C   -0.165343
    65  C    0.064141
    66  C    0.015959
    67  H   -0.023346
    68  H   -0.020281
    69  H   -0.033586
    70  H    0.012000
    71  H    0.017616
    72  H    0.014979
    73  H    0.015562
    74  H    0.028000
    75  H    0.041634
    76  H    0.008088
    77  H    0.030971
    78  H    0.049988
    79  H    0.032638
    80  H   -0.003377
    81  H    0.049660
    82  H    0.054647
    83  H    0.021252
    84  H    0.027117
    85  H    0.015488
    86  H    0.002973
    87  H    0.024395
    88  H    0.028545
    89  H    0.018561
    90  H    0.018118
    91  H    0.002014
    92  H    0.023961
    93  H    0.002818
    94  H    0.015282
    95  H    0.028158
    96  H    0.025097
    97  H    0.023793
    98  H    0.052287
    99  H    0.033933
   100  H    0.044636
   101  H    0.060184
   102  H    0.039414
   103  H    0.025162
   104  H    0.009948
   105  H    0.036203
   106  H    0.018656
   107  H    0.018229
   108  H    0.011974
   109  H   -0.002642
   110  H   -0.003794
   111  H   -0.001220
   112  H   -0.000151
   113  H    0.006020
   114  H   -0.014140
   115  H    0.013856
   116  H    0.010792
   117  H   -0.004547
   118  H   -0.017809
   119  H    0.000020
   120  H    0.009022
   121  H   -0.003851
   122  H    0.004648
   123  H   -0.017011
   124  H   -0.012124
   125  H   -0.000495
   126  H   -0.006525
   127  H    0.008563
   128  H   -0.012928
   129  H   -0.015375
   130  H   -0.019887
   131  H   -0.018246
   132  H   -0.000894
   133  H   -0.014710
   134  H    0.011726
   135  H    0.002471
   136  H    0.001306
   137  H    0.009347
   138  H    0.008622
   139  H    0.017793
   140  H    0.005119
 Sum of Mulliken charges =  -0.00000

 Dipole moment (field-independent basis, Debye):
    X=             -0.5670    Y=              0.9749    Z=             -0.9423  Tot=              1.4696
 Quadrupole moment (field-independent basis, Debye-Ang):
   XX=           -381.4337   YY=           -401.6307   ZZ=           -413.2965
   XY=              9.5048   XZ=              5.6595   YZ=             58.4500

 Normal termination of Gaussian 16 at Thu Apr 28 15:25:58 2022.
