 Gaussian 16, Revision A.03,
 Gaussian 16:  ES64L-G16RevA.03 25-Dec-2016

 ---------------------------------
 #p PBE1PBE/Def2SVP td=(nstates=5)
 ---------------------------------

 -----------------------------------------------------
 step_1601_chromophore_8 TDDFT with PBE1PBE functional
 -----------------------------------------------------
 Symbolic Z-matrix:
 Charge =  0 Multiplicity = 1

                         Standard orientation:
 ---------------------------------------------------------------------
 Center     Atomic      Atomic             Coordinates (Angstroms)
 Number     Number       Type             X           Y           Z
 ---------------------------------------------------------------------
      1         12           0        4.560361    0.909025    0.155055
      2          6           0        3.929028   -2.457547    0.693687
      3          6           0        4.231302    0.358256   -3.271513
      4          6           0        4.443545    4.350033   -0.423204
      5          6           0        4.210220    1.524575    3.513947
      6          7           0        4.178617   -0.791788   -1.053946
      7          6           0        4.018197   -2.114210   -0.639212
      8          6           0        3.954093   -3.066228   -1.817486
      9          6           0        4.169822   -2.204280   -3.068934
     10          6           0        4.158141   -0.760648   -2.421942
     11          6           0        5.494153   -2.430237   -3.804418
     12          6           0        2.700086   -3.978298   -1.874656
     13          6           0        1.331151   -3.259990   -1.976118
     14          6           0        0.166066   -3.977843   -1.336169
     15          8           0        0.228619   -4.735374   -0.345302
     16          8           0       -0.962081   -3.833607   -2.078121
     17          7           0        4.380086    2.214831   -1.583603
     18          6           0        4.371815    1.741474   -2.878938
     19          6           0        4.172836    2.860920   -3.747380
     20          6           0        4.004449    4.015374   -2.932122
     21          6           0        4.240765    3.562403   -1.565042
     22          6           0        4.146366    2.749060   -5.221532
     23          6           0        3.712563    5.449311   -3.345616
     24          8           0        3.702488    5.799870   -4.535744
     25          6           0        3.351008    6.453356   -2.340561
     26          7           0        4.111133    2.638827    1.436388
     27          6           0        4.423349    3.926813    0.918716
     28          6           0        4.809587    4.914105    2.014649
     29          6           0        4.645636    4.025414    3.344830
     30          6           0        4.340236    2.605528    2.734528
     31          6           0        6.318504    5.443737    1.821279
     32          6           0        3.563738    4.507386    4.306627
     33          6           0        4.043044    5.353163    5.476843
     34          7           0        4.131915   -0.187765    1.846959
     35          6           0        4.096834    0.166013    3.189945
     36          6           0        4.159655   -1.078171    3.961602
     37          6           0        4.002929   -2.100696    3.049356
     38          6           0        4.032912   -1.538427    1.771118
     39          6           0        4.303414   -1.064135    5.462768
     40          6           0        3.828929   -3.471792    2.935662
     41          8           0        3.745508   -4.307923    3.781280
     42          6           0        3.843258   -3.784233    1.377365
     43          6           0        5.002393   -4.573367    1.210258
     44          8           0        6.148496   -4.192503    1.440360
     45          8           0        4.645637   -5.767771    0.638345
     46          6           0        5.717997   -6.735300    0.334953
     47          6           0       -2.234536   -4.448969   -1.638465
     48          6           0       -3.046619   -3.386734   -0.940799
     49          6           0       -4.374874   -3.381159   -0.617415
     50          6           0       -5.336463   -4.571272   -0.807359
     51          6           0       -4.967628   -2.079291   -0.079486
     52          6           0       -5.532279   -1.235208   -1.249984
     53          6           0       -4.720378    0.014152   -1.565104
     54          6           0       -5.520836    1.247920   -2.116720
     55          6           0       -4.547139    2.337094   -2.777407
     56          6           0       -6.460280    1.837632   -1.041304
     57          6           0       -7.990973    1.734910   -1.334660
     58          6           0       -8.646278    0.816089   -0.283851
     59          6           0       -9.725037    1.496687    0.578668
     60          6           0       -9.071631    2.093176    1.788112
     61          6           0      -10.874141    0.537236    1.086299
     62          6           0      -12.108326    0.528289    0.212567
     63          6           0      -13.372999   -0.175017    0.951490
     64          6           0      -14.322371    0.956425    1.398643
     65          6           0      -15.450842    1.189639    0.436584
     66          6           0      -14.916260    0.438002    2.785174
     67          1           0        4.238197    0.081676   -4.328201
     68          1           0        4.681187    5.415094   -0.455217
     69          1           0        4.379236    1.643253    4.585634
     70          1           0        4.790117   -3.716558   -1.562519
     71          1           0        3.309439   -2.260391   -3.735164
     72          1           0        5.244284   -2.712063   -4.827774
     73          1           0        6.092929   -3.213220   -3.338072
     74          1           0        6.169053   -1.577085   -3.870691
     75          1           0        2.739828   -4.644812   -1.013235
     76          1           0        2.882042   -4.536561   -2.792603
     77          1           0        1.090559   -3.051533   -3.018604
     78          1           0        1.370608   -2.317269   -1.429925
     79          1           0        3.112682    2.799378   -5.562239
     80          1           0        4.505161    1.755517   -5.491800
     81          1           0        4.779044    3.575658   -5.544396
     82          1           0        4.112147    7.190340   -2.086282
     83          1           0        2.893247    5.889645   -1.527179
     84          1           0        2.463786    6.989042   -2.680742
     85          1           0        4.154487    5.786408    2.003846
     86          1           0        5.548262    3.842765    3.928100
     87          1           0        6.250603    6.331327    1.191130
     88          1           0        6.957437    4.646373    1.442986
     89          1           0        6.621259    5.727674    2.828774
     90          1           0        3.017588    3.597345    4.556359
     91          1           0        2.985902    5.257801    3.767132
     92          1           0        3.770487    6.405630    5.394077
     93          1           0        5.119297    5.221939    5.588420
     94          1           0        3.601306    4.917853    6.372902
     95          1           0        5.124702   -0.452337    5.836879
     96          1           0        4.357458   -2.028939    5.968098
     97          1           0        3.354462   -0.696813    5.855275
     98          1           0        2.949129   -4.386806    1.217299
     99          1           0        5.726739   -6.753548   -0.754895
    100          1           0        5.331058   -7.676183    0.727099
    101          1           0        6.685059   -6.502012    0.781654
    102          1           0       -1.980086   -5.282254   -0.982248
    103          1           0       -2.703714   -4.959958   -2.478688
    104          1           0       -2.438111   -2.482908   -0.974559
    105          1           0       -5.652707   -4.736431   -1.836710
    106          1           0       -6.128194   -4.397190   -0.078201
    107          1           0       -4.780571   -5.473027   -0.550049
    108          1           0       -4.112330   -1.593540    0.389859
    109          1           0       -5.732210   -2.356757    0.646180
    110          1           0       -6.588593   -1.034754   -1.069941
    111          1           0       -5.516985   -1.888276   -2.122932
    112          1           0       -4.066743   -0.286850   -2.384683
    113          1           0       -4.134959    0.411270   -0.736846
    114          1           0       -6.128475    0.944743   -2.969049
    115          1           0       -4.633125    3.339238   -2.358108
    116          1           0       -4.650503    2.329564   -3.862985
    117          1           0       -3.539669    1.966994   -2.583363
    118          1           0       -6.325348    2.918024   -0.993413
    119          1           0       -6.103709    1.510661   -0.063844
    120          1           0       -8.317801    1.459862   -2.337008
    121          1           0       -8.360605    2.747330   -1.168873
    122          1           0       -7.969755    0.218420    0.327359
    123          1           0       -9.132066    0.046090   -0.883640
    124          1           0      -10.227324    2.256792   -0.019209
    125          1           0       -9.727493    2.786231    2.314399
    126          1           0       -8.222344    2.672149    1.424326
    127          1           0       -8.746098    1.404941    2.568492
    128          1           0      -11.193234    0.643482    2.122657
    129          1           0      -10.526479   -0.495321    1.055589
    130          1           0      -11.843741    0.143201   -0.772048
    131          1           0      -12.372763    1.537657   -0.101730
    132          1           0      -13.118099   -0.899376    1.725013
    133          1           0      -13.892767   -0.764878    0.197382
    134          1           0      -13.813509    1.911915    1.525592
    135          1           0      -15.432632    2.234728    0.127870
    136          1           0      -16.395741    1.001894    0.947471
    137          1           0      -15.480285    0.583633   -0.469057
    138          1           0      -14.173518   -0.105009    3.369433
    139          1           0      -15.819238   -0.172789    2.803310
    140          1           0      -15.141964    1.416606    3.208711
 ---------------------------------------------------------------------

 SCF Done:  E(RPBE1PBE) =  -3005.35646502     A.U. after   15 cycles

 Excitation energies and oscillator strengths:

 Excited State   1:      Singlet-A      1.8025 eV  687.85 nm  f=0.3630  <S**2>=0.000
     245 -> 248       -0.15216
     246 -> 247        0.69982
     246 <- 247       -0.12473
 This state for optimization and/or second-order correction.
 Total Energy, E(TD-HF/TD-DFT) =  -3005.29022485
 Copying the excited state density for this state as the 1-particle RhoCI density.

 Excited State   2:      Singlet-A      2.2288 eV  556.28 nm  f=0.1165  <S**2>=0.000
     245 -> 247        0.65309
     246 -> 248        0.24525

 Excited State   3:      Singlet-A      2.7648 eV  448.43 nm  f=0.0043  <S**2>=0.000
     243 -> 247        0.68790

 Excited State   4:      Singlet-A      2.8740 eV  431.39 nm  f=0.0015  <S**2>=0.000
     242 -> 247        0.68468

 Excited State   5:      Singlet-A      2.9050 eV  426.80 nm  f=0.0001  <S**2>=0.000
     240 -> 247        0.22630
     241 -> 247        0.64837
     241 -> 249       -0.11609

 The electronic state is 1-A.
 Alpha  occ. eigenvalues --  -46.92583 -19.25740 -19.25517 -19.19660 -19.19290
 Alpha  occ. eigenvalues --  -19.18841 -19.17910 -14.42354 -14.41252 -14.39104
 Alpha  occ. eigenvalues --  -14.38582 -10.36657 -10.35411 -10.31296 -10.31013
 Alpha  occ. eigenvalues --  -10.29440 -10.29084 -10.28948 -10.28914 -10.28865
 Alpha  occ. eigenvalues --  -10.27823 -10.27710 -10.27443 -10.27398 -10.26419
 Alpha  occ. eigenvalues --  -10.26301 -10.26290 -10.25978 -10.25787 -10.25607
 Alpha  occ. eigenvalues --  -10.25599 -10.25377 -10.25262 -10.25035 -10.24938
 Alpha  occ. eigenvalues --  -10.24810 -10.24687 -10.24489 -10.24233 -10.23897
 Alpha  occ. eigenvalues --  -10.23838 -10.23768 -10.23638 -10.23600 -10.23452
 Alpha  occ. eigenvalues --  -10.23308 -10.23297 -10.23207 -10.23085 -10.22989
 Alpha  occ. eigenvalues --  -10.22972 -10.22715 -10.22586 -10.22556 -10.22549
 Alpha  occ. eigenvalues --  -10.22508 -10.22357 -10.22087 -10.21996 -10.21915
 Alpha  occ. eigenvalues --  -10.21817 -10.21770 -10.21674 -10.21646 -10.21360
 Alpha  occ. eigenvalues --  -10.21242  -3.14628  -1.87439  -1.86999  -1.86855
 Alpha  occ. eigenvalues --   -1.10709  -1.10487  -1.06004  -1.02877  -1.02031
 Alpha  occ. eigenvalues --   -1.01265  -0.98767  -0.97835  -0.97719  -0.96841
 Alpha  occ. eigenvalues --   -0.87778  -0.84467  -0.84184  -0.83625  -0.83492
 Alpha  occ. eigenvalues --   -0.83067  -0.82380  -0.82196  -0.81428  -0.80914
 Alpha  occ. eigenvalues --   -0.80395  -0.80099  -0.79028  -0.78434  -0.77832
 Alpha  occ. eigenvalues --   -0.76758  -0.76530  -0.75747  -0.75384  -0.74980
 Alpha  occ. eigenvalues --   -0.73959  -0.72855  -0.71897  -0.71559  -0.70582
 Alpha  occ. eigenvalues --   -0.69899  -0.69511  -0.69309  -0.68634  -0.67970
 Alpha  occ. eigenvalues --   -0.67827  -0.67304  -0.66312  -0.65222  -0.63556
 Alpha  occ. eigenvalues --   -0.63128  -0.62395  -0.61222  -0.60746  -0.60104
 Alpha  occ. eigenvalues --   -0.59906  -0.59666  -0.59649  -0.58950  -0.57972
 Alpha  occ. eigenvalues --   -0.57463  -0.57334  -0.56968  -0.56553  -0.54860
 Alpha  occ. eigenvalues --   -0.54529  -0.54004  -0.53333  -0.52982  -0.52953
 Alpha  occ. eigenvalues --   -0.52218  -0.51860  -0.50819  -0.50271  -0.50129
 Alpha  occ. eigenvalues --   -0.49871  -0.49222  -0.48979  -0.48525  -0.48397
 Alpha  occ. eigenvalues --   -0.48017  -0.47648  -0.47551  -0.47422  -0.47234
 Alpha  occ. eigenvalues --   -0.46903  -0.46708  -0.46634  -0.46345  -0.46300
 Alpha  occ. eigenvalues --   -0.45856  -0.45645  -0.45489  -0.45451  -0.45003
 Alpha  occ. eigenvalues --   -0.44759  -0.44537  -0.44435  -0.44368  -0.44024
 Alpha  occ. eigenvalues --   -0.43976  -0.43881  -0.43717  -0.43586  -0.43352
 Alpha  occ. eigenvalues --   -0.43208  -0.43098  -0.42882  -0.42641  -0.42099
 Alpha  occ. eigenvalues --   -0.41781  -0.41670  -0.41512  -0.41416  -0.41275
 Alpha  occ. eigenvalues --   -0.41072  -0.41038  -0.40909  -0.40765  -0.40575
 Alpha  occ. eigenvalues --   -0.40271  -0.40196  -0.40131  -0.39822  -0.39536
 Alpha  occ. eigenvalues --   -0.39373  -0.39158  -0.39110  -0.38902  -0.38772
 Alpha  occ. eigenvalues --   -0.38468  -0.38206  -0.38153  -0.38047  -0.37833
 Alpha  occ. eigenvalues --   -0.37527  -0.37525  -0.37242  -0.37082  -0.36862
 Alpha  occ. eigenvalues --   -0.36710  -0.36421  -0.36023  -0.35914  -0.35773
 Alpha  occ. eigenvalues --   -0.35666  -0.35519  -0.35328  -0.35161  -0.35092
 Alpha  occ. eigenvalues --   -0.34453  -0.34317  -0.34197  -0.34102  -0.33693
 Alpha  occ. eigenvalues --   -0.33362  -0.33127  -0.32624  -0.32312  -0.32137
 Alpha  occ. eigenvalues --   -0.31926  -0.31899  -0.31726  -0.31282  -0.31036
 Alpha  occ. eigenvalues --   -0.30491  -0.30165  -0.29328  -0.29179  -0.28936
 Alpha  occ. eigenvalues --   -0.28698  -0.28603  -0.28156  -0.27152  -0.25649
 Alpha  occ. eigenvalues --   -0.25448  -0.25085  -0.24602  -0.24547  -0.21362
 Alpha  occ. eigenvalues --   -0.18802
 Alpha virt. eigenvalues --   -0.11553  -0.05028  -0.03509  -0.01981  -0.01291
 Alpha virt. eigenvalues --    0.00128   0.00784   0.01141   0.01473   0.03329
 Alpha virt. eigenvalues --    0.04159   0.04801   0.05056   0.05889   0.05953

 Mulliken charges:
               1
     1  Mg   0.946653
     2  C    0.006305
     3  C   -0.056014
     4  C   -0.079297
     5  C   -0.077565
     6  N   -0.422087
     7  C    0.009105
     8  C   -0.056522
     9  C   -0.143963
    10  C    0.054761
    11  C    0.020676
    12  C    0.000792
    13  C   -0.032462
    14  C    0.230427
    15  O   -0.286223
    16  O   -0.367175
    17  N   -0.457437
    18  C    0.183388
    19  C   -0.218057
    20  C   -0.090078
    21  C    0.209057
    22  C    0.091128
    23  C    0.058703
    24  O   -0.264741
    25  C   -0.032792
    26  N   -0.371079
    27  C    0.052289
    28  C   -0.140454
    29  C   -0.091093
    30  C    0.082128
    31  C   -0.002459
    32  C   -0.025377
    33  C   -0.055318
    34  N   -0.498091
    35  C    0.117250
    36  C   -0.164630
    37  C    0.036159
    38  C    0.172010
    39  C    0.056552
    40  C    0.057071
    41  O   -0.176549
    42  C   -0.135273
    43  C    0.293476
    44  O   -0.270442
    45  O   -0.374529
    46  C    0.114788
    47  C    0.222831
    48  C   -0.121239
    49  C   -0.266925
    50  C    0.024996
    51  C    0.020688
    52  C   -0.016845
    53  C   -0.026999
    54  C   -0.218275
    55  C   -0.013604
    56  C   -0.001399
    57  C   -0.023774
    58  C   -0.044150
    59  C   -0.171562
    60  C   -0.005373
    61  C    0.007507
    62  C   -0.072137
    63  C    0.015099
    64  C   -0.259760
    65  C    0.010412
    66  C   -0.046979
    67  H    0.007260
    68  H    0.014940
    69  H   -0.001058
    70  H    0.054129
    71  H    0.053872
    72  H    0.042342
    73  H    0.042819
    74  H    0.055119
    75  H    0.075293
    76  H    0.043018
    77  H    0.061705
    78  H    0.084645
    79  H    0.061275
    80  H    0.025352
    81  H    0.076818
    82  H    0.079974
    83  H    0.051263
    84  H    0.055609
    85  H    0.050784
    86  H    0.039295
    87  H    0.051506
    88  H    0.056554
    89  H    0.047869
    90  H    0.050449
    91  H    0.035900
    92  H    0.050679
    93  H    0.029881
    94  H    0.043371
    95  H    0.053967
    96  H    0.052944
    97  H    0.052047
    98  H    0.087633
    99  H    0.055441
   100  H    0.066281
   101  H    0.079971
   102  H    0.065214
   103  H    0.050917
   104  H    0.039544
   105  H    0.061985
   106  H    0.045000
   107  H    0.046118
   108  H    0.044267
   109  H    0.029744
   110  H    0.034484
   111  H    0.033346
   112  H    0.033782
   113  H    0.037312
   114  H    0.024521
   115  H    0.040121
   116  H    0.038024
   117  H    0.023464
   118  H    0.015204
   119  H    0.031107
   120  H    0.038860
   121  H    0.028661
   122  H    0.035167
   123  H    0.017000
   124  H    0.025260
   125  H    0.028474
   126  H    0.024008
   127  H    0.035857
   128  H    0.019388
   129  H    0.018464
   130  H    0.012601
   131  H    0.013835
   132  H    0.028955
   133  H    0.018828
   134  H    0.047330
   135  H    0.029803
   136  H    0.028617
   137  H    0.035231
   138  H    0.036282
   139  H    0.044467
   140  H    0.034288
 Sum of Mulliken charges =  -0.00000

 Dipole moment (field-independent basis, Debye):
    X=             -0.5003    Y=              1.0447    Z=             -0.9354  Tot=              1.4889
 Quadrupole moment (field-independent basis, Debye-Ang):
   XX=           -378.2105   YY=           -398.2561   ZZ=           -408.9060
   XY=              9.9045   XZ=              5.9664   YZ=             59.6036

 Normal termination of Gaussian 16 at Thu Apr 28 15:42:27 2022.
