 Gaussian 16, Revision A.03,
 Gaussian 16:  ES64L-G16RevA.03 25-Dec-2016

 --------------------------------
 #p wB97XD/Def2SVP td=(nstates=5)
 --------------------------------

 ----------------------------------------------------
 step_1601_chromophore_8 TDDFT with wB97XD functional
 ----------------------------------------------------
 Symbolic Z-matrix:
 Charge =  0 Multiplicity = 1

                         Standard orientation:
 ---------------------------------------------------------------------
 Center     Atomic      Atomic             Coordinates (Angstroms)
 Number     Number       Type             X           Y           Z
 ---------------------------------------------------------------------
      1         12           0        4.560361    0.909025    0.155055
      2          6           0        3.929028   -2.457547    0.693687
      3          6           0        4.231302    0.358256   -3.271513
      4          6           0        4.443545    4.350033   -0.423204
      5          6           0        4.210220    1.524575    3.513947
      6          7           0        4.178617   -0.791788   -1.053946
      7          6           0        4.018197   -2.114210   -0.639212
      8          6           0        3.954093   -3.066228   -1.817486
      9          6           0        4.169822   -2.204280   -3.068934
     10          6           0        4.158141   -0.760648   -2.421942
     11          6           0        5.494153   -2.430237   -3.804418
     12          6           0        2.700086   -3.978298   -1.874656
     13          6           0        1.331151   -3.259990   -1.976118
     14          6           0        0.166066   -3.977843   -1.336169
     15          8           0        0.228619   -4.735374   -0.345302
     16          8           0       -0.962081   -3.833607   -2.078121
     17          7           0        4.380086    2.214831   -1.583603
     18          6           0        4.371815    1.741474   -2.878938
     19          6           0        4.172836    2.860920   -3.747380
     20          6           0        4.004449    4.015374   -2.932122
     21          6           0        4.240765    3.562403   -1.565042
     22          6           0        4.146366    2.749060   -5.221532
     23          6           0        3.712563    5.449311   -3.345616
     24          8           0        3.702488    5.799870   -4.535744
     25          6           0        3.351008    6.453356   -2.340561
     26          7           0        4.111133    2.638827    1.436388
     27          6           0        4.423349    3.926813    0.918716
     28          6           0        4.809587    4.914105    2.014649
     29          6           0        4.645636    4.025414    3.344830
     30          6           0        4.340236    2.605528    2.734528
     31          6           0        6.318504    5.443737    1.821279
     32          6           0        3.563738    4.507386    4.306627
     33          6           0        4.043044    5.353163    5.476843
     34          7           0        4.131915   -0.187765    1.846959
     35          6           0        4.096834    0.166013    3.189945
     36          6           0        4.159655   -1.078171    3.961602
     37          6           0        4.002929   -2.100696    3.049356
     38          6           0        4.032912   -1.538427    1.771118
     39          6           0        4.303414   -1.064135    5.462768
     40          6           0        3.828929   -3.471792    2.935662
     41          8           0        3.745508   -4.307923    3.781280
     42          6           0        3.843258   -3.784233    1.377365
     43          6           0        5.002393   -4.573367    1.210258
     44          8           0        6.148496   -4.192503    1.440360
     45          8           0        4.645637   -5.767771    0.638345
     46          6           0        5.717997   -6.735300    0.334953
     47          6           0       -2.234536   -4.448969   -1.638465
     48          6           0       -3.046619   -3.386734   -0.940799
     49          6           0       -4.374874   -3.381159   -0.617415
     50          6           0       -5.336463   -4.571272   -0.807359
     51          6           0       -4.967628   -2.079291   -0.079486
     52          6           0       -5.532279   -1.235208   -1.249984
     53          6           0       -4.720378    0.014152   -1.565104
     54          6           0       -5.520836    1.247920   -2.116720
     55          6           0       -4.547139    2.337094   -2.777407
     56          6           0       -6.460280    1.837632   -1.041304
     57          6           0       -7.990973    1.734910   -1.334660
     58          6           0       -8.646278    0.816089   -0.283851
     59          6           0       -9.725037    1.496687    0.578668
     60          6           0       -9.071631    2.093176    1.788112
     61          6           0      -10.874141    0.537236    1.086299
     62          6           0      -12.108326    0.528289    0.212567
     63          6           0      -13.372999   -0.175017    0.951490
     64          6           0      -14.322371    0.956425    1.398643
     65          6           0      -15.450842    1.189639    0.436584
     66          6           0      -14.916260    0.438002    2.785174
     67          1           0        4.238197    0.081676   -4.328201
     68          1           0        4.681187    5.415094   -0.455217
     69          1           0        4.379236    1.643253    4.585634
     70          1           0        4.790117   -3.716558   -1.562519
     71          1           0        3.309439   -2.260391   -3.735164
     72          1           0        5.244284   -2.712063   -4.827774
     73          1           0        6.092929   -3.213220   -3.338072
     74          1           0        6.169053   -1.577085   -3.870691
     75          1           0        2.739828   -4.644812   -1.013235
     76          1           0        2.882042   -4.536561   -2.792603
     77          1           0        1.090559   -3.051533   -3.018604
     78          1           0        1.370608   -2.317269   -1.429925
     79          1           0        3.112682    2.799378   -5.562239
     80          1           0        4.505161    1.755517   -5.491800
     81          1           0        4.779044    3.575658   -5.544396
     82          1           0        4.112147    7.190340   -2.086282
     83          1           0        2.893247    5.889645   -1.527179
     84          1           0        2.463786    6.989042   -2.680742
     85          1           0        4.154487    5.786408    2.003846
     86          1           0        5.548262    3.842765    3.928100
     87          1           0        6.250603    6.331327    1.191130
     88          1           0        6.957437    4.646373    1.442986
     89          1           0        6.621259    5.727674    2.828774
     90          1           0        3.017588    3.597345    4.556359
     91          1           0        2.985902    5.257801    3.767132
     92          1           0        3.770487    6.405630    5.394077
     93          1           0        5.119297    5.221939    5.588420
     94          1           0        3.601306    4.917853    6.372902
     95          1           0        5.124702   -0.452337    5.836879
     96          1           0        4.357458   -2.028939    5.968098
     97          1           0        3.354462   -0.696813    5.855275
     98          1           0        2.949129   -4.386806    1.217299
     99          1           0        5.726739   -6.753548   -0.754895
    100          1           0        5.331058   -7.676183    0.727099
    101          1           0        6.685059   -6.502012    0.781654
    102          1           0       -1.980086   -5.282254   -0.982248
    103          1           0       -2.703714   -4.959958   -2.478688
    104          1           0       -2.438111   -2.482908   -0.974559
    105          1           0       -5.652707   -4.736431   -1.836710
    106          1           0       -6.128194   -4.397190   -0.078201
    107          1           0       -4.780571   -5.473027   -0.550049
    108          1           0       -4.112330   -1.593540    0.389859
    109          1           0       -5.732210   -2.356757    0.646180
    110          1           0       -6.588593   -1.034754   -1.069941
    111          1           0       -5.516985   -1.888276   -2.122932
    112          1           0       -4.066743   -0.286850   -2.384683
    113          1           0       -4.134959    0.411270   -0.736846
    114          1           0       -6.128475    0.944743   -2.969049
    115          1           0       -4.633125    3.339238   -2.358108
    116          1           0       -4.650503    2.329564   -3.862985
    117          1           0       -3.539669    1.966994   -2.583363
    118          1           0       -6.325348    2.918024   -0.993413
    119          1           0       -6.103709    1.510661   -0.063844
    120          1           0       -8.317801    1.459862   -2.337008
    121          1           0       -8.360605    2.747330   -1.168873
    122          1           0       -7.969755    0.218420    0.327359
    123          1           0       -9.132066    0.046090   -0.883640
    124          1           0      -10.227324    2.256792   -0.019209
    125          1           0       -9.727493    2.786231    2.314399
    126          1           0       -8.222344    2.672149    1.424326
    127          1           0       -8.746098    1.404941    2.568492
    128          1           0      -11.193234    0.643482    2.122657
    129          1           0      -10.526479   -0.495321    1.055589
    130          1           0      -11.843741    0.143201   -0.772048
    131          1           0      -12.372763    1.537657   -0.101730
    132          1           0      -13.118099   -0.899376    1.725013
    133          1           0      -13.892767   -0.764878    0.197382
    134          1           0      -13.813509    1.911915    1.525592
    135          1           0      -15.432632    2.234728    0.127870
    136          1           0      -16.395741    1.001894    0.947471
    137          1           0      -15.480285    0.583633   -0.469057
    138          1           0      -14.173518   -0.105009    3.369433
    139          1           0      -15.819238   -0.172789    2.803310
    140          1           0      -15.141964    1.416606    3.208711
 ---------------------------------------------------------------------

 SCF Done:  E(RwB97XD) =  -3007.86590938     A.U. after   17 cycles

 Excitation energies and oscillator strengths:

 Excited State   1:      Singlet-A      1.5746 eV  787.42 nm  f=0.3765  <S**2>=0.000
     245 -> 248       -0.16553
     246 -> 247        0.68883
     245 <- 248       -0.11451
 This state for optimization and/or second-order correction.
 Total Energy, E(TD-HF/TD-DFT) =  -3007.80804523
 Copying the excited state density for this state as the 1-particle RhoCI density.

 Excited State   2:      Singlet-A      2.1597 eV  574.09 nm  f=0.1193  <S**2>=0.000
     245 -> 247        0.64214
     246 -> 248        0.27522

 Excited State   3:      Singlet-A      3.1717 eV  390.91 nm  f=0.0018  <S**2>=0.000
     242 -> 247       -0.14226
     244 -> 247        0.66467

 Excited State   4:      Singlet-A      3.3835 eV  366.44 nm  f=0.0158  <S**2>=0.000
     240 -> 247        0.14509
     241 -> 247       -0.18407
     242 -> 247        0.57847
     246 -> 248       -0.27877

 Excited State   5:      Singlet-A      3.4566 eV  358.69 nm  f=0.0013  <S**2>=0.000
     241 -> 247        0.50747
     241 -> 248       -0.16273
     241 -> 249        0.30526
     241 -> 251        0.19156
     242 -> 247        0.12616
     242 -> 249        0.10272

 The electronic state is 1-A.
 Alpha  occ. eigenvalues --  -46.95557 -19.30272 -19.30111 -19.24298 -19.24041
 Alpha  occ. eigenvalues --  -19.23673 -19.22727 -14.47445 -14.46344 -14.44041
 Alpha  occ. eigenvalues --  -14.43493 -10.43429 -10.42292 -10.38118 -10.37883
 Alpha  occ. eigenvalues --  -10.35908 -10.35393 -10.35352 -10.35244 -10.35209
 Alpha  occ. eigenvalues --  -10.34092 -10.34068 -10.33734 -10.33711 -10.32621
 Alpha  occ. eigenvalues --  -10.32612 -10.32540 -10.32443 -10.32036 -10.31934
 Alpha  occ. eigenvalues --  -10.31801 -10.31794 -10.31673 -10.31483 -10.31269
 Alpha  occ. eigenvalues --  -10.31176 -10.31071 -10.30857 -10.30655 -10.30279
 Alpha  occ. eigenvalues --  -10.30222 -10.30159 -10.30034 -10.29906 -10.29900
 Alpha  occ. eigenvalues --  -10.29601 -10.29579 -10.29561 -10.29459 -10.29375
 Alpha  occ. eigenvalues --  -10.29271 -10.29109 -10.29104 -10.29050 -10.28918
 Alpha  occ. eigenvalues --  -10.28883 -10.28698 -10.28453 -10.28352 -10.28271
 Alpha  occ. eigenvalues --  -10.28189 -10.28181 -10.28077 -10.28023 -10.27783
 Alpha  occ. eigenvalues --  -10.27700  -3.21472  -1.95029  -1.94590  -1.94443
 Alpha  occ. eigenvalues --   -1.18072  -1.17932  -1.13481  -1.10368  -1.09449
 Alpha  occ. eigenvalues --   -1.08599  -1.06156  -1.05245  -1.05082  -1.04212
 Alpha  occ. eigenvalues --   -0.95399  -0.92121  -0.91833  -0.91297  -0.91097
 Alpha  occ. eigenvalues --   -0.90649  -0.90043  -0.89799  -0.89091  -0.88526
 Alpha  occ. eigenvalues --   -0.88024  -0.87745  -0.86660  -0.86081  -0.85492
 Alpha  occ. eigenvalues --   -0.84397  -0.84209  -0.83414  -0.82998  -0.82622
 Alpha  occ. eigenvalues --   -0.81633  -0.80497  -0.79497  -0.79195  -0.78214
 Alpha  occ. eigenvalues --   -0.77575  -0.77091  -0.76999  -0.76322  -0.75566
 Alpha  occ. eigenvalues --   -0.75473  -0.74882  -0.73867  -0.72812  -0.71068
 Alpha  occ. eigenvalues --   -0.70679  -0.70024  -0.68771  -0.68354  -0.67643
 Alpha  occ. eigenvalues --   -0.67447  -0.67281  -0.67098  -0.66386  -0.65649
 Alpha  occ. eigenvalues --   -0.64985  -0.64905  -0.64636  -0.64010  -0.62378
 Alpha  occ. eigenvalues --   -0.61960  -0.61411  -0.60778  -0.60506  -0.60344
 Alpha  occ. eigenvalues --   -0.59689  -0.59282  -0.58181  -0.57724  -0.57569
 Alpha  occ. eigenvalues --   -0.57245  -0.56628  -0.56402  -0.55970  -0.55750
 Alpha  occ. eigenvalues --   -0.55393  -0.54938  -0.54926  -0.54845  -0.54595
 Alpha  occ. eigenvalues --   -0.54353  -0.54118  -0.54039  -0.53744  -0.53675
 Alpha  occ. eigenvalues --   -0.53215  -0.52996  -0.52836  -0.52821  -0.52350
 Alpha  occ. eigenvalues --   -0.52138  -0.51860  -0.51783  -0.51727  -0.51302
 Alpha  occ. eigenvalues --   -0.51282  -0.51174  -0.51069  -0.50925  -0.50688
 Alpha  occ. eigenvalues --   -0.50498  -0.50383  -0.50125  -0.49886  -0.49329
 Alpha  occ. eigenvalues --   -0.48999  -0.48918  -0.48765  -0.48662  -0.48511
 Alpha  occ. eigenvalues --   -0.48300  -0.48244  -0.48124  -0.48026  -0.47793
 Alpha  occ. eigenvalues --   -0.47521  -0.47433  -0.47352  -0.47046  -0.46706
 Alpha  occ. eigenvalues --   -0.46518  -0.46327  -0.46289  -0.46093  -0.45901
 Alpha  occ. eigenvalues --   -0.45624  -0.45367  -0.45255  -0.45180  -0.44957
 Alpha  occ. eigenvalues --   -0.44671  -0.44630  -0.44396  -0.44205  -0.43937
 Alpha  occ. eigenvalues --   -0.43844  -0.43540  -0.43115  -0.42909  -0.42875
 Alpha  occ. eigenvalues --   -0.42745  -0.42620  -0.42451  -0.42200  -0.42110
 Alpha  occ. eigenvalues --   -0.41469  -0.41346  -0.41204  -0.41137  -0.40749
 Alpha  occ. eigenvalues --   -0.40407  -0.40060  -0.39685  -0.39276  -0.39188
 Alpha  occ. eigenvalues --   -0.38960  -0.38895  -0.38588  -0.38300  -0.38135
 Alpha  occ. eigenvalues --   -0.37469  -0.37118  -0.36176  -0.36140  -0.36084
 Alpha  occ. eigenvalues --   -0.35799  -0.35226  -0.34986  -0.33749  -0.32590
 Alpha  occ. eigenvalues --   -0.32186  -0.32137  -0.31287  -0.31276  -0.26395
 Alpha  occ. eigenvalues --   -0.22928
 Alpha virt. eigenvalues --   -0.07499   0.00468   0.02777   0.04238   0.04975
 Alpha virt. eigenvalues --    0.06916   0.07487   0.07887   0.08291   0.10165
 Alpha virt. eigenvalues --    0.10439   0.11596   0.11797   0.12623   0.12702

 Mulliken charges:
               1
     1  Mg   0.939257
     2  C    0.004539
     3  C   -0.071320
     4  C   -0.088717
     5  C   -0.089627
     6  N   -0.387666
     7  C   -0.023866
     8  C   -0.031795
     9  C   -0.117137
    10  C    0.041706
    11  C    0.028368
    12  C    0.020136
    13  C   -0.015758
    14  C    0.217313
    15  O   -0.283097
    16  O   -0.365635
    17  N   -0.424422
    18  C    0.169398
    19  C   -0.204896
    20  C   -0.085120
    21  C    0.201686
    22  C    0.103852
    23  C    0.048204
    24  O   -0.259064
    25  C   -0.017998
    26  N   -0.341690
    27  C    0.039778
    28  C   -0.114913
    29  C   -0.069357
    30  C    0.073603
    31  C    0.010325
    32  C   -0.009174
    33  C   -0.040023
    34  N   -0.461890
    35  C    0.102653
    36  C   -0.161618
    37  C    0.045302
    38  C    0.149292
    39  C    0.062315
    40  C    0.041134
    41  O   -0.166586
    42  C   -0.092042
    43  C    0.264402
    44  O   -0.265140
    45  O   -0.371810
    46  C    0.130099
    47  C    0.235044
    48  C   -0.131966
    49  C   -0.249608
    50  C    0.037447
    51  C    0.039982
    52  C    0.002010
    53  C   -0.007309
    54  C   -0.192509
    55  C   -0.000593
    56  C    0.012193
    57  C   -0.008520
    58  C   -0.029468
    59  C   -0.136690
    60  C    0.007020
    61  C    0.018755
    62  C   -0.051459
    63  C    0.028187
    64  C   -0.229175
    65  C    0.017308
    66  C   -0.032330
    67  H    0.001299
    68  H    0.002969
    69  H   -0.007547
    70  H    0.039667
    71  H    0.043350
    72  H    0.037305
    73  H    0.037697
    74  H    0.048787
    75  H    0.061260
    76  H    0.034853
    77  H    0.057148
    78  H    0.075616
    79  H    0.057254
    80  H    0.018805
    81  H    0.072532
    82  H    0.078365
    83  H    0.042918
    84  H    0.053339
    85  H    0.041479
    86  H    0.026662
    87  H    0.046001
    88  H    0.050328
    89  H    0.040597
    90  H    0.041747
    91  H    0.026463
    92  H    0.045898
    93  H    0.022518
    94  H    0.037736
    95  H    0.049698
    96  H    0.050391
    97  H    0.046508
    98  H    0.083568
    99  H    0.051438
   100  H    0.062603
   101  H    0.076826
   102  H    0.060667
   103  H    0.047467
   104  H    0.034177
   105  H    0.057312
   106  H    0.039770
   107  H    0.040409
   108  H    0.035456
   109  H    0.022839
   110  H    0.019592
   111  H    0.023225
   112  H    0.024275
   113  H    0.027326
   114  H    0.011904
   115  H    0.034668
   116  H    0.032966
   117  H    0.016493
   118  H    0.006259
   119  H    0.020533
   120  H    0.033332
   121  H    0.019254
   122  H    0.023079
   123  H    0.007324
   124  H    0.012504
   125  H    0.022619
   126  H    0.014993
   127  H    0.030094
   128  H    0.009555
   129  H    0.008669
   130  H    0.004563
   131  H    0.001819
   132  H    0.020962
   133  H    0.009982
   134  H    0.036209
   135  H    0.024776
   136  H    0.022224
   137  H    0.029671
   138  H    0.029192
   139  H    0.038732
   140  H    0.027711
 Sum of Mulliken charges =  -0.00000

 Dipole moment (field-independent basis, Debye):
    X=             -0.4897    Y=              1.0243    Z=             -0.9762  Tot=              1.4973
 Quadrupole moment (field-independent basis, Debye-Ang):
   XX=           -377.4352   YY=           -397.2081   ZZ=           -408.8218
   XY=              9.6871   XZ=              5.7185   YZ=             59.1967

 Normal termination of Gaussian 16 at Thu Apr 28 16:11:42 2022.
