 Gaussian 16, Revision A.03,
 Gaussian 16:  ES64L-G16RevA.03 25-Dec-2016

 --------------------
 #p ZINDO=(nstates=5)
 --------------------

 -----------------------------
 step_1601_chromophore_8 ZINDO
 -----------------------------
 Symbolic Z-matrix:
 Charge =  0 Multiplicity = 1

                         Standard orientation:
 ---------------------------------------------------------------------
 Center     Atomic      Atomic             Coordinates (Angstroms)
 Number     Number       Type             X           Y           Z
 ---------------------------------------------------------------------
      1         12           0        4.560361    0.909025    0.155055
      2          6           0        3.929028   -2.457547    0.693687
      3          6           0        4.231302    0.358256   -3.271513
      4          6           0        4.443545    4.350033   -0.423204
      5          6           0        4.210220    1.524575    3.513947
      6          7           0        4.178617   -0.791788   -1.053946
      7          6           0        4.018197   -2.114210   -0.639212
      8          6           0        3.954093   -3.066228   -1.817486
      9          6           0        4.169822   -2.204280   -3.068934
     10          6           0        4.158141   -0.760648   -2.421942
     11          6           0        5.494153   -2.430237   -3.804418
     12          6           0        2.700086   -3.978298   -1.874656
     13          6           0        1.331151   -3.259990   -1.976118
     14          6           0        0.166066   -3.977843   -1.336169
     15          8           0        0.228619   -4.735374   -0.345302
     16          8           0       -0.962081   -3.833607   -2.078121
     17          7           0        4.380086    2.214831   -1.583603
     18          6           0        4.371815    1.741474   -2.878938
     19          6           0        4.172836    2.860920   -3.747380
     20          6           0        4.004449    4.015374   -2.932122
     21          6           0        4.240765    3.562403   -1.565042
     22          6           0        4.146366    2.749060   -5.221532
     23          6           0        3.712563    5.449311   -3.345616
     24          8           0        3.702488    5.799870   -4.535744
     25          6           0        3.351008    6.453356   -2.340561
     26          7           0        4.111133    2.638827    1.436388
     27          6           0        4.423349    3.926813    0.918716
     28          6           0        4.809587    4.914105    2.014649
     29          6           0        4.645636    4.025414    3.344830
     30          6           0        4.340236    2.605528    2.734528
     31          6           0        6.318504    5.443737    1.821279
     32          6           0        3.563738    4.507386    4.306627
     33          6           0        4.043044    5.353163    5.476843
     34          7           0        4.131915   -0.187765    1.846959
     35          6           0        4.096834    0.166013    3.189945
     36          6           0        4.159655   -1.078171    3.961602
     37          6           0        4.002929   -2.100696    3.049356
     38          6           0        4.032912   -1.538427    1.771118
     39          6           0        4.303414   -1.064135    5.462768
     40          6           0        3.828929   -3.471792    2.935662
     41          8           0        3.745508   -4.307923    3.781280
     42          6           0        3.843258   -3.784233    1.377365
     43          6           0        5.002393   -4.573367    1.210258
     44          8           0        6.148496   -4.192503    1.440360
     45          8           0        4.645637   -5.767771    0.638345
     46          6           0        5.717997   -6.735300    0.334953
     47          6           0       -2.234536   -4.448969   -1.638465
     48          6           0       -3.046619   -3.386734   -0.940799
     49          6           0       -4.374874   -3.381159   -0.617415
     50          6           0       -5.336463   -4.571272   -0.807359
     51          6           0       -4.967628   -2.079291   -0.079486
     52          6           0       -5.532279   -1.235208   -1.249984
     53          6           0       -4.720378    0.014152   -1.565104
     54          6           0       -5.520836    1.247920   -2.116720
     55          6           0       -4.547139    2.337094   -2.777407
     56          6           0       -6.460280    1.837632   -1.041304
     57          6           0       -7.990973    1.734910   -1.334660
     58          6           0       -8.646278    0.816089   -0.283851
     59          6           0       -9.725037    1.496687    0.578668
     60          6           0       -9.071631    2.093176    1.788112
     61          6           0      -10.874141    0.537236    1.086299
     62          6           0      -12.108326    0.528289    0.212567
     63          6           0      -13.372999   -0.175017    0.951490
     64          6           0      -14.322371    0.956425    1.398643
     65          6           0      -15.450842    1.189639    0.436584
     66          6           0      -14.916260    0.438002    2.785174
     67          1           0        4.238197    0.081676   -4.328201
     68          1           0        4.681187    5.415094   -0.455217
     69          1           0        4.379236    1.643253    4.585634
     70          1           0        4.790117   -3.716558   -1.562519
     71          1           0        3.309439   -2.260391   -3.735164
     72          1           0        5.244284   -2.712063   -4.827774
     73          1           0        6.092929   -3.213220   -3.338072
     74          1           0        6.169053   -1.577085   -3.870691
     75          1           0        2.739828   -4.644812   -1.013235
     76          1           0        2.882042   -4.536561   -2.792603
     77          1           0        1.090559   -3.051533   -3.018604
     78          1           0        1.370608   -2.317269   -1.429925
     79          1           0        3.112682    2.799378   -5.562239
     80          1           0        4.505161    1.755517   -5.491800
     81          1           0        4.779044    3.575658   -5.544396
     82          1           0        4.112147    7.190340   -2.086282
     83          1           0        2.893247    5.889645   -1.527179
     84          1           0        2.463786    6.989042   -2.680742
     85          1           0        4.154487    5.786408    2.003846
     86          1           0        5.548262    3.842765    3.928100
     87          1           0        6.250603    6.331327    1.191130
     88          1           0        6.957437    4.646373    1.442986
     89          1           0        6.621259    5.727674    2.828774
     90          1           0        3.017588    3.597345    4.556359
     91          1           0        2.985902    5.257801    3.767132
     92          1           0        3.770487    6.405630    5.394077
     93          1           0        5.119297    5.221939    5.588420
     94          1           0        3.601306    4.917853    6.372902
     95          1           0        5.124702   -0.452337    5.836879
     96          1           0        4.357458   -2.028939    5.968098
     97          1           0        3.354462   -0.696813    5.855275
     98          1           0        2.949129   -4.386806    1.217299
     99          1           0        5.726739   -6.753548   -0.754895
    100          1           0        5.331058   -7.676183    0.727099
    101          1           0        6.685059   -6.502012    0.781654
    102          1           0       -1.980086   -5.282254   -0.982248
    103          1           0       -2.703714   -4.959958   -2.478688
    104          1           0       -2.438111   -2.482908   -0.974559
    105          1           0       -5.652707   -4.736431   -1.836710
    106          1           0       -6.128194   -4.397190   -0.078201
    107          1           0       -4.780571   -5.473027   -0.550049
    108          1           0       -4.112330   -1.593540    0.389859
    109          1           0       -5.732210   -2.356757    0.646180
    110          1           0       -6.588593   -1.034754   -1.069941
    111          1           0       -5.516985   -1.888276   -2.122932
    112          1           0       -4.066743   -0.286850   -2.384683
    113          1           0       -4.134959    0.411270   -0.736846
    114          1           0       -6.128475    0.944743   -2.969049
    115          1           0       -4.633125    3.339238   -2.358108
    116          1           0       -4.650503    2.329564   -3.862985
    117          1           0       -3.539669    1.966994   -2.583363
    118          1           0       -6.325348    2.918024   -0.993413
    119          1           0       -6.103709    1.510661   -0.063844
    120          1           0       -8.317801    1.459862   -2.337008
    121          1           0       -8.360605    2.747330   -1.168873
    122          1           0       -7.969755    0.218420    0.327359
    123          1           0       -9.132066    0.046090   -0.883640
    124          1           0      -10.227324    2.256792   -0.019209
    125          1           0       -9.727493    2.786231    2.314399
    126          1           0       -8.222344    2.672149    1.424326
    127          1           0       -8.746098    1.404941    2.568492
    128          1           0      -11.193234    0.643482    2.122657
    129          1           0      -10.526479   -0.495321    1.055589
    130          1           0      -11.843741    0.143201   -0.772048
    131          1           0      -12.372763    1.537657   -0.101730
    132          1           0      -13.118099   -0.899376    1.725013
    133          1           0      -13.892767   -0.764878    0.197382
    134          1           0      -13.813509    1.911915    1.525592
    135          1           0      -15.432632    2.234728    0.127870
    136          1           0      -16.395741    1.001894    0.947471
    137          1           0      -15.480285    0.583633   -0.469057
    138          1           0      -14.173518   -0.105009    3.369433
    139          1           0      -15.819238   -0.172789    2.803310
    140          1           0      -15.141964    1.416606    3.208711
 ---------------------------------------------------------------------

 SCF Done:  E(RZINDO/S) =  -474.475183740     A.U. after   19 cycles

 Excitation energies and oscillator strengths:

 Excited State   1:      Singlet-A      1.2023 eV 1031.19 nm  f=0.6102  <S**2>=0.000
     175 ->178        -0.18315
     176 ->177         0.66506
 This state for optimization and/or second-order correction.
 Total Energy, E(CIS/TDA) =  -474.430998506
 Copying the excited state density for this state as the 1-particle RhoCI density.

 Excited State   2:      Singlet-A      1.9093 eV  649.35 nm  f=0.0545  <S**2>=0.000
     175 ->177         0.55721
     176 ->178         0.40971

 Excited State   3:      Singlet-A      2.8820 eV  430.21 nm  f=0.0174  <S**2>=0.000
     168 ->177         0.18948
     168 ->179        -0.20279
     168 ->182         0.11513
     169 ->177        -0.11320
     169 ->179         0.12064
     170 ->177         0.32361
     170 ->178         0.10054
     170 ->179        -0.30694
     170 ->182         0.17382
     170 ->186        -0.12205
     170 ->187        -0.11982

 Excited State   4:      Singlet-A      2.9502 eV  420.26 nm  f=0.0435  <S**2>=0.000
     169 ->179        -0.11205
     169 ->182        -0.14280
     176 ->178         0.12390
     176 ->179         0.22310
     176 ->180         0.55752

 Excited State   5:      Singlet-A      2.9845 eV  415.43 nm  f=0.0604  <S**2>=0.000
     168 ->177         0.11153
     168 ->179         0.15590
     168 ->182         0.16576
     168 ->186         0.12187
     169 ->177         0.17250
     169 ->178         0.11848
     169 ->179         0.21970
     169 ->182         0.24863
     169 ->186         0.17377
     176 ->178        -0.12173
     176 ->180         0.34064
     176 ->182        -0.13649

 The electronic state is 1-A.
 Alpha  occ. eigenvalues --   -1.86464  -1.80175  -1.80095  -1.73783  -1.72614
 Alpha  occ. eigenvalues --   -1.70770  -1.65042  -1.60880  -1.60414  -1.57950
 Alpha  occ. eigenvalues --   -1.55764  -1.51016  -1.50258  -1.48902  -1.47659
 Alpha  occ. eigenvalues --   -1.44321  -1.42718  -1.41701  -1.39180  -1.37922
 Alpha  occ. eigenvalues --   -1.35982  -1.33362  -1.32117  -1.30872  -1.28182
 Alpha  occ. eigenvalues --   -1.28054  -1.27550  -1.23657  -1.21651  -1.19003
 Alpha  occ. eigenvalues --   -1.18388  -1.15328  -1.15154  -1.13902  -1.13592
 Alpha  occ. eigenvalues --   -1.13439  -1.09993  -1.08955  -1.05008  -1.04088
 Alpha  occ. eigenvalues --   -1.03328  -1.01714  -0.99873  -0.97426  -0.96777
 Alpha  occ. eigenvalues --   -0.94854  -0.94121  -0.93207  -0.92242  -0.91486
 Alpha  occ. eigenvalues --   -0.91049  -0.90551  -0.90098  -0.89224  -0.88813
 Alpha  occ. eigenvalues --   -0.85480  -0.84073  -0.83656  -0.81355  -0.80493
 Alpha  occ. eigenvalues --   -0.78917  -0.78389  -0.77700  -0.77083  -0.76499
 Alpha  occ. eigenvalues --   -0.75824  -0.75693  -0.75122  -0.73836  -0.73575
 Alpha  occ. eigenvalues --   -0.73372  -0.72603  -0.71581  -0.71205  -0.70336
 Alpha  occ. eigenvalues --   -0.70305  -0.69180  -0.68426  -0.68158  -0.67815
 Alpha  occ. eigenvalues --   -0.67545  -0.66994  -0.66148  -0.65800  -0.65769
 Alpha  occ. eigenvalues --   -0.65429  -0.65031  -0.64528  -0.64442  -0.63878
 Alpha  occ. eigenvalues --   -0.63430  -0.63185  -0.62745  -0.62546  -0.62296
 Alpha  occ. eigenvalues --   -0.61785  -0.61111  -0.60399  -0.60208  -0.60021
 Alpha  occ. eigenvalues --   -0.59881  -0.59689  -0.58822  -0.58757  -0.58432
 Alpha  occ. eigenvalues --   -0.57938  -0.57394  -0.57278  -0.57124  -0.56181
 Alpha  occ. eigenvalues --   -0.55970  -0.55830  -0.55508  -0.55242  -0.54689
 Alpha  occ. eigenvalues --   -0.54121  -0.54036  -0.53478  -0.53165  -0.52860
 Alpha  occ. eigenvalues --   -0.52289  -0.52163  -0.52032  -0.51612  -0.51556
 Alpha  occ. eigenvalues --   -0.51290  -0.51088  -0.51067  -0.50539  -0.50387
 Alpha  occ. eigenvalues --   -0.49891  -0.49733  -0.49410  -0.49188  -0.49010
 Alpha  occ. eigenvalues --   -0.48570  -0.48238  -0.48147  -0.48058  -0.47690
 Alpha  occ. eigenvalues --   -0.47492  -0.47317  -0.47109  -0.47032  -0.46529
 Alpha  occ. eigenvalues --   -0.46375  -0.45983  -0.45655  -0.45440  -0.45184
 Alpha  occ. eigenvalues --   -0.45134  -0.44768  -0.44581  -0.44092  -0.43903
 Alpha  occ. eigenvalues --   -0.43244  -0.43140  -0.42714  -0.41931  -0.41604
 Alpha  occ. eigenvalues --   -0.41332  -0.41136  -0.41026  -0.38861  -0.38565
 Alpha  occ. eigenvalues --   -0.38067  -0.37204  -0.34824  -0.34689  -0.34220
 Alpha  occ. eigenvalues --   -0.33135  -0.32649  -0.31997  -0.31615  -0.26863
 Alpha  occ. eigenvalues --   -0.21681
 Alpha virt. eigenvalues --   -0.08791  -0.01845  -0.00234   0.00765   0.01491
 Alpha virt. eigenvalues --    0.01833   0.02957   0.03143   0.04334   0.05081
 Alpha virt. eigenvalues --    0.06613   0.07635   0.07977   0.08390   0.08436

 Mulliken charges:
               1
     1  Mg   0.434835
     2  C   -0.036483
     3  C   -0.077110
     4  C   -0.073569
     5  C   -0.060082
     6  N   -0.285436
     7  C    0.130998
     8  C    0.004781
     9  C    0.003702
    10  C    0.106374
    11  C   -0.045969
    12  C   -0.021554
    13  C    0.012006
    14  C    0.470998
    15  O   -0.537105
    16  O   -0.275520
    17  N   -0.322907
    18  C    0.080357
    19  C    0.040211
    20  C   -0.070976
    21  C    0.126486
    22  C   -0.040206
    23  C    0.329683
    24  O   -0.541645
    25  C   -0.031409
    26  N   -0.277944
    27  C    0.105766
    28  C   -0.006993
    29  C   -0.008948
    30  C    0.154774
    31  C   -0.054483
    32  C   -0.032762
    33  C   -0.056788
    34  N   -0.335742
    35  C    0.097669
    36  C    0.054454
    37  C   -0.028525
    38  C    0.122731
    39  C   -0.038859
    40  C    0.343667
    41  O   -0.510918
    42  C    0.058849
    43  C    0.506686
    44  O   -0.545856
    45  O   -0.277562
    46  C    0.072238
    47  C    0.103822
    48  C   -0.098983
    49  C   -0.005139
    50  C   -0.044719
    51  C   -0.023058
    52  C   -0.025218
    53  C   -0.027022
    54  C   -0.020742
    55  C   -0.066213
    56  C   -0.034829
    57  C   -0.032570
    58  C   -0.032205
    59  C   -0.003964
    60  C   -0.050451
    61  C   -0.038103
    62  C   -0.045531
    63  C   -0.038564
    64  C   -0.005750
    65  C   -0.052550
    66  C   -0.069568
    67  H    0.032339
    68  H    0.033342
    69  H    0.012029
    70  H    0.034499
    71  H    0.031457
    72  H    0.015400
    73  H    0.021984
    74  H    0.028034
    75  H    0.040169
    76  H    0.019642
    77  H    0.038412
    78  H    0.049022
    79  H    0.039246
    80  H    0.019781
    81  H    0.048061
    82  H    0.054968
    83  H    0.023386
    84  H    0.032279
    85  H    0.035711
    86  H    0.032160
    87  H    0.026170
    88  H    0.035151
    89  H    0.017745
    90  H    0.033753
    91  H    0.019949
    92  H    0.026755
    93  H    0.018363
    94  H    0.016254
    95  H    0.032358
    96  H    0.031523
    97  H    0.027130
    98  H    0.059374
    99  H    0.034481
   100  H    0.037171
   101  H    0.059964
   102  H    0.052751
   103  H    0.040733
   104  H    0.032613
   105  H    0.037824
   106  H    0.028672
   107  H    0.023294
   108  H    0.027640
   109  H    0.024052
   110  H    0.020523
   111  H    0.018996
   112  H    0.014065
   113  H    0.026907
   114  H    0.015943
   115  H    0.027347
   116  H    0.020728
   117  H    0.013256
   118  H    0.007076
   119  H    0.025930
   120  H    0.031437
   121  H    0.014122
   122  H    0.025676
   123  H    0.000192
   124  H    0.024952
   125  H    0.008273
   126  H    0.009320
   127  H    0.022723
   128  H    0.021800
   129  H    0.009709
   130  H    0.013847
   131  H    0.013422
   132  H    0.030058
   133  H    0.012241
   134  H    0.031209
   135  H    0.011927
   136  H    0.015380
   137  H    0.020781
   138  H    0.016939
   139  H    0.028139
   140  H    0.010884
 Sum of Mulliken charges =  -0.00000

 Dipole moment (field-independent basis, Debye):
    X=             -0.5756    Y=              1.5819    Z=             -0.0248  Tot=              1.6835
 N-N= 4.419183578866D+03 E-N= 0.000000000000D+00  KE=-9.512915998706D+03
 Leave Link  601 at Thu Apr 28 16:26:18 2022, MaxMem=  6710886400 cpu:               0.8 elap:               0.0
 (Enter /sw/apps/gaussian-16.0/g16/l9999.exe)
 1\1\GINC-BP1-COMPUTE137\SP\RZINDO CIS\STO-3G\C55H74Mg1N4O6\OF15641\28-
 Apr-2022\0\\#p ZINDO=(nstates=5)\\step_1601_chromophore_8 ZINDO\\0,1\M
 g,0,44.058,3.503,47.952\C,0,42.077,6.268,47.279\C,0,41.235,1.482,47.63
 7\C,0,46.066,0.648,47.878\C,0,46.881,5.422,47.589\N,0,42.004,3.858,47.
 558\C,0,41.37,5.088,47.38\C,0,39.863,4.936,47.312\C,0,39.578,3.446,47.
 545\C,0,41.053,2.874,47.546\C,0,38.891,3.106,48.871\C,0,39.186,5.529,4
 6.048\C,0,39.624,4.93,44.688\C,0,39.579,5.876,43.511\O,0,39.751,7.112,

 Normal termination of Gaussian 16 at Thu Apr 28 16:26:18 2022.
