 Gaussian 16, Revision A.03,
 Gaussian 16:  ES64L-G16RevA.03 25-Dec-2016

 ------------------------------
 #p blyp/Def2SVP td=(nstates=5)
 ------------------------------

 ---------------------------------------------------
 step_1351_chromophore_12 TDDFT with blyp functional
 ---------------------------------------------------
 Symbolic Z-matrix:
 Charge =  0 Multiplicity = 1

                         Standard orientation:
 ---------------------------------------------------------------------
 Center     Atomic      Atomic             Coordinates (Angstroms)
 Number     Number       Type             X           Y           Z
 ---------------------------------------------------------------------
      1         12           0       -4.055223    0.325470   -0.302710
      2          6           0       -3.023612   -2.825480    0.500327
      3          6           0       -0.592244    1.296125   -0.305415
      4          6           0       -5.047462    3.520382   -0.966118
      5          6           0       -7.334277   -0.487772    0.412775
      6          7           0       -2.060314   -0.620360    0.250689
      7          6           0       -1.867956   -1.956467    0.403816
      8          6           0       -0.388035   -2.352961    0.342712
      9          6           0        0.267750   -0.988108    0.607032
     10          6           0       -0.857736   -0.016435    0.235819
     11          6           0        0.814842   -0.763910    2.088431
     12          6           0       -0.032163   -3.042145   -1.001746
     13          6           0        1.089897   -4.138211   -0.885492
     14          6           0        2.203135   -4.216634   -1.916520
     15          8           0        2.083631   -3.927658   -3.096613
     16          8           0        3.374084   -4.524012   -1.200642
     17          7           0       -2.941207    2.141914   -0.742959
     18          6           0       -1.556462    2.277901   -0.729508
     19          6           0       -1.320721    3.625647   -1.295355
     20          6           0       -2.559696    4.357605   -1.488540
     21          6           0       -3.622858    3.358336   -1.064957
     22          6           0        0.156896    4.231836   -1.407498
     23          6           0       -2.712126    5.792704   -1.933627
     24          8           0       -3.773313    6.300115   -2.102414
     25          6           0       -1.515123    6.656935   -2.224451
     26          7           0       -5.860416    1.417113   -0.144282
     27          6           0       -6.063669    2.626995   -0.555508
     28          6           0       -7.518603    2.993812   -0.697056
     29          6           0       -8.272013    1.725151   -0.186788
     30          6           0       -7.049084    0.785029    0.055551
     31          6           0       -7.929115    4.354479   -0.003135
     32          6           0       -9.373221    1.246072   -1.187315
     33          6           0       -8.943790    0.446097   -2.452903
     34          7           0       -5.060251   -1.345391    0.308965
     35          6           0       -6.380219   -1.521354    0.611301
     36          6           0       -6.569401   -2.932029    0.832380
     37          6           0       -5.214756   -3.507579    0.838103
     38          6           0       -4.385646   -2.474052    0.511455
     39          6           0       -7.889592   -3.548236    1.197281
     40          6           0       -4.457276   -4.736809    0.919338
     41          8           0       -4.845804   -5.894606    1.142805
     42          6           0       -2.967970   -4.310117    0.693686
     43          6           0       -2.194150   -4.743400    1.849383
     44          8           0       -2.181257   -4.290331    2.965281
     45          8           0       -1.272449   -5.660272    1.399986
     46          6           0       -0.116501   -5.727858    2.286464
     47          6           0        4.595100   -4.695261   -2.059632
     48          6           0        5.930284   -4.296719   -1.389713
     49          6           0        6.862050   -3.407149   -1.751691
     50          6           0        6.864908   -2.647618   -3.081877
     51          6           0        8.012862   -3.159039   -0.725439
     52          6           0        8.146633   -1.813594   -0.152016
     53          6           0        9.516056   -1.277938    0.155435
     54          6           0        9.996539   -0.150590   -0.834698
     55          6           0       11.147563   -0.670387   -1.715828
     56          6           0       10.316096    1.180256   -0.084778
     57          6           0        9.122810    2.159459   -0.149389
     58          6           0        8.356456    2.492220    1.173737
     59          6           0        7.310787    3.644198    0.978483
     60          6           0        7.860522    4.940873    0.485700
     61          6           0        6.365222    3.681737    2.119902
     62          6           0        4.952362    4.029087    1.691187
     63          6           0        4.088737    4.272045    2.956050
     64          6           0        2.540463    4.378291    2.701317
     65          6           0        1.907079    5.541695    3.405465
     66          6           0        1.874214    2.989158    2.974540
     67          1           0        0.471231    1.527119   -0.396297
     68          1           0       -5.475679    4.485085   -1.245623
     69          1           0       -8.366935   -0.838333    0.463185
     70          1           0       -0.259705   -3.056510    1.165051
     71          1           0        0.980287   -0.820240   -0.199610
     72          1           0        0.323632    0.141464    2.443474
     73          1           0        1.887873   -0.574178    2.090953
     74          1           0        0.581659   -1.644452    2.687000
     75          1           0        0.231060   -2.333293   -1.786564
     76          1           0       -0.885872   -3.623093   -1.350552
     77          1           0        0.648654   -5.134204   -0.854341
     78          1           0        1.535680   -3.994344    0.099621
     79          1           0        0.437441    4.610503   -2.390208
     80          1           0        0.974597    3.593845   -1.070895
     81          1           0        0.241758    5.069836   -0.715202
     82          1           0       -1.874895    7.618968   -2.589737
     83          1           0       -0.911048    6.287299   -3.053043
     84          1           0       -0.861676    6.710297   -1.353421
     85          1           0       -7.698113    3.110159   -1.765821
     86          1           0       -8.814606    2.094273    0.683765
     87          1           0       -7.708786    5.156544   -0.707827
     88          1           0       -7.396069    4.593148    0.917483
     89          1           0       -8.995542    4.290215    0.215631
     90          1           0       -9.996842    2.069876   -1.535090
     91          1           0      -10.041581    0.595405   -0.622810
     92          1           0       -8.992062    1.089915   -3.331455
     93          1           0       -9.665837   -0.364795   -2.543710
     94          1           0       -7.910568    0.108559   -2.372802
     95          1           0       -8.631362   -3.475136    0.401399
     96          1           0       -8.353563   -2.969446    1.994433
     97          1           0       -7.839889   -4.535374    1.656814
     98          1           0       -2.594412   -4.823177   -0.192702
     99          1           0        0.074250   -4.699036    2.590945
    100          1           0        0.616472   -5.982854    1.520361
    101          1           0       -0.197496   -6.425481    3.119494
    102          1           0        4.539199   -4.063324   -2.945907
    103          1           0        4.638927   -5.749670   -2.330402
    104          1           0        5.936724   -4.763611   -0.404708
    105          1           0        7.666824   -1.910305   -3.110737
    106          1           0        5.875325   -2.255118   -3.318260
    107          1           0        7.104782   -3.290245   -3.928478
    108          1           0        8.951533   -3.267153   -1.268743
    109          1           0        8.040435   -3.917062    0.057522
    110          1           0        7.608550   -1.820776    0.796541
    111          1           0        7.486341   -1.179413   -0.743015
    112          1           0       10.296668   -2.034554    0.089244
    113          1           0        9.471442   -0.891844    1.173627
    114          1           0        9.163019   -0.009141   -1.522597
    115          1           0       11.982327    0.003387   -1.527110
    116          1           0       10.858595   -0.723832   -2.765900
    117          1           0       11.509480   -1.654694   -1.420042
    118          1           0       11.166572    1.718115   -0.503237
    119          1           0       10.589788    1.019083    0.958094
    120          1           0        8.326743    1.787997   -0.794545
    121          1           0        9.421815    3.102192   -0.608636
    122          1           0        9.044758    2.703593    1.993204
    123          1           0        7.761233    1.601126    1.372374
    124          1           0        6.721717    3.299197    0.129307
    125          1           0        7.320050    5.807761    0.865097
    126          1           0        7.877706    4.900167   -0.603224
    127          1           0        8.878325    5.225100    0.754923
    128          1           0        6.639683    4.472284    2.818840
    129          1           0        6.313355    2.715316    2.622007
    130          1           0        4.503513    3.354165    0.962820
    131          1           0        5.013194    4.958695    1.123949
    132          1           0        4.433373    5.070214    3.612911
    133          1           0        4.246116    3.333285    3.487286
    134          1           0        2.341218    4.570586    1.646956
    135          1           0        0.906189    5.392010    3.808348
    136          1           0        1.875248    6.380554    2.710308
    137          1           0        2.530895    5.980585    4.184386
    138          1           0        2.507356    2.295505    2.421995
    139          1           0        0.871044    2.898572    2.557797
    140          1           0        1.824020    2.820581    4.050423
 ---------------------------------------------------------------------

 SCF Done:  E(RB-LYP) =  -3007.38729173     A.U. after   20 cycles

 Excitation energies and oscillator strengths:

 Excited State   1:      Singlet-A      1.8089 eV  685.43 nm  f=0.2164  <S**2>=0.000
     244 -> 247        0.33435
     245 -> 248       -0.17539
     246 -> 247        0.60036
     246 <- 247       -0.12421
 This state for optimization and/or second-order correction.
 Total Energy, E(TD-HF/TD-DFT) =  -3007.32081761
 Copying the excited state density for this state as the 1-particle RhoCI density.

 Excited State   2:      Singlet-A      1.8424 eV  672.95 nm  f=0.0811  <S**2>=0.000
     244 -> 247        0.59593
     245 -> 247        0.15680
     245 -> 248        0.10782
     246 -> 247       -0.33368

 Excited State   3:      Singlet-A      1.9372 eV  640.03 nm  f=0.0014  <S**2>=0.000
     243 -> 247        0.70421

 Excited State   4:      Singlet-A      2.0176 eV  614.53 nm  f=0.0763  <S**2>=0.000
     244 -> 247       -0.17550
     245 -> 247        0.62626
     246 -> 248        0.24941

 Excited State   5:      Singlet-A      2.3882 eV  519.15 nm  f=0.0075  <S**2>=0.000
     242 -> 247        0.69271

 The electronic state is 1-A.
 Alpha  occ. eigenvalues --  -46.27872 -18.82511 -18.81767 -18.77962 -18.76969
 Alpha  occ. eigenvalues --  -18.75551 -18.75356 -14.03789 -14.03483 -14.01652
 Alpha  occ. eigenvalues --  -14.00677 -10.04822 -10.03457  -9.99743  -9.99381
 Alpha  occ. eigenvalues --   -9.98094  -9.97557  -9.97436  -9.97101  -9.97066
 Alpha  occ. eigenvalues --   -9.96921  -9.96450  -9.96292  -9.95351  -9.95117
 Alpha  occ. eigenvalues --   -9.94775  -9.94533  -9.94316  -9.94217  -9.94180
 Alpha  occ. eigenvalues --   -9.94149  -9.93911  -9.93779  -9.93739  -9.93672
 Alpha  occ. eigenvalues --   -9.93617  -9.93503  -9.93481  -9.93392  -9.93334
 Alpha  occ. eigenvalues --   -9.93122  -9.92899  -9.92738  -9.92620  -9.92583
 Alpha  occ. eigenvalues --   -9.92312  -9.92222  -9.92218  -9.92105  -9.92006
 Alpha  occ. eigenvalues --   -9.91913  -9.91660  -9.91595  -9.91512  -9.91459
 Alpha  occ. eigenvalues --   -9.91454  -9.91431  -9.91394  -9.91284  -9.91239
 Alpha  occ. eigenvalues --   -9.91225  -9.91078  -9.91061  -9.90893  -9.90876
 Alpha  occ. eigenvalues --   -9.90645  -2.92399  -1.72818  -1.72308  -1.72090
 Alpha  occ. eigenvalues --   -0.98571  -0.96825  -0.93539  -0.90529  -0.90358
 Alpha  occ. eigenvalues --   -0.89931  -0.88163  -0.87267  -0.86406  -0.83078
 Alpha  occ. eigenvalues --   -0.76340  -0.74348  -0.73972  -0.73160  -0.72465
 Alpha  occ. eigenvalues --   -0.72233  -0.71711  -0.71410  -0.70590  -0.69478
 Alpha  occ. eigenvalues --   -0.69284  -0.68954  -0.68653  -0.67880  -0.67274
 Alpha  occ. eigenvalues --   -0.66856  -0.66176  -0.65257  -0.64948  -0.64699
 Alpha  occ. eigenvalues --   -0.64219  -0.62685  -0.62230  -0.61665  -0.61244
 Alpha  occ. eigenvalues --   -0.60778  -0.60716  -0.60467  -0.60057  -0.59186
 Alpha  occ. eigenvalues --   -0.58756  -0.57752  -0.57027  -0.56116  -0.55632
 Alpha  occ. eigenvalues --   -0.54049  -0.53913  -0.53129  -0.52321  -0.51794
 Alpha  occ. eigenvalues --   -0.51410  -0.50980  -0.50544  -0.50306  -0.50193
 Alpha  occ. eigenvalues --   -0.49915  -0.49214  -0.48643  -0.48362  -0.46908
 Alpha  occ. eigenvalues --   -0.46300  -0.46148  -0.45682  -0.45655  -0.45177
 Alpha  occ. eigenvalues --   -0.44238  -0.43948  -0.43286  -0.42912  -0.42755
 Alpha  occ. eigenvalues --   -0.42585  -0.42524  -0.42175  -0.41667  -0.41396
 Alpha  occ. eigenvalues --   -0.41341  -0.41156  -0.40780  -0.40380  -0.40327
 Alpha  occ. eigenvalues --   -0.40124  -0.39840  -0.39726  -0.39609  -0.39547
 Alpha  occ. eigenvalues --   -0.39503  -0.39248  -0.39037  -0.38762  -0.38540
 Alpha  occ. eigenvalues --   -0.38251  -0.38065  -0.37935  -0.37286  -0.37099
 Alpha  occ. eigenvalues --   -0.37034  -0.36871  -0.36770  -0.36743  -0.36701
 Alpha  occ. eigenvalues --   -0.36357  -0.36300  -0.36203  -0.36047  -0.35836
 Alpha  occ. eigenvalues --   -0.35520  -0.35479  -0.35329  -0.35172  -0.34882
 Alpha  occ. eigenvalues --   -0.34669  -0.34629  -0.34503  -0.34424  -0.34117
 Alpha  occ. eigenvalues --   -0.33898  -0.33822  -0.33668  -0.33446  -0.33267
 Alpha  occ. eigenvalues --   -0.32965  -0.32892  -0.32859  -0.32689  -0.32546
 Alpha  occ. eigenvalues --   -0.32161  -0.32068  -0.31852  -0.31723  -0.31502
 Alpha  occ. eigenvalues --   -0.31311  -0.31200  -0.31122  -0.30935  -0.30901
 Alpha  occ. eigenvalues --   -0.30732  -0.30654  -0.30632  -0.30554  -0.30194
 Alpha  occ. eigenvalues --   -0.29965  -0.29810  -0.29721  -0.29470  -0.29189
 Alpha  occ. eigenvalues --   -0.29113  -0.28859  -0.28653  -0.28594  -0.28348
 Alpha  occ. eigenvalues --   -0.28132  -0.27710  -0.27379  -0.27287  -0.26536
 Alpha  occ. eigenvalues --   -0.26373  -0.26306  -0.26111  -0.25626  -0.25612
 Alpha  occ. eigenvalues --   -0.25599  -0.25436  -0.24860  -0.24298  -0.24171
 Alpha  occ. eigenvalues --   -0.23666  -0.22889  -0.22581  -0.21933  -0.21522
 Alpha  occ. eigenvalues --   -0.20491  -0.20031  -0.18877  -0.18510  -0.17492
 Alpha  occ. eigenvalues --   -0.16200
 Alpha virt. eigenvalues --   -0.11832  -0.07144  -0.06335  -0.04716  -0.03579
 Alpha virt. eigenvalues --   -0.03044  -0.02800  -0.02603  -0.01865  -0.00086
 Alpha virt. eigenvalues --    0.00638   0.01144   0.01630   0.01852   0.02205

 Mulliken charges:
               1
     1  Mg   0.691686
     2  C   -0.006526
     3  C   -0.050439
     4  C   -0.032607
     5  C   -0.077667
     6  N   -0.172713
     7  C   -0.116852
     8  C    0.042250
     9  C    0.004435
    10  C   -0.010575
    11  C    0.142297
    12  C    0.163822
    13  C    0.061661
    14  C    0.097202
    15  O   -0.175265
    16  O   -0.301508
    17  N   -0.317059
    18  C    0.152894
    19  C   -0.133516
    20  C    0.051142
    21  C    0.122411
    22  C    0.120526
    23  C   -0.098707
    24  O   -0.126968
    25  C    0.137184
    26  N   -0.173536
    27  C   -0.014481
    28  C   -0.008111
    29  C    0.057739
    30  C    0.079352
    31  C    0.107423
    32  C    0.034460
    33  C    0.058760
    34  N   -0.273291
    35  C    0.100005
    36  C   -0.165570
    37  C    0.069718
    38  C    0.110324
    39  C    0.169070
    40  C   -0.065169
    41  O   -0.147021
    42  C    0.076224
    43  C    0.086162
    44  O   -0.158728
    45  O   -0.284844
    46  C    0.214629
    47  C    0.305087
    48  C   -0.122952
    49  C   -0.115727
    50  C    0.128725
    51  C    0.155641
    52  C    0.057119
    53  C    0.136206
    54  C   -0.110267
    55  C    0.117067
    56  C    0.170831
    57  C    0.024802
    58  C    0.082416
    59  C   -0.039147
    60  C    0.116627
    61  C    0.142511
    62  C    0.024356
    63  C    0.103694
    64  C   -0.062137
    65  C    0.109468
    66  C    0.071817
    67  H   -0.053304
    68  H   -0.054403
    69  H   -0.061207
    70  H   -0.042869
    71  H   -0.033946
    72  H    0.008660
    73  H    0.004915
    74  H    0.008021
    75  H   -0.009433
    76  H   -0.021710
    77  H    0.025930
    78  H   -0.001592
    79  H    0.000589
    80  H   -0.014078
    81  H    0.006789
    82  H   -0.011841
    83  H   -0.002843
    84  H    0.000807
    85  H   -0.016355
    86  H   -0.028684
    87  H    0.010696
    88  H   -0.000133
    89  H   -0.007173
    90  H   -0.018590
    91  H   -0.020766
    92  H   -0.007449
    93  H   -0.002330
    94  H    0.009043
    95  H   -0.006394
    96  H   -0.012935
    97  H    0.006526
    98  H    0.000516
    99  H    0.014901
   100  H    0.003389
   101  H    0.030127
   102  H   -0.012698
   103  H    0.000573
   104  H   -0.033393
   105  H   -0.012030
   106  H    0.018934
   107  H    0.004266
   108  H   -0.043139
   109  H   -0.029145
   110  H   -0.045678
   111  H   -0.033239
   112  H   -0.034670
   113  H   -0.033425
   114  H   -0.026862
   115  H   -0.023357
   116  H   -0.008908
   117  H   -0.023611
   118  H   -0.040160
   119  H   -0.032867
   120  H   -0.038641
   121  H   -0.041417
   122  H   -0.026844
   123  H   -0.034539
   124  H   -0.057656
   125  H   -0.026017
   126  H   -0.009959
   127  H   -0.026458
   128  H   -0.040946
   129  H   -0.041094
   130  H   -0.032949
   131  H   -0.042703
   132  H   -0.030309
   133  H   -0.042950
   134  H   -0.040765
   135  H   -0.016284
   136  H   -0.026462
   137  H   -0.027634
   138  H   -0.015528
   139  H   -0.005405
   140  H   -0.005267
 Sum of Mulliken charges =  -0.00000

 Dipole moment (field-independent basis, Debye):
    X=              4.1976    Y=              2.9599    Z=             -1.1603  Tot=              5.2656
 Quadrupole moment (field-independent basis, Debye-Ang):
   XX=           -362.6040   YY=           -441.6093   ZZ=           -417.6480
   XY=            -18.0028   XZ=              6.1490   YZ=              8.8177

 Normal termination of Gaussian 16 at Wed Apr 27 23:25:12 2022.
