 Gaussian 16, Revision A.03,
 Gaussian 16:  ES64L-G16RevA.03 25-Dec-2016

 -----------------------------------
 #p cam-b3lyp/Def2SVP td=(nstates=5)
 -----------------------------------

 --------------------------------------------------------
 step_1351_chromophore_12 TDDFT with cam-b3lyp functional
 --------------------------------------------------------
 Symbolic Z-matrix:
 Charge =  0 Multiplicity = 1

                         Standard orientation:
 ---------------------------------------------------------------------
 Center     Atomic      Atomic             Coordinates (Angstroms)
 Number     Number       Type             X           Y           Z
 ---------------------------------------------------------------------
      1         12           0       -4.055223    0.325470   -0.302710
      2          6           0       -3.023612   -2.825480    0.500327
      3          6           0       -0.592244    1.296125   -0.305415
      4          6           0       -5.047462    3.520382   -0.966118
      5          6           0       -7.334277   -0.487772    0.412775
      6          7           0       -2.060314   -0.620360    0.250689
      7          6           0       -1.867956   -1.956467    0.403816
      8          6           0       -0.388035   -2.352961    0.342712
      9          6           0        0.267750   -0.988108    0.607032
     10          6           0       -0.857736   -0.016435    0.235819
     11          6           0        0.814842   -0.763910    2.088431
     12          6           0       -0.032163   -3.042145   -1.001746
     13          6           0        1.089897   -4.138211   -0.885492
     14          6           0        2.203135   -4.216634   -1.916520
     15          8           0        2.083631   -3.927658   -3.096613
     16          8           0        3.374084   -4.524012   -1.200642
     17          7           0       -2.941207    2.141914   -0.742959
     18          6           0       -1.556462    2.277901   -0.729508
     19          6           0       -1.320721    3.625647   -1.295355
     20          6           0       -2.559696    4.357605   -1.488540
     21          6           0       -3.622858    3.358336   -1.064957
     22          6           0        0.156896    4.231836   -1.407498
     23          6           0       -2.712126    5.792704   -1.933627
     24          8           0       -3.773313    6.300115   -2.102414
     25          6           0       -1.515123    6.656935   -2.224451
     26          7           0       -5.860416    1.417113   -0.144282
     27          6           0       -6.063669    2.626995   -0.555508
     28          6           0       -7.518603    2.993812   -0.697056
     29          6           0       -8.272013    1.725151   -0.186788
     30          6           0       -7.049084    0.785029    0.055551
     31          6           0       -7.929115    4.354479   -0.003135
     32          6           0       -9.373221    1.246072   -1.187315
     33          6           0       -8.943790    0.446097   -2.452903
     34          7           0       -5.060251   -1.345391    0.308965
     35          6           0       -6.380219   -1.521354    0.611301
     36          6           0       -6.569401   -2.932029    0.832380
     37          6           0       -5.214756   -3.507579    0.838103
     38          6           0       -4.385646   -2.474052    0.511455
     39          6           0       -7.889592   -3.548236    1.197281
     40          6           0       -4.457276   -4.736809    0.919338
     41          8           0       -4.845804   -5.894606    1.142805
     42          6           0       -2.967970   -4.310117    0.693686
     43          6           0       -2.194150   -4.743400    1.849383
     44          8           0       -2.181257   -4.290331    2.965281
     45          8           0       -1.272449   -5.660272    1.399986
     46          6           0       -0.116501   -5.727858    2.286464
     47          6           0        4.595100   -4.695261   -2.059632
     48          6           0        5.930284   -4.296719   -1.389713
     49          6           0        6.862050   -3.407149   -1.751691
     50          6           0        6.864908   -2.647618   -3.081877
     51          6           0        8.012862   -3.159039   -0.725439
     52          6           0        8.146633   -1.813594   -0.152016
     53          6           0        9.516056   -1.277938    0.155435
     54          6           0        9.996539   -0.150590   -0.834698
     55          6           0       11.147563   -0.670387   -1.715828
     56          6           0       10.316096    1.180256   -0.084778
     57          6           0        9.122810    2.159459   -0.149389
     58          6           0        8.356456    2.492220    1.173737
     59          6           0        7.310787    3.644198    0.978483
     60          6           0        7.860522    4.940873    0.485700
     61          6           0        6.365222    3.681737    2.119902
     62          6           0        4.952362    4.029087    1.691187
     63          6           0        4.088737    4.272045    2.956050
     64          6           0        2.540463    4.378291    2.701317
     65          6           0        1.907079    5.541695    3.405465
     66          6           0        1.874214    2.989158    2.974540
     67          1           0        0.471231    1.527119   -0.396297
     68          1           0       -5.475679    4.485085   -1.245623
     69          1           0       -8.366935   -0.838333    0.463185
     70          1           0       -0.259705   -3.056510    1.165051
     71          1           0        0.980287   -0.820240   -0.199610
     72          1           0        0.323632    0.141464    2.443474
     73          1           0        1.887873   -0.574178    2.090953
     74          1           0        0.581659   -1.644452    2.687000
     75          1           0        0.231060   -2.333293   -1.786564
     76          1           0       -0.885872   -3.623093   -1.350552
     77          1           0        0.648654   -5.134204   -0.854341
     78          1           0        1.535680   -3.994344    0.099621
     79          1           0        0.437441    4.610503   -2.390208
     80          1           0        0.974597    3.593845   -1.070895
     81          1           0        0.241758    5.069836   -0.715202
     82          1           0       -1.874895    7.618968   -2.589737
     83          1           0       -0.911048    6.287299   -3.053043
     84          1           0       -0.861676    6.710297   -1.353421
     85          1           0       -7.698113    3.110159   -1.765821
     86          1           0       -8.814606    2.094273    0.683765
     87          1           0       -7.708786    5.156544   -0.707827
     88          1           0       -7.396069    4.593148    0.917483
     89          1           0       -8.995542    4.290215    0.215631
     90          1           0       -9.996842    2.069876   -1.535090
     91          1           0      -10.041581    0.595405   -0.622810
     92          1           0       -8.992062    1.089915   -3.331455
     93          1           0       -9.665837   -0.364795   -2.543710
     94          1           0       -7.910568    0.108559   -2.372802
     95          1           0       -8.631362   -3.475136    0.401399
     96          1           0       -8.353563   -2.969446    1.994433
     97          1           0       -7.839889   -4.535374    1.656814
     98          1           0       -2.594412   -4.823177   -0.192702
     99          1           0        0.074250   -4.699036    2.590945
    100          1           0        0.616472   -5.982854    1.520361
    101          1           0       -0.197496   -6.425481    3.119494
    102          1           0        4.539199   -4.063324   -2.945907
    103          1           0        4.638927   -5.749670   -2.330402
    104          1           0        5.936724   -4.763611   -0.404708
    105          1           0        7.666824   -1.910305   -3.110737
    106          1           0        5.875325   -2.255118   -3.318260
    107          1           0        7.104782   -3.290245   -3.928478
    108          1           0        8.951533   -3.267153   -1.268743
    109          1           0        8.040435   -3.917062    0.057522
    110          1           0        7.608550   -1.820776    0.796541
    111          1           0        7.486341   -1.179413   -0.743015
    112          1           0       10.296668   -2.034554    0.089244
    113          1           0        9.471442   -0.891844    1.173627
    114          1           0        9.163019   -0.009141   -1.522597
    115          1           0       11.982327    0.003387   -1.527110
    116          1           0       10.858595   -0.723832   -2.765900
    117          1           0       11.509480   -1.654694   -1.420042
    118          1           0       11.166572    1.718115   -0.503237
    119          1           0       10.589788    1.019083    0.958094
    120          1           0        8.326743    1.787997   -0.794545
    121          1           0        9.421815    3.102192   -0.608636
    122          1           0        9.044758    2.703593    1.993204
    123          1           0        7.761233    1.601126    1.372374
    124          1           0        6.721717    3.299197    0.129307
    125          1           0        7.320050    5.807761    0.865097
    126          1           0        7.877706    4.900167   -0.603224
    127          1           0        8.878325    5.225100    0.754923
    128          1           0        6.639683    4.472284    2.818840
    129          1           0        6.313355    2.715316    2.622007
    130          1           0        4.503513    3.354165    0.962820
    131          1           0        5.013194    4.958695    1.123949
    132          1           0        4.433373    5.070214    3.612911
    133          1           0        4.246116    3.333285    3.487286
    134          1           0        2.341218    4.570586    1.646956
    135          1           0        0.906189    5.392010    3.808348
    136          1           0        1.875248    6.380554    2.710308
    137          1           0        2.530895    5.980585    4.184386
    138          1           0        2.507356    2.295505    2.421995
    139          1           0        0.871044    2.898572    2.557797
    140          1           0        1.824020    2.820581    4.050423
 ---------------------------------------------------------------------

 SCF Done:  E(RCAM-B3LYP) =  -3007.18166376     A.U. after   17 cycles

 Excitation energies and oscillator strengths:

 Excited State   1:      Singlet-A      1.7750 eV  698.51 nm  f=0.3707  <S**2>=0.000
     245 -> 248       -0.18240
     246 -> 247        0.68495
     245 <- 248       -0.10495
 This state for optimization and/or second-order correction.
 Total Energy, E(TD-HF/TD-DFT) =  -3007.11643467
 Copying the excited state density for this state as the 1-particle RhoCI density.

 Excited State   2:      Singlet-A      2.2267 eV  556.80 nm  f=0.1223  <S**2>=0.000
     245 -> 247        0.64211
     246 -> 248        0.27632

 Excited State   3:      Singlet-A      3.2815 eV  377.83 nm  f=0.0158  <S**2>=0.000
     242 -> 247       -0.34161
     243 -> 247        0.42312
     244 -> 247        0.39634
     246 -> 248        0.16468

 Excited State   4:      Singlet-A      3.3658 eV  368.37 nm  f=0.0134  <S**2>=0.000
     240 -> 247        0.14274
     242 -> 247        0.26283
     243 -> 247       -0.21207
     244 -> 247        0.55543
     246 -> 248       -0.19262

 Excited State   5:      Singlet-A      3.5291 eV  351.32 nm  f=0.0267  <S**2>=0.000
     242 -> 247        0.38394
     242 -> 249       -0.22267
     242 -> 251       -0.15315
     243 -> 247        0.39974
     243 -> 249       -0.19943
     243 -> 251       -0.13270
     246 -> 248       -0.11082

 The electronic state is 1-A.
 Alpha  occ. eigenvalues --  -46.89414 -19.25451 -19.24614 -19.20994 -19.19977
 Alpha  occ. eigenvalues --  -19.19230 -19.18091 -14.42702 -14.42258 -14.40328
 Alpha  occ. eigenvalues --  -14.38699 -10.40234 -10.38724 -10.35280 -10.34358
 Alpha  occ. eigenvalues --  -10.32631 -10.32319 -10.31981 -10.31972 -10.31519
 Alpha  occ. eigenvalues --  -10.31293 -10.31269 -10.30825 -10.30286 -10.28781
 Alpha  occ. eigenvalues --  -10.28750 -10.28651 -10.28633 -10.28609 -10.28532
 Alpha  occ. eigenvalues --  -10.28336 -10.27977 -10.27878 -10.27774 -10.27723
 Alpha  occ. eigenvalues --  -10.27481 -10.27478 -10.27475 -10.27428 -10.27043
 Alpha  occ. eigenvalues --  -10.26978 -10.26954 -10.26548 -10.26426 -10.26388
 Alpha  occ. eigenvalues --  -10.26332 -10.26007 -10.26005 -10.25991 -10.25938
 Alpha  occ. eigenvalues --  -10.25398 -10.25392 -10.25271 -10.25240 -10.25239
 Alpha  occ. eigenvalues --  -10.25227 -10.25209 -10.25150 -10.25007 -10.25004
 Alpha  occ. eigenvalues --  -10.24892 -10.24719 -10.24714 -10.24611 -10.24363
 Alpha  occ. eigenvalues --  -10.24362  -3.17840  -1.92738  -1.92317  -1.92118
 Alpha  occ. eigenvalues --   -1.17085  -1.15312  -1.12489  -1.08399  -1.08234
 Alpha  occ. eigenvalues --   -1.07865  -1.05913  -1.04991  -1.03584  -1.00962
 Alpha  occ. eigenvalues --   -0.93251  -0.91286  -0.90907  -0.89916  -0.89070
 Alpha  occ. eigenvalues --   -0.89000  -0.88369  -0.88147  -0.87228  -0.86163
 Alpha  occ. eigenvalues --   -0.85890  -0.85346  -0.84912  -0.83953  -0.83502
 Alpha  occ. eigenvalues --   -0.82988  -0.82023  -0.81220  -0.81146  -0.80681
 Alpha  occ. eigenvalues --   -0.80142  -0.78281  -0.78103  -0.77105  -0.76673
 Alpha  occ. eigenvalues --   -0.76325  -0.76052  -0.75905  -0.75364  -0.74509
 Alpha  occ. eigenvalues --   -0.73857  -0.72644  -0.71941  -0.70967  -0.70255
 Alpha  occ. eigenvalues --   -0.68693  -0.68459  -0.67720  -0.66691  -0.66062
 Alpha  occ. eigenvalues --   -0.65356  -0.65229  -0.64627  -0.64401  -0.64126
 Alpha  occ. eigenvalues --   -0.64047  -0.62975  -0.62608  -0.62068  -0.60481
 Alpha  occ. eigenvalues --   -0.59968  -0.59830  -0.59217  -0.58862  -0.58660
 Alpha  occ. eigenvalues --   -0.57696  -0.57319  -0.56461  -0.55941  -0.55866
 Alpha  occ. eigenvalues --   -0.55660  -0.55562  -0.55269  -0.55002  -0.54508
 Alpha  occ. eigenvalues --   -0.54232  -0.54178  -0.53496  -0.53403  -0.53007
 Alpha  occ. eigenvalues --   -0.52850  -0.52798  -0.52783  -0.52439  -0.52172
 Alpha  occ. eigenvalues --   -0.51975  -0.51698  -0.51481  -0.51325  -0.51053
 Alpha  occ. eigenvalues --   -0.50516  -0.50455  -0.50278  -0.49867  -0.49669
 Alpha  occ. eigenvalues --   -0.49411  -0.49197  -0.49093  -0.49017  -0.48768
 Alpha  occ. eigenvalues --   -0.48717  -0.48497  -0.48428  -0.48363  -0.48183
 Alpha  occ. eigenvalues --   -0.48108  -0.47467  -0.47434  -0.47140  -0.46786
 Alpha  occ. eigenvalues --   -0.46592  -0.46443  -0.46283  -0.46209  -0.46196
 Alpha  occ. eigenvalues --   -0.45700  -0.45620  -0.45410  -0.45304  -0.45111
 Alpha  occ. eigenvalues --   -0.44716  -0.44522  -0.44483  -0.44322  -0.44217
 Alpha  occ. eigenvalues --   -0.43760  -0.43693  -0.43492  -0.43452  -0.43112
 Alpha  occ. eigenvalues --   -0.42953  -0.42722  -0.42544  -0.42514  -0.42451
 Alpha  occ. eigenvalues --   -0.42244  -0.41998  -0.41947  -0.41897  -0.41863
 Alpha  occ. eigenvalues --   -0.41183  -0.41076  -0.40775  -0.40613  -0.40432
 Alpha  occ. eigenvalues --   -0.40160  -0.39950  -0.39726  -0.39673  -0.39331
 Alpha  occ. eigenvalues --   -0.39117  -0.38810  -0.38300  -0.38263  -0.37363
 Alpha  occ. eigenvalues --   -0.37248  -0.37166  -0.36947  -0.36893  -0.36805
 Alpha  occ. eigenvalues --   -0.36685  -0.36421  -0.35393  -0.34972  -0.34748
 Alpha  occ. eigenvalues --   -0.34740  -0.34512  -0.33520  -0.31596  -0.31347
 Alpha  occ. eigenvalues --   -0.31262  -0.30264  -0.30132  -0.28723  -0.24244
 Alpha  occ. eigenvalues --   -0.21664
 Alpha virt. eigenvalues --   -0.08895  -0.02035   0.00163   0.01970   0.02343
 Alpha virt. eigenvalues --    0.04053   0.04972   0.05129   0.05548   0.06083
 Alpha virt. eigenvalues --    0.06824   0.07709   0.07914   0.08477   0.08598

 Mulliken charges:
               1
     1  Mg   0.821473
     2  C   -0.027881
     3  C   -0.068912
     4  C   -0.057662
     5  C   -0.079119
     6  N   -0.238406
     7  C   -0.074317
     8  C   -0.006180
     9  C   -0.056162
    10  C    0.015403
    11  C    0.092792
    12  C    0.110733
    13  C   -0.005041
    14  C    0.183271
    15  O   -0.217052
    16  O   -0.367804
    17  N   -0.404811
    18  C    0.168810
    19  C   -0.134365
    20  C   -0.017965
    21  C    0.156977
    22  C    0.068557
    23  C   -0.018113
    24  O   -0.164623
    25  C    0.053659
    26  N   -0.250481
    27  C    0.022334
    28  C   -0.069463
    29  C    0.009948
    30  C    0.081571
    31  C    0.051314
    32  C   -0.018154
    33  C    0.000075
    34  N   -0.365218
    35  C    0.099493
    36  C   -0.158038
    37  C   -0.005894
    38  C    0.140503
    39  C    0.107906
    40  C    0.030652
    41  O   -0.189784
    42  C   -0.007475
    43  C    0.174213
    44  O   -0.194686
    45  O   -0.346193
    46  C    0.175510
    47  C    0.277430
    48  C   -0.143831
    49  C   -0.141769
    50  C    0.067705
    51  C    0.100160
    52  C   -0.001092
    53  C    0.081386
    54  C   -0.165995
    55  C    0.060909
    56  C    0.111053
    57  C   -0.023693
    58  C    0.037653
    59  C   -0.101000
    60  C    0.053825
    61  C    0.083852
    62  C   -0.022680
    63  C    0.045069
    64  C   -0.116777
    65  C    0.046641
    66  C    0.022449
    67  H   -0.019291
    68  H   -0.014749
    69  H   -0.025459
    70  H   -0.012746
    71  H    0.002150
    72  H    0.031010
    73  H    0.028082
    74  H    0.031934
    75  H    0.021717
    76  H    0.010143
    77  H    0.054081
    78  H    0.030179
    79  H    0.028683
    80  H    0.014683
    81  H    0.031161
    82  H    0.026076
    83  H    0.026043
    84  H    0.028107
    85  H    0.018608
    86  H    0.006129
    87  H    0.032804
    88  H    0.025717
    89  H    0.017536
    90  H    0.008559
    91  H    0.006753
    92  H    0.014182
    93  H    0.021504
    94  H    0.030805
    95  H    0.016139
    96  H    0.010657
    97  H    0.033421
    98  H    0.044160
    99  H    0.034146
   100  H    0.025607
   101  H    0.055005
   102  H    0.016881
   103  H    0.028007
   104  H    0.000077
   105  H    0.011176
   106  H    0.041783
   107  H    0.030346
   108  H   -0.014915
   109  H    0.002166
   110  H   -0.014681
   111  H   -0.005897
   112  H   -0.005542
   113  H   -0.003821
   114  H    0.002383
   115  H    0.001170
   116  H    0.014196
   117  H   -0.000078
   118  H   -0.008562
   119  H   -0.003948
   120  H   -0.012484
   121  H   -0.012536
   122  H   -0.000191
   123  H   -0.008967
   124  H   -0.024636
   125  H   -0.000006
   126  H    0.013434
   127  H   -0.000255
   128  H   -0.011172
   129  H   -0.010357
   130  H   -0.006903
   131  H   -0.016009
   132  H   -0.000742
   133  H   -0.013400
   134  H   -0.013523
   135  H    0.009879
   136  H   -0.002498
   137  H   -0.002259
   138  H    0.002570
   139  H    0.014576
   140  H    0.018514
 Sum of Mulliken charges =  -0.00000

 Dipole moment (field-independent basis, Debye):
    X=              5.1378    Y=              4.4172    Z=             -1.5589  Tot=              6.9526
 Quadrupole moment (field-independent basis, Debye-Ang):
   XX=           -365.6618   YY=           -438.0221   ZZ=           -417.7358
   XY=            -22.6780   XZ=              7.7045   YZ=              7.5341

 Normal termination of Gaussian 16 at Wed Apr 27 22:16:13 2022.
