 Gaussian 16, Revision A.03,
 Gaussian 16:  ES64L-G16RevA.03 25-Dec-2016

 ---------------------------------
 #p PBE1PBE/Def2SVP td=(nstates=5)
 ---------------------------------

 ------------------------------------------------------
 step_1351_chromophore_12 TDDFT with PBE1PBE functional
 ------------------------------------------------------
 Symbolic Z-matrix:
 Charge =  0 Multiplicity = 1

                         Standard orientation:
 ---------------------------------------------------------------------
 Center     Atomic      Atomic             Coordinates (Angstroms)
 Number     Number       Type             X           Y           Z
 ---------------------------------------------------------------------
      1         12           0       -4.055223    0.325470   -0.302710
      2          6           0       -3.023612   -2.825480    0.500327
      3          6           0       -0.592244    1.296125   -0.305415
      4          6           0       -5.047462    3.520382   -0.966118
      5          6           0       -7.334277   -0.487772    0.412775
      6          7           0       -2.060314   -0.620360    0.250689
      7          6           0       -1.867956   -1.956467    0.403816
      8          6           0       -0.388035   -2.352961    0.342712
      9          6           0        0.267750   -0.988108    0.607032
     10          6           0       -0.857736   -0.016435    0.235819
     11          6           0        0.814842   -0.763910    2.088431
     12          6           0       -0.032163   -3.042145   -1.001746
     13          6           0        1.089897   -4.138211   -0.885492
     14          6           0        2.203135   -4.216634   -1.916520
     15          8           0        2.083631   -3.927658   -3.096613
     16          8           0        3.374084   -4.524012   -1.200642
     17          7           0       -2.941207    2.141914   -0.742959
     18          6           0       -1.556462    2.277901   -0.729508
     19          6           0       -1.320721    3.625647   -1.295355
     20          6           0       -2.559696    4.357605   -1.488540
     21          6           0       -3.622858    3.358336   -1.064957
     22          6           0        0.156896    4.231836   -1.407498
     23          6           0       -2.712126    5.792704   -1.933627
     24          8           0       -3.773313    6.300115   -2.102414
     25          6           0       -1.515123    6.656935   -2.224451
     26          7           0       -5.860416    1.417113   -0.144282
     27          6           0       -6.063669    2.626995   -0.555508
     28          6           0       -7.518603    2.993812   -0.697056
     29          6           0       -8.272013    1.725151   -0.186788
     30          6           0       -7.049084    0.785029    0.055551
     31          6           0       -7.929115    4.354479   -0.003135
     32          6           0       -9.373221    1.246072   -1.187315
     33          6           0       -8.943790    0.446097   -2.452903
     34          7           0       -5.060251   -1.345391    0.308965
     35          6           0       -6.380219   -1.521354    0.611301
     36          6           0       -6.569401   -2.932029    0.832380
     37          6           0       -5.214756   -3.507579    0.838103
     38          6           0       -4.385646   -2.474052    0.511455
     39          6           0       -7.889592   -3.548236    1.197281
     40          6           0       -4.457276   -4.736809    0.919338
     41          8           0       -4.845804   -5.894606    1.142805
     42          6           0       -2.967970   -4.310117    0.693686
     43          6           0       -2.194150   -4.743400    1.849383
     44          8           0       -2.181257   -4.290331    2.965281
     45          8           0       -1.272449   -5.660272    1.399986
     46          6           0       -0.116501   -5.727858    2.286464
     47          6           0        4.595100   -4.695261   -2.059632
     48          6           0        5.930284   -4.296719   -1.389713
     49          6           0        6.862050   -3.407149   -1.751691
     50          6           0        6.864908   -2.647618   -3.081877
     51          6           0        8.012862   -3.159039   -0.725439
     52          6           0        8.146633   -1.813594   -0.152016
     53          6           0        9.516056   -1.277938    0.155435
     54          6           0        9.996539   -0.150590   -0.834698
     55          6           0       11.147563   -0.670387   -1.715828
     56          6           0       10.316096    1.180256   -0.084778
     57          6           0        9.122810    2.159459   -0.149389
     58          6           0        8.356456    2.492220    1.173737
     59          6           0        7.310787    3.644198    0.978483
     60          6           0        7.860522    4.940873    0.485700
     61          6           0        6.365222    3.681737    2.119902
     62          6           0        4.952362    4.029087    1.691187
     63          6           0        4.088737    4.272045    2.956050
     64          6           0        2.540463    4.378291    2.701317
     65          6           0        1.907079    5.541695    3.405465
     66          6           0        1.874214    2.989158    2.974540
     67          1           0        0.471231    1.527119   -0.396297
     68          1           0       -5.475679    4.485085   -1.245623
     69          1           0       -8.366935   -0.838333    0.463185
     70          1           0       -0.259705   -3.056510    1.165051
     71          1           0        0.980287   -0.820240   -0.199610
     72          1           0        0.323632    0.141464    2.443474
     73          1           0        1.887873   -0.574178    2.090953
     74          1           0        0.581659   -1.644452    2.687000
     75          1           0        0.231060   -2.333293   -1.786564
     76          1           0       -0.885872   -3.623093   -1.350552
     77          1           0        0.648654   -5.134204   -0.854341
     78          1           0        1.535680   -3.994344    0.099621
     79          1           0        0.437441    4.610503   -2.390208
     80          1           0        0.974597    3.593845   -1.070895
     81          1           0        0.241758    5.069836   -0.715202
     82          1           0       -1.874895    7.618968   -2.589737
     83          1           0       -0.911048    6.287299   -3.053043
     84          1           0       -0.861676    6.710297   -1.353421
     85          1           0       -7.698113    3.110159   -1.765821
     86          1           0       -8.814606    2.094273    0.683765
     87          1           0       -7.708786    5.156544   -0.707827
     88          1           0       -7.396069    4.593148    0.917483
     89          1           0       -8.995542    4.290215    0.215631
     90          1           0       -9.996842    2.069876   -1.535090
     91          1           0      -10.041581    0.595405   -0.622810
     92          1           0       -8.992062    1.089915   -3.331455
     93          1           0       -9.665837   -0.364795   -2.543710
     94          1           0       -7.910568    0.108559   -2.372802
     95          1           0       -8.631362   -3.475136    0.401399
     96          1           0       -8.353563   -2.969446    1.994433
     97          1           0       -7.839889   -4.535374    1.656814
     98          1           0       -2.594412   -4.823177   -0.192702
     99          1           0        0.074250   -4.699036    2.590945
    100          1           0        0.616472   -5.982854    1.520361
    101          1           0       -0.197496   -6.425481    3.119494
    102          1           0        4.539199   -4.063324   -2.945907
    103          1           0        4.638927   -5.749670   -2.330402
    104          1           0        5.936724   -4.763611   -0.404708
    105          1           0        7.666824   -1.910305   -3.110737
    106          1           0        5.875325   -2.255118   -3.318260
    107          1           0        7.104782   -3.290245   -3.928478
    108          1           0        8.951533   -3.267153   -1.268743
    109          1           0        8.040435   -3.917062    0.057522
    110          1           0        7.608550   -1.820776    0.796541
    111          1           0        7.486341   -1.179413   -0.743015
    112          1           0       10.296668   -2.034554    0.089244
    113          1           0        9.471442   -0.891844    1.173627
    114          1           0        9.163019   -0.009141   -1.522597
    115          1           0       11.982327    0.003387   -1.527110
    116          1           0       10.858595   -0.723832   -2.765900
    117          1           0       11.509480   -1.654694   -1.420042
    118          1           0       11.166572    1.718115   -0.503237
    119          1           0       10.589788    1.019083    0.958094
    120          1           0        8.326743    1.787997   -0.794545
    121          1           0        9.421815    3.102192   -0.608636
    122          1           0        9.044758    2.703593    1.993204
    123          1           0        7.761233    1.601126    1.372374
    124          1           0        6.721717    3.299197    0.129307
    125          1           0        7.320050    5.807761    0.865097
    126          1           0        7.877706    4.900167   -0.603224
    127          1           0        8.878325    5.225100    0.754923
    128          1           0        6.639683    4.472284    2.818840
    129          1           0        6.313355    2.715316    2.622007
    130          1           0        4.503513    3.354165    0.962820
    131          1           0        5.013194    4.958695    1.123949
    132          1           0        4.433373    5.070214    3.612911
    133          1           0        4.246116    3.333285    3.487286
    134          1           0        2.341218    4.570586    1.646956
    135          1           0        0.906189    5.392010    3.808348
    136          1           0        1.875248    6.380554    2.710308
    137          1           0        2.530895    5.980585    4.184386
    138          1           0        2.507356    2.295505    2.421995
    139          1           0        0.871044    2.898572    2.557797
    140          1           0        1.824020    2.820581    4.050423
 ---------------------------------------------------------------------

 SCF Done:  E(RPBE1PBE) =  -3005.37027439     A.U. after   16 cycles

 Excitation energies and oscillator strengths:

 Excited State   1:      Singlet-A      1.8779 eV  660.22 nm  f=0.3561  <S**2>=0.000
     245 -> 248       -0.18282
     246 -> 247        0.69025
     246 <- 247       -0.10005
 This state for optimization and/or second-order correction.
 Total Energy, E(TD-HF/TD-DFT) =  -3005.30126250
 Copying the excited state density for this state as the 1-particle RhoCI density.

 Excited State   2:      Singlet-A      2.2222 eV  557.92 nm  f=0.1151  <S**2>=0.000
     245 -> 247        0.65277
     246 -> 248        0.25752

 Excited State   3:      Singlet-A      2.8981 eV  427.82 nm  f=0.0042  <S**2>=0.000
     243 -> 247        0.30895
     244 -> 247        0.61511

 Excited State   4:      Singlet-A      2.9567 eV  419.33 nm  f=0.0034  <S**2>=0.000
     242 -> 247        0.15895
     243 -> 247        0.59395
     243 -> 249        0.14033
     244 -> 247       -0.29352

 Excited State   5:      Singlet-A      3.0466 eV  406.96 nm  f=0.0100  <S**2>=0.000
     241 -> 247        0.10072
     242 -> 247        0.65210
     243 -> 247       -0.10484
     244 -> 247        0.14933
     246 -> 248       -0.13725

 The electronic state is 1-A.
 Alpha  occ. eigenvalues --  -46.92828 -19.26194 -19.25371 -19.21290 -19.20308
 Alpha  occ. eigenvalues --  -19.19112 -19.18658 -14.42186 -14.41744 -14.39918
 Alpha  occ. eigenvalues --  -14.38577 -10.37292 -10.35841 -10.32099 -10.31797
 Alpha  occ. eigenvalues --  -10.29960 -10.29710 -10.29460 -10.29285 -10.29263
 Alpha  occ. eigenvalues --  -10.28834 -10.28657 -10.28258 -10.28081 -10.26817
 Alpha  occ. eigenvalues --  -10.26657 -10.26389 -10.26261 -10.26214 -10.26161
 Alpha  occ. eigenvalues --  -10.26087 -10.25881 -10.25666 -10.25472 -10.25372
 Alpha  occ. eigenvalues --  -10.25290 -10.25263 -10.25221 -10.25138 -10.24538
 Alpha  occ. eigenvalues --  -10.24425 -10.24378 -10.24260 -10.24192 -10.23875
 Alpha  occ. eigenvalues --  -10.23824 -10.23733 -10.23564 -10.23462 -10.23068
 Alpha  occ. eigenvalues --  -10.22959 -10.22955 -10.22895 -10.22886 -10.22767
 Alpha  occ. eigenvalues --  -10.22749 -10.22720 -10.22694 -10.22525 -10.22512
 Alpha  occ. eigenvalues --  -10.22405 -10.22308 -10.22121 -10.22088 -10.22048
 Alpha  occ. eigenvalues --  -10.21638  -3.14838  -1.87676  -1.87233  -1.87039
 Alpha  occ. eigenvalues --   -1.11955  -1.10119  -1.06963  -1.03341  -1.03137
 Alpha  occ. eigenvalues --   -1.02885  -1.00549  -0.99637  -0.98582  -0.95299
 Alpha  occ. eigenvalues --   -0.87835  -0.85381  -0.84981  -0.84184  -0.83411
 Alpha  occ. eigenvalues --   -0.83105  -0.82657  -0.82195  -0.81501  -0.80141
 Alpha  occ. eigenvalues --   -0.80043  -0.79797  -0.79201  -0.78357  -0.77631
 Alpha  occ. eigenvalues --   -0.77219  -0.76401  -0.75388  -0.75217  -0.74819
 Alpha  occ. eigenvalues --   -0.74406  -0.72537  -0.72282  -0.71467  -0.70840
 Alpha  occ. eigenvalues --   -0.70427  -0.70324  -0.69985  -0.69694  -0.68659
 Alpha  occ. eigenvalues --   -0.68167  -0.67148  -0.66377  -0.65307  -0.64634
 Alpha  occ. eigenvalues --   -0.63090  -0.62805  -0.62106  -0.60929  -0.60491
 Alpha  occ. eigenvalues --   -0.59944  -0.59367  -0.59112  -0.58709  -0.58505
 Alpha  occ. eigenvalues --   -0.58175  -0.57532  -0.56761  -0.56719  -0.54858
 Alpha  occ. eigenvalues --   -0.54457  -0.54277  -0.53807  -0.53631  -0.53250
 Alpha  occ. eigenvalues --   -0.52278  -0.51798  -0.50971  -0.50532  -0.50295
 Alpha  occ. eigenvalues --   -0.50133  -0.49867  -0.49682  -0.49532  -0.49053
 Alpha  occ. eigenvalues --   -0.48852  -0.48659  -0.47997  -0.47895  -0.47610
 Alpha  occ. eigenvalues --   -0.47416  -0.47317  -0.47103  -0.46810  -0.46630
 Alpha  occ. eigenvalues --   -0.46565  -0.46198  -0.45985  -0.45923  -0.45676
 Alpha  occ. eigenvalues --   -0.45256  -0.45060  -0.44833  -0.44347  -0.44202
 Alpha  occ. eigenvalues --   -0.43896  -0.43733  -0.43635  -0.43578  -0.43343
 Alpha  occ. eigenvalues --   -0.43341  -0.43222  -0.43024  -0.42954  -0.42791
 Alpha  occ. eigenvalues --   -0.42668  -0.42063  -0.42035  -0.41855  -0.41539
 Alpha  occ. eigenvalues --   -0.41281  -0.41153  -0.41079  -0.40822  -0.40761
 Alpha  occ. eigenvalues --   -0.40364  -0.40288  -0.40139  -0.40042  -0.39941
 Alpha  occ. eigenvalues --   -0.39549  -0.39326  -0.39194  -0.39132  -0.38898
 Alpha  occ. eigenvalues --   -0.38589  -0.38355  -0.38335  -0.38210  -0.37932
 Alpha  occ. eigenvalues --   -0.37832  -0.37532  -0.37363  -0.37253  -0.37202
 Alpha  occ. eigenvalues --   -0.37053  -0.36941  -0.36801  -0.36668  -0.36540
 Alpha  occ. eigenvalues --   -0.36035  -0.35897  -0.35745  -0.35319  -0.35309
 Alpha  occ. eigenvalues --   -0.35107  -0.34772  -0.34530  -0.34463  -0.34088
 Alpha  occ. eigenvalues --   -0.33899  -0.33777  -0.33141  -0.33032  -0.32485
 Alpha  occ. eigenvalues --   -0.32206  -0.32162  -0.31989  -0.31773  -0.31719
 Alpha  occ. eigenvalues --   -0.31612  -0.31112  -0.30290  -0.29878  -0.29735
 Alpha  occ. eigenvalues --   -0.29725  -0.29656  -0.29083  -0.26971  -0.26538
 Alpha  occ. eigenvalues --   -0.26055  -0.25584  -0.25337  -0.24735  -0.21163
 Alpha  occ. eigenvalues --   -0.19205
 Alpha virt. eigenvalues --   -0.11420  -0.05545  -0.04057  -0.02161  -0.00766
 Alpha virt. eigenvalues --   -0.00497   0.00358   0.00466   0.00975   0.02831
 Alpha virt. eigenvalues --    0.03212   0.04228   0.04270   0.04697   0.05078

 Mulliken charges:
               1
     1  Mg   0.964875
     2  C   -0.035613
     3  C   -0.063200
     4  C   -0.047247
     5  C   -0.069365
     6  N   -0.338204
     7  C    0.011263
     8  C   -0.093717
     9  C   -0.135271
    10  C    0.056534
    11  C    0.034880
    12  C    0.063767
    13  C   -0.083581
    14  C    0.251720
    15  O   -0.250814
    16  O   -0.396529
    17  N   -0.506560
    18  C    0.188107
    19  C   -0.156982
    20  C   -0.074596
    21  C    0.183940
    22  C    0.007566
    23  C    0.034187
    24  O   -0.204479
    25  C   -0.022254
    26  N   -0.365888
    27  C    0.062848
    28  C   -0.143589
    29  C   -0.059369
    30  C    0.103737
    31  C   -0.008936
    32  C   -0.080689
    33  C   -0.071659
    34  N   -0.498703
    35  C    0.131899
    36  C   -0.169067
    37  C   -0.046902
    38  C    0.185818
    39  C    0.051356
    40  C    0.120617
    41  O   -0.233831
    42  C   -0.119166
    43  C    0.265651
    44  O   -0.230288
    45  O   -0.377741
    46  C    0.117114
    47  C    0.234379
    48  C   -0.152953
    49  C   -0.186499
    50  C    0.002925
    51  C    0.035119
    52  C   -0.062776
    53  C    0.027453
    54  C   -0.253735
    55  C    0.003266
    56  C    0.054370
    57  C   -0.081180
    58  C   -0.022283
    59  C   -0.190682
    60  C   -0.001197
    61  C    0.026357
    62  C   -0.084454
    63  C   -0.011986
    64  C   -0.209641
    65  C   -0.010848
    66  C   -0.044856
    67  H    0.012437
    68  H    0.018264
    69  H    0.005728
    70  H    0.039480
    71  H    0.039484
    72  H    0.060155
    73  H    0.054783
    74  H    0.058114
    75  H    0.053302
    76  H    0.045064
    77  H    0.085722
    78  H    0.062825
    79  H    0.054525
    80  H    0.040473
    81  H    0.057686
    82  H    0.052827
    83  H    0.052945
    84  H    0.054886
    85  H    0.056821
    86  H    0.044282
    87  H    0.059317
    88  H    0.053478
    89  H    0.044733
    90  H    0.042101
    91  H    0.038524
    92  H    0.042326
    93  H    0.048715
    94  H    0.060900
    95  H    0.045547
    96  H    0.040439
    97  H    0.062246
    98  H    0.081918
    99  H    0.055370
   100  H    0.049234
   101  H    0.077745
   102  H    0.044418
   103  H    0.055512
   104  H    0.029732
   105  H    0.039794
   106  H    0.067787
   107  H    0.058439
   108  H    0.022093
   109  H    0.032699
   110  H    0.019623
   111  H    0.027519
   112  H    0.026259
   113  H    0.028176
   114  H    0.041351
   115  H    0.028725
   116  H    0.041006
   117  H    0.025960
   118  H    0.023917
   119  H    0.027913
   120  H    0.019737
   121  H    0.020946
   122  H    0.032089
   123  H    0.026427
   124  H    0.015851
   125  H    0.027459
   126  H    0.039650
   127  H    0.027271
   128  H    0.022904
   129  H    0.021373
   130  H    0.024024
   131  H    0.019573
   132  H    0.029632
   133  H    0.020895
   134  H    0.027832
   135  H    0.037005
   136  H    0.025464
   137  H    0.024471
   138  H    0.031881
   139  H    0.043961
   140  H    0.045813
 Sum of Mulliken charges =  -0.00000

 Dipole moment (field-independent basis, Debye):
    X=              4.6541    Y=              3.7501    Z=             -1.3664  Tot=              6.1312
 Quadrupole moment (field-independent basis, Debye-Ang):
   XX=           -356.4980   YY=           -436.1250   ZZ=           -415.4794
   XY=            -20.3753   XZ=              7.0222   YZ=              7.6226

 Normal termination of Gaussian 16 at Wed Apr 27 22:37:46 2022.
