 Gaussian 16, Revision A.03,
 Gaussian 16:  ES64L-G16RevA.03 25-Dec-2016

 --------------------------------
 #p wB97XD/Def2SVP td=(nstates=5)
 --------------------------------

 -----------------------------------------------------
 step_1351_chromophore_12 TDDFT with wB97XD functional
 -----------------------------------------------------
 Symbolic Z-matrix:
 Charge =  0 Multiplicity = 1

                         Standard orientation:
 ---------------------------------------------------------------------
 Center     Atomic      Atomic             Coordinates (Angstroms)
 Number     Number       Type             X           Y           Z
 ---------------------------------------------------------------------
      1         12           0       -4.055223    0.325470   -0.302710
      2          6           0       -3.023612   -2.825480    0.500327
      3          6           0       -0.592244    1.296125   -0.305415
      4          6           0       -5.047462    3.520382   -0.966118
      5          6           0       -7.334277   -0.487772    0.412775
      6          7           0       -2.060314   -0.620360    0.250689
      7          6           0       -1.867956   -1.956467    0.403816
      8          6           0       -0.388035   -2.352961    0.342712
      9          6           0        0.267750   -0.988108    0.607032
     10          6           0       -0.857736   -0.016435    0.235819
     11          6           0        0.814842   -0.763910    2.088431
     12          6           0       -0.032163   -3.042145   -1.001746
     13          6           0        1.089897   -4.138211   -0.885492
     14          6           0        2.203135   -4.216634   -1.916520
     15          8           0        2.083631   -3.927658   -3.096613
     16          8           0        3.374084   -4.524012   -1.200642
     17          7           0       -2.941207    2.141914   -0.742959
     18          6           0       -1.556462    2.277901   -0.729508
     19          6           0       -1.320721    3.625647   -1.295355
     20          6           0       -2.559696    4.357605   -1.488540
     21          6           0       -3.622858    3.358336   -1.064957
     22          6           0        0.156896    4.231836   -1.407498
     23          6           0       -2.712126    5.792704   -1.933627
     24          8           0       -3.773313    6.300115   -2.102414
     25          6           0       -1.515123    6.656935   -2.224451
     26          7           0       -5.860416    1.417113   -0.144282
     27          6           0       -6.063669    2.626995   -0.555508
     28          6           0       -7.518603    2.993812   -0.697056
     29          6           0       -8.272013    1.725151   -0.186788
     30          6           0       -7.049084    0.785029    0.055551
     31          6           0       -7.929115    4.354479   -0.003135
     32          6           0       -9.373221    1.246072   -1.187315
     33          6           0       -8.943790    0.446097   -2.452903
     34          7           0       -5.060251   -1.345391    0.308965
     35          6           0       -6.380219   -1.521354    0.611301
     36          6           0       -6.569401   -2.932029    0.832380
     37          6           0       -5.214756   -3.507579    0.838103
     38          6           0       -4.385646   -2.474052    0.511455
     39          6           0       -7.889592   -3.548236    1.197281
     40          6           0       -4.457276   -4.736809    0.919338
     41          8           0       -4.845804   -5.894606    1.142805
     42          6           0       -2.967970   -4.310117    0.693686
     43          6           0       -2.194150   -4.743400    1.849383
     44          8           0       -2.181257   -4.290331    2.965281
     45          8           0       -1.272449   -5.660272    1.399986
     46          6           0       -0.116501   -5.727858    2.286464
     47          6           0        4.595100   -4.695261   -2.059632
     48          6           0        5.930284   -4.296719   -1.389713
     49          6           0        6.862050   -3.407149   -1.751691
     50          6           0        6.864908   -2.647618   -3.081877
     51          6           0        8.012862   -3.159039   -0.725439
     52          6           0        8.146633   -1.813594   -0.152016
     53          6           0        9.516056   -1.277938    0.155435
     54          6           0        9.996539   -0.150590   -0.834698
     55          6           0       11.147563   -0.670387   -1.715828
     56          6           0       10.316096    1.180256   -0.084778
     57          6           0        9.122810    2.159459   -0.149389
     58          6           0        8.356456    2.492220    1.173737
     59          6           0        7.310787    3.644198    0.978483
     60          6           0        7.860522    4.940873    0.485700
     61          6           0        6.365222    3.681737    2.119902
     62          6           0        4.952362    4.029087    1.691187
     63          6           0        4.088737    4.272045    2.956050
     64          6           0        2.540463    4.378291    2.701317
     65          6           0        1.907079    5.541695    3.405465
     66          6           0        1.874214    2.989158    2.974540
     67          1           0        0.471231    1.527119   -0.396297
     68          1           0       -5.475679    4.485085   -1.245623
     69          1           0       -8.366935   -0.838333    0.463185
     70          1           0       -0.259705   -3.056510    1.165051
     71          1           0        0.980287   -0.820240   -0.199610
     72          1           0        0.323632    0.141464    2.443474
     73          1           0        1.887873   -0.574178    2.090953
     74          1           0        0.581659   -1.644452    2.687000
     75          1           0        0.231060   -2.333293   -1.786564
     76          1           0       -0.885872   -3.623093   -1.350552
     77          1           0        0.648654   -5.134204   -0.854341
     78          1           0        1.535680   -3.994344    0.099621
     79          1           0        0.437441    4.610503   -2.390208
     80          1           0        0.974597    3.593845   -1.070895
     81          1           0        0.241758    5.069836   -0.715202
     82          1           0       -1.874895    7.618968   -2.589737
     83          1           0       -0.911048    6.287299   -3.053043
     84          1           0       -0.861676    6.710297   -1.353421
     85          1           0       -7.698113    3.110159   -1.765821
     86          1           0       -8.814606    2.094273    0.683765
     87          1           0       -7.708786    5.156544   -0.707827
     88          1           0       -7.396069    4.593148    0.917483
     89          1           0       -8.995542    4.290215    0.215631
     90          1           0       -9.996842    2.069876   -1.535090
     91          1           0      -10.041581    0.595405   -0.622810
     92          1           0       -8.992062    1.089915   -3.331455
     93          1           0       -9.665837   -0.364795   -2.543710
     94          1           0       -7.910568    0.108559   -2.372802
     95          1           0       -8.631362   -3.475136    0.401399
     96          1           0       -8.353563   -2.969446    1.994433
     97          1           0       -7.839889   -4.535374    1.656814
     98          1           0       -2.594412   -4.823177   -0.192702
     99          1           0        0.074250   -4.699036    2.590945
    100          1           0        0.616472   -5.982854    1.520361
    101          1           0       -0.197496   -6.425481    3.119494
    102          1           0        4.539199   -4.063324   -2.945907
    103          1           0        4.638927   -5.749670   -2.330402
    104          1           0        5.936724   -4.763611   -0.404708
    105          1           0        7.666824   -1.910305   -3.110737
    106          1           0        5.875325   -2.255118   -3.318260
    107          1           0        7.104782   -3.290245   -3.928478
    108          1           0        8.951533   -3.267153   -1.268743
    109          1           0        8.040435   -3.917062    0.057522
    110          1           0        7.608550   -1.820776    0.796541
    111          1           0        7.486341   -1.179413   -0.743015
    112          1           0       10.296668   -2.034554    0.089244
    113          1           0        9.471442   -0.891844    1.173627
    114          1           0        9.163019   -0.009141   -1.522597
    115          1           0       11.982327    0.003387   -1.527110
    116          1           0       10.858595   -0.723832   -2.765900
    117          1           0       11.509480   -1.654694   -1.420042
    118          1           0       11.166572    1.718115   -0.503237
    119          1           0       10.589788    1.019083    0.958094
    120          1           0        8.326743    1.787997   -0.794545
    121          1           0        9.421815    3.102192   -0.608636
    122          1           0        9.044758    2.703593    1.993204
    123          1           0        7.761233    1.601126    1.372374
    124          1           0        6.721717    3.299197    0.129307
    125          1           0        7.320050    5.807761    0.865097
    126          1           0        7.877706    4.900167   -0.603224
    127          1           0        8.878325    5.225100    0.754923
    128          1           0        6.639683    4.472284    2.818840
    129          1           0        6.313355    2.715316    2.622007
    130          1           0        4.503513    3.354165    0.962820
    131          1           0        5.013194    4.958695    1.123949
    132          1           0        4.433373    5.070214    3.612911
    133          1           0        4.246116    3.333285    3.487286
    134          1           0        2.341218    4.570586    1.646956
    135          1           0        0.906189    5.392010    3.808348
    136          1           0        1.875248    6.380554    2.710308
    137          1           0        2.530895    5.980585    4.184386
    138          1           0        2.507356    2.295505    2.421995
    139          1           0        0.871044    2.898572    2.557797
    140          1           0        1.824020    2.820581    4.050423
 ---------------------------------------------------------------------

 SCF Done:  E(RwB97XD) =  -3007.88387841     A.U. after   17 cycles

 Excitation energies and oscillator strengths:

 Excited State   1:      Singlet-A      1.7442 eV  710.84 nm  f=0.3695  <S**2>=0.000
     245 -> 248       -0.18435
     246 -> 247        0.68289
     245 <- 248       -0.11170
 This state for optimization and/or second-order correction.
 Total Energy, E(TD-HF/TD-DFT) =  -3007.81978050
 Copying the excited state density for this state as the 1-particle RhoCI density.

 Excited State   2:      Singlet-A      2.1797 eV  568.80 nm  f=0.1204  <S**2>=0.000
     245 -> 247        0.63889
     246 -> 248        0.27706

 Excited State   3:      Singlet-A      3.2871 eV  377.18 nm  f=0.0216  <S**2>=0.000
     242 -> 247        0.59339
     243 -> 247       -0.12619
     244 -> 247       -0.22945
     246 -> 248       -0.21464

 Excited State   4:      Singlet-A      3.4244 eV  362.06 nm  f=0.0151  <S**2>=0.000
     240 -> 247        0.12125
     242 -> 247        0.15568
     244 -> 247        0.62461
     244 -> 249       -0.10669
     246 -> 248       -0.19170

 Excited State   5:      Singlet-A      3.5937 eV  345.00 nm  f=0.0330  <S**2>=0.000
     243 -> 247        0.52172
     243 -> 249       -0.31496
     243 -> 250       -0.24475
     244 -> 247       -0.10467
     246 -> 248       -0.10821

 The electronic state is 1-A.
 Alpha  occ. eigenvalues --  -46.95752 -19.30733 -19.29815 -19.25953 -19.24879
 Alpha  occ. eigenvalues --  -19.24291 -19.23086 -14.47276 -14.46826 -14.45003
 Alpha  occ. eigenvalues --  -14.43230 -10.44067 -10.42526 -10.39289 -10.38321
 Alpha  occ. eigenvalues --  -10.36858 -10.36229 -10.36163 -10.36081 -10.35361
 Alpha  occ. eigenvalues --  -10.35276 -10.35257 -10.35144 -10.34244 -10.32973
 Alpha  occ. eigenvalues --  -10.32851 -10.32727 -10.32718 -10.32570 -10.32536
 Alpha  occ. eigenvalues --  -10.32442 -10.32015 -10.31767 -10.31762 -10.31651
 Alpha  occ. eigenvalues --  -10.31530 -10.31520 -10.31467 -10.31452 -10.31063
 Alpha  occ. eigenvalues --  -10.30897 -10.30853 -10.30483 -10.30392 -10.30292
 Alpha  occ. eigenvalues --  -10.30283 -10.30019 -10.29956 -10.29938 -10.29872
 Alpha  occ. eigenvalues --  -10.29350 -10.29247 -10.29205 -10.29196 -10.29185
 Alpha  occ. eigenvalues --  -10.29162 -10.29099 -10.29004 -10.28946 -10.28852
 Alpha  occ. eigenvalues --  -10.28804 -10.28563 -10.28556 -10.28535 -10.28317
 Alpha  occ. eigenvalues --  -10.28172  -3.21633  -1.95217  -1.94778  -1.94576
 Alpha  occ. eigenvalues --   -1.19215  -1.17497  -1.14765  -1.10564  -1.10469
 Alpha  occ. eigenvalues --   -1.10032  -1.07924  -1.06990  -1.05560  -1.03088
 Alpha  occ. eigenvalues --   -0.95190  -0.93077  -0.92694  -0.91773  -0.90935
 Alpha  occ. eigenvalues --   -0.90808  -0.90296  -0.89936  -0.89181  -0.88181
 Alpha  occ. eigenvalues --   -0.87774  -0.87227  -0.86772  -0.85856  -0.85342
 Alpha  occ. eigenvalues --   -0.84884  -0.83921  -0.83200  -0.83033  -0.82574
 Alpha  occ. eigenvalues --   -0.82075  -0.80230  -0.80043  -0.79020  -0.78528
 Alpha  occ. eigenvalues --   -0.78125  -0.77976  -0.77727  -0.77319  -0.76374
 Alpha  occ. eigenvalues --   -0.75783  -0.74607  -0.73915  -0.72921  -0.72166
 Alpha  occ. eigenvalues --   -0.70610  -0.70425  -0.69742  -0.68581  -0.68030
 Alpha  occ. eigenvalues --   -0.67353  -0.67079  -0.66605  -0.66222  -0.66111
 Alpha  occ. eigenvalues --   -0.65896  -0.64982  -0.64459  -0.64024  -0.62391
 Alpha  occ. eigenvalues --   -0.62011  -0.61798  -0.61182  -0.60839  -0.60590
 Alpha  occ. eigenvalues --   -0.59703  -0.59246  -0.58348  -0.57903  -0.57767
 Alpha  occ. eigenvalues --   -0.57610  -0.57411  -0.57232  -0.56961  -0.56434
 Alpha  occ. eigenvalues --   -0.56138  -0.56120  -0.55392  -0.55350  -0.54988
 Alpha  occ. eigenvalues --   -0.54786  -0.54763  -0.54709  -0.54370  -0.54046
 Alpha  occ. eigenvalues --   -0.53879  -0.53588  -0.53366  -0.53223  -0.52960
 Alpha  occ. eigenvalues --   -0.52431  -0.52334  -0.52173  -0.51861  -0.51625
 Alpha  occ. eigenvalues --   -0.51345  -0.51089  -0.51036  -0.50916  -0.50706
 Alpha  occ. eigenvalues --   -0.50659  -0.50447  -0.50340  -0.50281  -0.50072
 Alpha  occ. eigenvalues --   -0.50064  -0.49402  -0.49351  -0.49054  -0.48693
 Alpha  occ. eigenvalues --   -0.48515  -0.48361  -0.48206  -0.48140  -0.48079
 Alpha  occ. eigenvalues --   -0.47593  -0.47529  -0.47313  -0.47207  -0.47012
 Alpha  occ. eigenvalues --   -0.46637  -0.46408  -0.46385  -0.46193  -0.46099
 Alpha  occ. eigenvalues --   -0.45720  -0.45620  -0.45504  -0.45411  -0.45082
 Alpha  occ. eigenvalues --   -0.44852  -0.44703  -0.44471  -0.44406  -0.44357
 Alpha  occ. eigenvalues --   -0.44142  -0.43948  -0.43832  -0.43828  -0.43741
 Alpha  occ. eigenvalues --   -0.43062  -0.42950  -0.42695  -0.42475  -0.42335
 Alpha  occ. eigenvalues --   -0.42037  -0.41811  -0.41587  -0.41562  -0.41188
 Alpha  occ. eigenvalues --   -0.40992  -0.40722  -0.40196  -0.40141  -0.39310
 Alpha  occ. eigenvalues --   -0.39204  -0.39148  -0.38964  -0.38821  -0.38676
 Alpha  occ. eigenvalues --   -0.38671  -0.38270  -0.37267  -0.36911  -0.36678
 Alpha  occ. eigenvalues --   -0.36588  -0.36505  -0.35759  -0.33619  -0.33550
 Alpha  occ. eigenvalues --   -0.33309  -0.32457  -0.32107  -0.30824  -0.26190
 Alpha  occ. eigenvalues --   -0.23503
 Alpha virt. eigenvalues --   -0.07225  -0.00116   0.02209   0.04352   0.05196
 Alpha virt. eigenvalues --    0.06235   0.07201   0.07375   0.07800   0.09224
 Alpha virt. eigenvalues --    0.09842   0.10632   0.11137   0.11368   0.11810

 Mulliken charges:
               1
     1  Mg   0.956436
     2  C   -0.036800
     3  C   -0.081668
     4  C   -0.069704
     5  C   -0.081993
     6  N   -0.304407
     7  C   -0.030213
     8  C   -0.042211
     9  C   -0.110027
    10  C    0.042323
    11  C    0.047629
    12  C    0.071005
    13  C   -0.062878
    14  C    0.242284
    15  O   -0.248471
    16  O   -0.397011
    17  N   -0.481965
    18  C    0.187025
    19  C   -0.148284
    20  C   -0.064176
    21  C    0.182859
    22  C    0.024357
    23  C    0.032158
    24  O   -0.197409
    25  C   -0.008962
    26  N   -0.327825
    27  C    0.053412
    28  C   -0.122719
    29  C   -0.035098
    30  C    0.092756
    31  C    0.002289
    32  C   -0.065910
    33  C   -0.054103
    34  N   -0.458121
    35  C    0.113747
    36  C   -0.168920
    37  C   -0.045602
    38  C    0.167657
    39  C    0.060278
    40  C    0.102858
    41  O   -0.226809
    42  C   -0.079076
    43  C    0.243724
    44  O   -0.225306
    45  O   -0.376110
    46  C    0.133530
    47  C    0.253122
    48  C   -0.164573
    49  C   -0.173030
    50  C    0.015277
    51  C    0.056163
    52  C   -0.045797
    53  C    0.042047
    54  C   -0.221012
    55  C    0.016338
    56  C    0.067623
    57  C   -0.062385
    58  C   -0.004542
    59  C   -0.154779
    60  C    0.002164
    61  C    0.041805
    62  C   -0.067330
    63  C    0.007039
    64  C   -0.180790
    65  C   -0.001462
    66  C   -0.025200
    67  H    0.005704
    68  H    0.012302
    69  H   -0.000601
    70  H    0.001566
    71  H    0.028694
    72  H    0.051335
    73  H    0.049972
    74  H    0.054704
    75  H    0.046299
    76  H    0.035234
    77  H    0.079072
    78  H    0.053496
    79  H    0.050786
    80  H    0.037873
    81  H    0.051520
    82  H    0.053107
    83  H    0.047511
    84  H    0.048860
    85  H    0.046125
    86  H    0.034078
    87  H    0.053797
    88  H    0.048369
    89  H    0.039587
    90  H    0.033503
    91  H    0.030814
    92  H    0.035885
    93  H    0.044208
    94  H    0.050774
    95  H    0.038291
    96  H    0.032115
    97  H    0.058233
    98  H    0.074216
    99  H    0.050637
   100  H    0.043759
   101  H    0.075673
   102  H    0.036115
   103  H    0.051603
   104  H    0.026860
   105  H    0.033523
   106  H    0.062701
   107  H    0.053568
   108  H    0.008896
   109  H    0.027499
   110  H    0.012221
   111  H    0.014470
   112  H    0.015966
   113  H    0.020007
   114  H    0.023342
   115  H    0.021945
   116  H    0.036266
   117  H    0.019484
   118  H    0.016688
   119  H    0.019051
   120  H    0.008043
   121  H    0.011202
   122  H    0.023951
   123  H    0.014538
   124  H   -0.000068
   125  H    0.022201
   126  H    0.034493
   127  H    0.022071
   128  H    0.013462
   129  H    0.012395
   130  H    0.015484
   131  H    0.007411
   132  H    0.022218
   133  H    0.008191
   134  H    0.014467
   135  H    0.032660
   136  H    0.019089
   137  H    0.018266
   138  H    0.021430
   139  H    0.035408
   140  H    0.040152
 Sum of Mulliken charges =  -0.00000

 Dipole moment (field-independent basis, Debye):
    X=              5.2846    Y=              4.6966    Z=             -1.6404  Tot=              7.2578
 Quadrupole moment (field-independent basis, Debye-Ang):
   XX=           -361.0307   YY=           -434.0196   ZZ=           -414.9735
   XY=            -23.5171   XZ=              8.1492   YZ=              7.0614

 Normal termination of Gaussian 16 at Wed Apr 27 23:10:33 2022.
