 Gaussian 16, Revision A.03,
 Gaussian 16:  ES64L-G16RevA.03 25-Dec-2016

 --------------------
 #p ZINDO=(nstates=5)
 --------------------

 ------------------------------
 step_1351_chromophore_12 ZINDO
 ------------------------------
 Symbolic Z-matrix:
 Charge =  0 Multiplicity = 1

                         Standard orientation:
 ---------------------------------------------------------------------
 Center     Atomic      Atomic             Coordinates (Angstroms)
 Number     Number       Type             X           Y           Z
 ---------------------------------------------------------------------
      1         12           0       -4.055223    0.325470   -0.302710
      2          6           0       -3.023612   -2.825480    0.500327
      3          6           0       -0.592244    1.296125   -0.305415
      4          6           0       -5.047462    3.520382   -0.966118
      5          6           0       -7.334277   -0.487772    0.412775
      6          7           0       -2.060314   -0.620360    0.250689
      7          6           0       -1.867956   -1.956467    0.403816
      8          6           0       -0.388035   -2.352961    0.342712
      9          6           0        0.267750   -0.988108    0.607032
     10          6           0       -0.857736   -0.016435    0.235819
     11          6           0        0.814842   -0.763910    2.088431
     12          6           0       -0.032163   -3.042145   -1.001746
     13          6           0        1.089897   -4.138211   -0.885492
     14          6           0        2.203135   -4.216634   -1.916520
     15          8           0        2.083631   -3.927658   -3.096613
     16          8           0        3.374084   -4.524012   -1.200642
     17          7           0       -2.941207    2.141914   -0.742959
     18          6           0       -1.556462    2.277901   -0.729508
     19          6           0       -1.320721    3.625647   -1.295355
     20          6           0       -2.559696    4.357605   -1.488540
     21          6           0       -3.622858    3.358336   -1.064957
     22          6           0        0.156896    4.231836   -1.407498
     23          6           0       -2.712126    5.792704   -1.933627
     24          8           0       -3.773313    6.300115   -2.102414
     25          6           0       -1.515123    6.656935   -2.224451
     26          7           0       -5.860416    1.417113   -0.144282
     27          6           0       -6.063669    2.626995   -0.555508
     28          6           0       -7.518603    2.993812   -0.697056
     29          6           0       -8.272013    1.725151   -0.186788
     30          6           0       -7.049084    0.785029    0.055551
     31          6           0       -7.929115    4.354479   -0.003135
     32          6           0       -9.373221    1.246072   -1.187315
     33          6           0       -8.943790    0.446097   -2.452903
     34          7           0       -5.060251   -1.345391    0.308965
     35          6           0       -6.380219   -1.521354    0.611301
     36          6           0       -6.569401   -2.932029    0.832380
     37          6           0       -5.214756   -3.507579    0.838103
     38          6           0       -4.385646   -2.474052    0.511455
     39          6           0       -7.889592   -3.548236    1.197281
     40          6           0       -4.457276   -4.736809    0.919338
     41          8           0       -4.845804   -5.894606    1.142805
     42          6           0       -2.967970   -4.310117    0.693686
     43          6           0       -2.194150   -4.743400    1.849383
     44          8           0       -2.181257   -4.290331    2.965281
     45          8           0       -1.272449   -5.660272    1.399986
     46          6           0       -0.116501   -5.727858    2.286464
     47          6           0        4.595100   -4.695261   -2.059632
     48          6           0        5.930284   -4.296719   -1.389713
     49          6           0        6.862050   -3.407149   -1.751691
     50          6           0        6.864908   -2.647618   -3.081877
     51          6           0        8.012862   -3.159039   -0.725439
     52          6           0        8.146633   -1.813594   -0.152016
     53          6           0        9.516056   -1.277938    0.155435
     54          6           0        9.996539   -0.150590   -0.834698
     55          6           0       11.147563   -0.670387   -1.715828
     56          6           0       10.316096    1.180256   -0.084778
     57          6           0        9.122810    2.159459   -0.149389
     58          6           0        8.356456    2.492220    1.173737
     59          6           0        7.310787    3.644198    0.978483
     60          6           0        7.860522    4.940873    0.485700
     61          6           0        6.365222    3.681737    2.119902
     62          6           0        4.952362    4.029087    1.691187
     63          6           0        4.088737    4.272045    2.956050
     64          6           0        2.540463    4.378291    2.701317
     65          6           0        1.907079    5.541695    3.405465
     66          6           0        1.874214    2.989158    2.974540
     67          1           0        0.471231    1.527119   -0.396297
     68          1           0       -5.475679    4.485085   -1.245623
     69          1           0       -8.366935   -0.838333    0.463185
     70          1           0       -0.259705   -3.056510    1.165051
     71          1           0        0.980287   -0.820240   -0.199610
     72          1           0        0.323632    0.141464    2.443474
     73          1           0        1.887873   -0.574178    2.090953
     74          1           0        0.581659   -1.644452    2.687000
     75          1           0        0.231060   -2.333293   -1.786564
     76          1           0       -0.885872   -3.623093   -1.350552
     77          1           0        0.648654   -5.134204   -0.854341
     78          1           0        1.535680   -3.994344    0.099621
     79          1           0        0.437441    4.610503   -2.390208
     80          1           0        0.974597    3.593845   -1.070895
     81          1           0        0.241758    5.069836   -0.715202
     82          1           0       -1.874895    7.618968   -2.589737
     83          1           0       -0.911048    6.287299   -3.053043
     84          1           0       -0.861676    6.710297   -1.353421
     85          1           0       -7.698113    3.110159   -1.765821
     86          1           0       -8.814606    2.094273    0.683765
     87          1           0       -7.708786    5.156544   -0.707827
     88          1           0       -7.396069    4.593148    0.917483
     89          1           0       -8.995542    4.290215    0.215631
     90          1           0       -9.996842    2.069876   -1.535090
     91          1           0      -10.041581    0.595405   -0.622810
     92          1           0       -8.992062    1.089915   -3.331455
     93          1           0       -9.665837   -0.364795   -2.543710
     94          1           0       -7.910568    0.108559   -2.372802
     95          1           0       -8.631362   -3.475136    0.401399
     96          1           0       -8.353563   -2.969446    1.994433
     97          1           0       -7.839889   -4.535374    1.656814
     98          1           0       -2.594412   -4.823177   -0.192702
     99          1           0        0.074250   -4.699036    2.590945
    100          1           0        0.616472   -5.982854    1.520361
    101          1           0       -0.197496   -6.425481    3.119494
    102          1           0        4.539199   -4.063324   -2.945907
    103          1           0        4.638927   -5.749670   -2.330402
    104          1           0        5.936724   -4.763611   -0.404708
    105          1           0        7.666824   -1.910305   -3.110737
    106          1           0        5.875325   -2.255118   -3.318260
    107          1           0        7.104782   -3.290245   -3.928478
    108          1           0        8.951533   -3.267153   -1.268743
    109          1           0        8.040435   -3.917062    0.057522
    110          1           0        7.608550   -1.820776    0.796541
    111          1           0        7.486341   -1.179413   -0.743015
    112          1           0       10.296668   -2.034554    0.089244
    113          1           0        9.471442   -0.891844    1.173627
    114          1           0        9.163019   -0.009141   -1.522597
    115          1           0       11.982327    0.003387   -1.527110
    116          1           0       10.858595   -0.723832   -2.765900
    117          1           0       11.509480   -1.654694   -1.420042
    118          1           0       11.166572    1.718115   -0.503237
    119          1           0       10.589788    1.019083    0.958094
    120          1           0        8.326743    1.787997   -0.794545
    121          1           0        9.421815    3.102192   -0.608636
    122          1           0        9.044758    2.703593    1.993204
    123          1           0        7.761233    1.601126    1.372374
    124          1           0        6.721717    3.299197    0.129307
    125          1           0        7.320050    5.807761    0.865097
    126          1           0        7.877706    4.900167   -0.603224
    127          1           0        8.878325    5.225100    0.754923
    128          1           0        6.639683    4.472284    2.818840
    129          1           0        6.313355    2.715316    2.622007
    130          1           0        4.503513    3.354165    0.962820
    131          1           0        5.013194    4.958695    1.123949
    132          1           0        4.433373    5.070214    3.612911
    133          1           0        4.246116    3.333285    3.487286
    134          1           0        2.341218    4.570586    1.646956
    135          1           0        0.906189    5.392010    3.808348
    136          1           0        1.875248    6.380554    2.710308
    137          1           0        2.530895    5.980585    4.184386
    138          1           0        2.507356    2.295505    2.421995
    139          1           0        0.871044    2.898572    2.557797
    140          1           0        1.824020    2.820581    4.050423
 ---------------------------------------------------------------------

 SCF Done:  E(RZINDO/S) =  -474.290970223     A.U. after   19 cycles

 Excitation energies and oscillator strengths:

 Excited State   1:      Singlet-A      1.4171 eV  874.93 nm  f=0.5239  <S**2>=0.000
     175 ->178         0.15623
     176 ->177         0.67357
 This state for optimization and/or second-order correction.
 Total Energy, E(CIS/TDA) =  -474.238893585
 Copying the excited state density for this state as the 1-particle RhoCI density.

 Excited State   2:      Singlet-A      1.9280 eV  643.08 nm  f=0.0718  <S**2>=0.000
     175 ->177         0.56203
     176 ->178        -0.38436

 Excited State   3:      Singlet-A      2.9647 eV  418.20 nm  f=0.0971  <S**2>=0.000
     167 ->177         0.17313
     167 ->179        -0.24473
     167 ->181         0.11619
     167 ->186        -0.13591
     168 ->177         0.28491
     168 ->179        -0.33284
     168 ->181         0.15042
     168 ->186        -0.18976
     175 ->177         0.11434
     176 ->178         0.18622

 Excited State   4:      Singlet-A      2.9917 eV  414.43 nm  f=0.7846  <S**2>=0.000
     168 ->179         0.13108
     170 ->177        -0.14531
     175 ->177         0.32398
     176 ->178         0.50350
     176 ->179        -0.12821
     176 ->181        -0.11846

 Excited State   5:      Singlet-A      3.0870 eV  401.64 nm  f=0.0076  <S**2>=0.000
     171 ->177         0.27113
     171 ->178        -0.18323
     171 ->179         0.25255
     171 ->180        -0.11817
     171 ->181         0.37933
     171 ->186         0.20686
     171 ->188         0.20079
     171 ->205        -0.13702

 The electronic state is 1-A.
 Alpha  occ. eigenvalues --   -1.85544  -1.82919  -1.78505  -1.75387  -1.70083
 Alpha  occ. eigenvalues --   -1.69029  -1.67152  -1.63034  -1.62448  -1.58411
 Alpha  occ. eigenvalues --   -1.56191  -1.51650  -1.48504  -1.47029  -1.46852
 Alpha  occ. eigenvalues --   -1.44230  -1.43937  -1.40312  -1.39906  -1.36863
 Alpha  occ. eigenvalues --   -1.35345  -1.34673  -1.31677  -1.31532  -1.28572
 Alpha  occ. eigenvalues --   -1.27810  -1.24981  -1.21903  -1.20334  -1.18557
 Alpha  occ. eigenvalues --   -1.17950  -1.16780  -1.16432  -1.15929  -1.14611
 Alpha  occ. eigenvalues --   -1.12219  -1.11307  -1.10672  -1.05157  -1.04010
 Alpha  occ. eigenvalues --   -1.02860  -1.01627  -0.98890  -0.98192  -0.97400
 Alpha  occ. eigenvalues --   -0.96930  -0.94010  -0.93828  -0.93302  -0.93131
 Alpha  occ. eigenvalues --   -0.91322  -0.89412  -0.88318  -0.87636  -0.86171
 Alpha  occ. eigenvalues --   -0.85488  -0.83736  -0.82952  -0.81516  -0.80830
 Alpha  occ. eigenvalues --   -0.80479  -0.79359  -0.78397  -0.76898  -0.76818
 Alpha  occ. eigenvalues --   -0.76336  -0.75472  -0.75028  -0.74758  -0.73843
 Alpha  occ. eigenvalues --   -0.73140  -0.72631  -0.72560  -0.72064  -0.71400
 Alpha  occ. eigenvalues --   -0.70498  -0.70149  -0.69708  -0.69394  -0.68534
 Alpha  occ. eigenvalues --   -0.67932  -0.67776  -0.67336  -0.67131  -0.66182
 Alpha  occ. eigenvalues --   -0.65366  -0.65243  -0.64891  -0.64273  -0.63568
 Alpha  occ. eigenvalues --   -0.62906  -0.62588  -0.62428  -0.62161  -0.61737
 Alpha  occ. eigenvalues --   -0.61199  -0.61143  -0.60823  -0.60373  -0.60230
 Alpha  occ. eigenvalues --   -0.59961  -0.59746  -0.59522  -0.59394  -0.59036
 Alpha  occ. eigenvalues --   -0.58248  -0.57478  -0.56927  -0.56516  -0.56416
 Alpha  occ. eigenvalues --   -0.56057  -0.55831  -0.55647  -0.55186  -0.55021
 Alpha  occ. eigenvalues --   -0.54258  -0.54078  -0.53735  -0.53116  -0.52908
 Alpha  occ. eigenvalues --   -0.52729  -0.52565  -0.52157  -0.51885  -0.51407
 Alpha  occ. eigenvalues --   -0.51194  -0.50913  -0.50776  -0.50649  -0.50403
 Alpha  occ. eigenvalues --   -0.50091  -0.49879  -0.49743  -0.49617  -0.49365
 Alpha  occ. eigenvalues --   -0.49159  -0.48945  -0.48697  -0.48381  -0.48347
 Alpha  occ. eigenvalues --   -0.48233  -0.48141  -0.47700  -0.47183  -0.47052
 Alpha  occ. eigenvalues --   -0.46768  -0.46569  -0.46296  -0.45723  -0.45429
 Alpha  occ. eigenvalues --   -0.45073  -0.44728  -0.44461  -0.44175  -0.44167
 Alpha  occ. eigenvalues --   -0.43919  -0.43902  -0.43159  -0.42706  -0.42567
 Alpha  occ. eigenvalues --   -0.42497  -0.41554  -0.41277  -0.39657  -0.38930
 Alpha  occ. eigenvalues --   -0.38010  -0.36988  -0.36315  -0.35022  -0.34214
 Alpha  occ. eigenvalues --   -0.33761  -0.33629  -0.32459  -0.30635  -0.26727
 Alpha  occ. eigenvalues --   -0.22481
 Alpha virt. eigenvalues --   -0.08492  -0.02314  -0.00918   0.01079   0.01378
 Alpha virt. eigenvalues --    0.01896   0.02873   0.03300   0.04135   0.04544
 Alpha virt. eigenvalues --    0.05253   0.06398   0.06995   0.07132   0.07669

 Mulliken charges:
               1
     1  Mg   0.426440
     2  C   -0.037294
     3  C   -0.098938
     4  C   -0.083012
     5  C   -0.045181
     6  N   -0.274931
     7  C    0.082840
     8  C    0.009665
     9  C    0.004588
    10  C    0.178699
    11  C   -0.046720
    12  C   -0.020086
    13  C   -0.003709
    14  C    0.470985
    15  O   -0.504353
    16  O   -0.276006
    17  N   -0.358103
    18  C    0.150578
    19  C    0.027333
    20  C   -0.029825
    21  C    0.152148
    22  C   -0.053372
    23  C    0.341146
    24  O   -0.496673
    25  C   -0.030881
    26  N   -0.245049
    27  C    0.204385
    28  C   -0.003275
    29  C   -0.012711
    30  C    0.085971
    31  C   -0.052011
    32  C   -0.032252
    33  C   -0.058241
    34  N   -0.316957
    35  C    0.050978
    36  C   -0.006927
    37  C   -0.070084
    38  C    0.113989
    39  C   -0.040817
    40  C    0.328932
    41  O   -0.541822
    42  C    0.061112
    43  C    0.498889
    44  O   -0.523655
    45  O   -0.284295
    46  C    0.070611
    47  C    0.092266
    48  C   -0.089728
    49  C    0.001406
    50  C   -0.040081
    51  C   -0.015852
    52  C   -0.021176
    53  C   -0.031820
    54  C   -0.015608
    55  C   -0.061194
    56  C   -0.028410
    57  C   -0.045007
    58  C   -0.037981
    59  C   -0.004021
    60  C   -0.049447
    61  C   -0.023343
    62  C   -0.034635
    63  C   -0.039411
    64  C   -0.011193
    65  C   -0.053576
    66  C   -0.057173
    67  H    0.031549
    68  H    0.039113
    69  H    0.032406
    70  H    0.037557
    71  H    0.029443
    72  H    0.029231
    73  H    0.023761
    74  H    0.037079
    75  H    0.036911
    76  H    0.025307
    77  H    0.049432
    78  H    0.029178
    79  H    0.034044
    80  H    0.024487
    81  H    0.026435
    82  H    0.038086
    83  H    0.033359
    84  H    0.039154
    85  H    0.035053
    86  H    0.031836
    87  H    0.023458
    88  H    0.027383
    89  H    0.022026
    90  H    0.016912
    91  H    0.012485
    92  H    0.016025
    93  H    0.024661
    94  H    0.028022
    95  H    0.027767
    96  H    0.014808
    97  H    0.032512
    98  H    0.053177
    99  H    0.041100
   100  H    0.022453
   101  H    0.060732
   102  H    0.047951
   103  H    0.045913
   104  H    0.023547
   105  H    0.023035
   106  H    0.034864
   107  H    0.026899
   108  H    0.014045
   109  H    0.023470
   110  H    0.003094
   111  H    0.020149
   112  H    0.024716
   113  H    0.017375
   114  H    0.020923
   115  H    0.018037
   116  H    0.021670
   117  H    0.018124
   118  H    0.016912
   119  H    0.021549
   120  H    0.014390
   121  H    0.015671
   122  H    0.023845
   123  H    0.014140
   124  H    0.008507
   125  H    0.015191
   126  H    0.016646
   127  H    0.014433
   128  H    0.019331
   129  H    0.017917
   130  H    0.023691
   131  H    0.007100
   132  H    0.029504
   133  H    0.011728
   134  H    0.011690
   135  H    0.021787
   136  H    0.007749
   137  H    0.015485
   138  H    0.015715
   139  H    0.013839
   140  H    0.026302
 Sum of Mulliken charges =  -0.00000

 Dipole moment (field-independent basis, Debye):
    X=              8.7952    Y=              8.1103    Z=             -2.9607  Tot=             12.3247
 N-N= 4.559345192426D+03 E-N= 0.000000000000D+00  KE=-9.792135730815D+03
 Leave Link  601 at Wed Apr 27 23:25:19 2022, MaxMem=  6710886400 cpu:               0.8 elap:               0.0
 (Enter /sw/apps/gaussian-16.0/g16/l9999.exe)
 1\1\GINC-BP1-COMPUTE070\SP\RZINDO CIS\STO-3G\C55H74Mg1N4O6\OF15641\27-
 Apr-2022\0\\#p ZINDO=(nstates=5)\\step_1351_chromophore_12 ZINDO\\0,1\
 Mg,0,47.136,15.795,28.866\C,0,45.102,15.459,31.584\C,0,49.135,18.05,30
 .829\C,0,49.117,16.272,26.131\C,0,44.819,14.22,26.847\N,0,46.998,16.79
 9,30.904\C,0,46.164,16.394,31.897\C,0,46.569,16.941,33.271\C,0,47.48,1
 8.102,32.841\C,0,47.863,17.695,31.414\C,0,46.824,19.554,32.915\C,0,47.
 218,15.845,34.158\C,0,46.933,16.01,35.696\C,0,48.045,15.816,36.713\O,0

 Normal termination of Gaussian 16 at Wed Apr 27 23:25:19 2022.
