 Gaussian 16, Revision A.03,
 Gaussian 16:  ES64L-G16RevA.03 25-Dec-2016

 ------------------------------
 #p blyp/Def2SVP td=(nstates=5)
 ------------------------------

 --------------------------------------------------
 step_1451_chromophore_8 TDDFT with blyp functional
 --------------------------------------------------
 Symbolic Z-matrix:
 Charge =  0 Multiplicity = 1

                         Standard orientation:
 ---------------------------------------------------------------------
 Center     Atomic      Atomic             Coordinates (Angstroms)
 Number     Number       Type             X           Y           Z
 ---------------------------------------------------------------------
      1         12           0       -4.769336   -1.214514    0.213644
      2          6           0       -3.587940    2.168461    1.045407
      3          6           0       -4.747240   -0.181106   -3.075213
      4          6           0       -4.974134   -4.459139   -0.622698
      5          6           0       -3.910397   -2.069360    3.515945
      6          7           0       -4.282375    0.821214   -0.812289
      7          6           0       -3.818439    2.061554   -0.365050
      8          6           0       -3.626898    3.134407   -1.577043
      9          6           0       -4.196555    2.321577   -2.832731
     10          6           0       -4.535672    0.939878   -2.206127
     11          6           0       -5.509312    2.972806   -3.435124
     12          6           0       -2.156395    3.585833   -1.834752
     13          6           0       -1.894710    5.033090   -1.487677
     14          6           0       -0.487202    5.507183   -1.883791
     15          8           0       -0.246264    6.039945   -2.946748
     16          8           0        0.442927    5.138199   -0.921605
     17          7           0       -5.003607   -2.214225   -1.629570
     18          6           0       -4.873240   -1.606109   -2.891317
     19          6           0       -4.948940   -2.619071   -3.894239
     20          6           0       -5.141734   -3.854901   -3.228673
     21          6           0       -4.979074   -3.593943   -1.768036
     22          6           0       -4.959874   -2.227491   -5.297115
     23          6           0       -5.346981   -5.154747   -3.890217
     24          8           0       -5.463455   -5.186761   -5.102151
     25          6           0       -5.445154   -6.447071   -3.161562
     26          7           0       -4.273685   -2.990552    1.186079
     27          6           0       -4.683650   -4.146673    0.697216
     28          6           0       -5.016493   -5.186342    1.822568
     29          6           0       -4.297423   -4.516078    3.066944
     30          6           0       -4.183715   -3.098596    2.582190
     31          6           0       -6.559192   -5.329835    2.015248
     32          6           0       -2.875223   -5.071900    3.528902
     33          6           0       -2.944203   -6.523026    4.034643
     34          7           0       -3.917833   -0.139986    2.001791
     35          6           0       -3.635086   -0.675639    3.247955
     36          6           0       -3.363869    0.426269    4.161505
     37          6           0       -3.258549    1.573897    3.312312
     38          6           0       -3.660330    1.174263    2.026158
     39          6           0       -3.072840    0.230744    5.668338
     40          6           0       -2.919268    2.972724    3.265146
     41          8           0       -2.637414    3.751930    4.218879
     42          6           0       -3.211243    3.403802    1.877014
     43          6           0       -4.217000    4.451642    1.949107
     44          8           0       -5.423574    4.319219    2.253957
     45          8           0       -3.725826    5.675406    1.513201
     46          6           0       -4.616029    6.827510    1.477863
     47          6           0        1.855678    5.503682   -1.161222
     48          6           0        2.646456    4.313342   -0.734188
     49          6           0        3.967682    4.363104   -0.428445
     50          6           0        4.891241    5.555805   -0.367433
     51          6           0        4.495488    3.121017    0.167854
     52          6           0        4.880037    1.992421   -0.807080
     53          6           0        4.598547    0.596543   -0.275182
     54          6           0        5.300887   -0.596806   -0.900467
     55          6           0        4.227272   -1.485894   -1.440981
     56          6           0        6.227264   -1.385589    0.097991
     57          6           0        7.642712   -1.466105   -0.536323
     58          6           0        8.791837   -1.394430    0.506578
     59          6           0       10.159751   -1.728954   -0.246597
     60          6           0       10.446296   -3.241669    0.042770
     61          6           0       11.414699   -0.858321    0.090100
     62          6           0       12.616448   -0.871280   -0.976459
     63          6           0       13.970651   -0.698722   -0.245731
     64          6           0       14.529210   -2.054934    0.257695
     65          6           0       15.778577   -2.603984   -0.376508
     66          6           0       14.601665   -2.056556    1.810986
     67          1           0       -4.774150    0.103261   -4.128662
     68          1           0       -5.275199   -5.485403   -0.843788
     69          1           0       -3.823854   -2.360303    4.565176
     70          1           0       -4.370287    3.901722   -1.362348
     71          1           0       -3.420144    2.301866   -3.596987
     72          1           0       -5.491044    4.017982   -3.124873
     73          1           0       -6.381994    2.411981   -3.104429
     74          1           0       -5.483982    2.976860   -4.524948
     75          1           0       -1.703717    3.395557   -2.807293
     76          1           0       -1.584696    2.968896   -1.141588
     77          1           0       -2.281609    5.278823   -0.499052
     78          1           0       -2.633234    5.551271   -2.098210
     79          1           0       -4.693741   -3.003495   -6.014749
     80          1           0       -4.149987   -1.501211   -5.365644
     81          1           0       -5.884813   -1.699965   -5.532399
     82          1           0       -6.376315   -6.471677   -2.595008
     83          1           0       -4.652202   -6.502712   -2.416567
     84          1           0       -5.363525   -7.300740   -3.834281
     85          1           0       -4.494369   -6.103220    1.546933
     86          1           0       -5.025324   -4.444888    3.875851
     87          1           0       -6.892468   -6.269067    1.573543
     88          1           0       -7.146970   -4.505073    1.611073
     89          1           0       -6.771845   -5.420617    3.080857
     90          1           0       -2.426910   -4.552537    4.376166
     91          1           0       -2.156081   -4.866940    2.735831
     92          1           0       -2.513162   -6.695434    5.020698
     93          1           0       -2.348273   -7.089444    3.318959
     94          1           0       -3.965541   -6.896429    4.112224
     95          1           0       -3.831403    0.887998    6.093150
     96          1           0       -2.045823    0.533091    5.877234
     97          1           0       -3.265759   -0.775905    6.039446
     98          1           0       -2.277810    3.788643    1.466885
     99          1           0       -4.018358    7.726701    1.332260
    100          1           0       -5.227276    7.025666    2.358236
    101          1           0       -5.353173    6.827102    0.674885
    102          1           0        2.007166    6.391786   -0.546180
    103          1           0        2.046878    5.874490   -2.167719
    104          1           0        2.101354    3.419372   -0.432191
    105          1           0        4.984617    5.941371    0.647330
    106          1           0        4.431962    6.394987   -0.889747
    107          1           0        5.890490    5.326196   -0.739263
    108          1           0        3.696758    2.860696    0.861591
    109          1           0        5.335783    3.446260    0.781566
    110          1           0        5.951636    1.968047   -1.004196
    111          1           0        4.586277    2.079921   -1.853217
    112          1           0        3.538689    0.592375   -0.529687
    113          1           0        4.733774    0.661562    0.804464
    114          1           0        5.779826   -0.267691   -1.823094
    115          1           0        3.295255   -1.392916   -0.883039
    116          1           0        4.581038   -2.515996   -1.394993
    117          1           0        4.009058   -1.216403   -2.474741
    118          1           0        5.754208   -2.348421    0.293291
    119          1           0        6.358953   -0.966901    1.096347
    120          1           0        7.765024   -0.590597   -1.174254
    121          1           0        7.765723   -2.400987   -1.081739
    122          1           0        8.585639   -2.028103    1.369659
    123          1           0        8.831676   -0.385831    0.917823
    124          1           0       10.105182   -1.515347   -1.314507
    125          1           0       11.474881   -3.381504    0.375798
    126          1           0       10.340793   -3.854090   -0.852056
    127          1           0        9.712406   -3.613502    0.757336
    128          1           0       11.763782   -1.034340    1.107571
    129          1           0       11.013588    0.152440    0.157937
    130          1           0       12.468539    0.036915   -1.561918
    131          1           0       12.589071   -1.850095   -1.455000
    132          1           0       13.750432    0.114904    0.445700
    133          1           0       14.637038   -0.245296   -0.979482
    134          1           0       13.837230   -2.870673    0.043125
    135          1           0       15.537979   -3.374499   -1.108962
    136          1           0       16.450446   -2.944693    0.411233
    137          1           0       16.378489   -1.844138   -0.878577
    138          1           0       15.587365   -2.302752    2.205709
    139          1           0       13.851965   -2.779925    2.130898
    140          1           0       14.247088   -1.117179    2.235845
 ---------------------------------------------------------------------

 SCF Done:  E(RB-LYP) =  -3007.34977519     A.U. after   22 cycles

 Excitation energies and oscillator strengths:

 Excited State   1:      Singlet-A      1.6064 eV  771.83 nm  f=0.0012  <S**2>=0.000
     244 -> 247        0.68443
     245 -> 247       -0.16858
 This state for optimization and/or second-order correction.
 Total Energy, E(TD-HF/TD-DFT) =  -3007.29074232
 Copying the excited state density for this state as the 1-particle RhoCI density.

 Excited State   2:      Singlet-A      1.7226 eV  719.74 nm  f=0.0154  <S**2>=0.000
     243 -> 247        0.63501
     245 -> 247        0.26130
     246 -> 247        0.11934

 Excited State   3:      Singlet-A      1.7905 eV  692.45 nm  f=0.2889  <S**2>=0.000
     245 -> 248        0.20009
     246 -> 247        0.67695
     246 <- 247       -0.14918

 Excited State   4:      Singlet-A      1.9362 eV  640.36 nm  f=0.0698  <S**2>=0.000
     240 -> 247        0.11053
     242 -> 247        0.10524
     243 -> 247       -0.28346
     244 -> 247        0.12696
     245 -> 247        0.56827
     246 -> 248       -0.22383

 Excited State   5:      Singlet-A      1.9545 eV  634.35 nm  f=0.0022  <S**2>=0.000
     242 -> 247        0.69901

 The electronic state is 1-A.
 Alpha  occ. eigenvalues --  -46.29400 -18.82577 -18.81836 -18.77016 -18.76542
 Alpha  occ. eigenvalues --  -18.75115 -18.74614 -14.04521 -14.03732 -14.01602
 Alpha  occ. eigenvalues --  -14.00669 -10.04304 -10.04133  -9.99129  -9.98959
 Alpha  occ. eigenvalues --   -9.98064  -9.97721  -9.97641  -9.97589  -9.96993
 Alpha  occ. eigenvalues --   -9.96943  -9.96784  -9.95898  -9.95734  -9.95697
 Alpha  occ. eigenvalues --   -9.95021  -9.94903  -9.94578  -9.94376  -9.94329
 Alpha  occ. eigenvalues --   -9.94157  -9.93967  -9.93925  -9.93622  -9.93622
 Alpha  occ. eigenvalues --   -9.93550  -9.93535  -9.93512  -9.93164  -9.92980
 Alpha  occ. eigenvalues --   -9.92839  -9.92752  -9.92667  -9.92645  -9.92355
 Alpha  occ. eigenvalues --   -9.92290  -9.91955  -9.91866  -9.91736  -9.91602
 Alpha  occ. eigenvalues --   -9.91550  -9.91409  -9.91406  -9.91349  -9.91258
 Alpha  occ. eigenvalues --   -9.91249  -9.91234  -9.91199  -9.91086  -9.91021
 Alpha  occ. eigenvalues --   -9.90798  -9.90621  -9.90567  -9.90431  -9.90423
 Alpha  occ. eigenvalues --   -9.90159  -2.93710  -1.74103  -1.73621  -1.73417
 Alpha  occ. eigenvalues --   -0.97067  -0.97058  -0.91440  -0.90123  -0.89280
 Alpha  occ. eigenvalues --   -0.88342  -0.86958  -0.85679  -0.84536  -0.83702
 Alpha  occ. eigenvalues --   -0.76322  -0.74169  -0.73031  -0.72771  -0.72730
 Alpha  occ. eigenvalues --   -0.72216  -0.71811  -0.70673  -0.70609  -0.70233
 Alpha  occ. eigenvalues --   -0.69146  -0.68946  -0.68079  -0.67964  -0.67392
 Alpha  occ. eigenvalues --   -0.66768  -0.66407  -0.65448  -0.65253  -0.64460
 Alpha  occ. eigenvalues --   -0.64239  -0.62685  -0.62335  -0.61885  -0.61115
 Alpha  occ. eigenvalues --   -0.60999  -0.60077  -0.60001  -0.59047  -0.58719
 Alpha  occ. eigenvalues --   -0.57876  -0.57386  -0.56976  -0.55311  -0.55162
 Alpha  occ. eigenvalues --   -0.54191  -0.53238  -0.53002  -0.52197  -0.51941
 Alpha  occ. eigenvalues --   -0.51518  -0.50990  -0.50949  -0.50555  -0.49916
 Alpha  occ. eigenvalues --   -0.49776  -0.49286  -0.48838  -0.48662  -0.46455
 Alpha  occ. eigenvalues --   -0.46281  -0.45829  -0.45597  -0.45506  -0.45396
 Alpha  occ. eigenvalues --   -0.44114  -0.43843  -0.43294  -0.42308  -0.42253
 Alpha  occ. eigenvalues --   -0.41972  -0.41816  -0.41590  -0.41260  -0.41122
 Alpha  occ. eigenvalues --   -0.40854  -0.40690  -0.40123  -0.39975  -0.39841
 Alpha  occ. eigenvalues --   -0.39706  -0.39644  -0.39418  -0.39289  -0.39049
 Alpha  occ. eigenvalues --   -0.38942  -0.38687  -0.38491  -0.38464  -0.38178
 Alpha  occ. eigenvalues --   -0.38071  -0.38027  -0.37841  -0.37777  -0.37737
 Alpha  occ. eigenvalues --   -0.37328  -0.37153  -0.36782  -0.36654  -0.36421
 Alpha  occ. eigenvalues --   -0.36220  -0.36133  -0.36023  -0.35576  -0.35553
 Alpha  occ. eigenvalues --   -0.35432  -0.35214  -0.35037  -0.34949  -0.34745
 Alpha  occ. eigenvalues --   -0.34699  -0.34502  -0.34336  -0.34093  -0.33968
 Alpha  occ. eigenvalues --   -0.33915  -0.33831  -0.33448  -0.33152  -0.33020
 Alpha  occ. eigenvalues --   -0.32954  -0.32551  -0.32431  -0.32294  -0.32173
 Alpha  occ. eigenvalues --   -0.32005  -0.31831  -0.31558  -0.31447  -0.31351
 Alpha  occ. eigenvalues --   -0.31198  -0.31081  -0.30923  -0.30893  -0.30568
 Alpha  occ. eigenvalues --   -0.30470  -0.30344  -0.30128  -0.30098  -0.29877
 Alpha  occ. eigenvalues --   -0.29772  -0.29533  -0.29298  -0.29156  -0.29088
 Alpha  occ. eigenvalues --   -0.29065  -0.28902  -0.28128  -0.28021  -0.27701
 Alpha  occ. eigenvalues --   -0.27672  -0.27416  -0.27043  -0.26450  -0.26339
 Alpha  occ. eigenvalues --   -0.26284  -0.25978  -0.25660  -0.25339  -0.24975
 Alpha  occ. eigenvalues --   -0.24925  -0.24867  -0.24729  -0.23867  -0.23657
 Alpha  occ. eigenvalues --   -0.23526  -0.22538  -0.22025  -0.21519  -0.20387
 Alpha  occ. eigenvalues --   -0.20118  -0.19393  -0.18480  -0.18063  -0.17549
 Alpha  occ. eigenvalues --   -0.16416
 Alpha virt. eigenvalues --   -0.12213  -0.07312  -0.06662  -0.05019  -0.04509
 Alpha virt. eigenvalues --   -0.03380  -0.03014  -0.02488  -0.02293   0.00074
 Alpha virt. eigenvalues --    0.01152   0.01819   0.02128   0.02444   0.02968

 Mulliken charges:
               1
     1  Mg   0.680317
     2  C    0.000087
     3  C   -0.034283
     4  C   -0.045211
     5  C   -0.050687
     6  N   -0.223900
     7  C   -0.112531
     8  C    0.099114
     9  C   -0.076771
    10  C    0.050744
    11  C    0.115476
    12  C    0.111585
    13  C    0.119768
    14  C    0.093032
    15  O   -0.176815
    16  O   -0.293858
    17  N   -0.328032
    18  C    0.117190
    19  C   -0.116535
    20  C    0.054231
    21  C    0.117614
    22  C    0.193246
    23  C   -0.127795
    24  O   -0.164593
    25  C    0.151042
    26  N   -0.238946
    27  C    0.020954
    28  C    0.002027
    29  C    0.040508
    30  C    0.025046
    31  C    0.131596
    32  C    0.089416
    33  C    0.068541
    34  N   -0.210863
    35  C    0.084053
    36  C   -0.187327
    37  C    0.099447
    38  C    0.066978
    39  C    0.170016
    40  C   -0.083054
    41  O   -0.175971
    42  C    0.127992
    43  C    0.132672
    44  O   -0.207657
    45  O   -0.267960
    46  C    0.227236
    47  C    0.300712
    48  C   -0.087033
    49  C   -0.176960
    50  C    0.150333
    51  C    0.159021
    52  C    0.084535
    53  C    0.090882
    54  C   -0.059591
    55  C    0.105367
    56  C    0.145231
    57  C    0.033051
    58  C    0.095655
    59  C   -0.073473
    60  C    0.113595
    61  C    0.049132
    62  C    0.065557
    63  C    0.118440
    64  C   -0.091318
    65  C    0.116411
    66  C    0.097796
    67  H   -0.060198
    68  H   -0.079062
    69  H   -0.055792
    70  H   -0.019136
    71  H   -0.007038
    72  H   -0.005705
    73  H    0.007793
    74  H   -0.003594
    75  H   -0.006887
    76  H   -0.012626
    77  H   -0.002353
    78  H   -0.030480
    79  H    0.005650
    80  H   -0.015120
    81  H    0.008576
    82  H    0.012192
    83  H    0.001228
    84  H   -0.005954
    85  H   -0.027208
    86  H   -0.036223
    87  H   -0.002089
    88  H    0.007824
    89  H   -0.007282
    90  H   -0.021353
    91  H   -0.014310
    92  H   -0.008231
    93  H   -0.001695
    94  H   -0.005386
    95  H    0.016211
    96  H    0.024661
    97  H   -0.019730
    98  H   -0.000930
    99  H    0.009547
   100  H    0.016101
   101  H    0.000462
   102  H   -0.003745
   103  H    0.011363
   104  H   -0.020490
   105  H    0.006695
   106  H   -0.020956
   107  H    0.003164
   108  H   -0.017273
   109  H   -0.046232
   110  H   -0.058163
   111  H   -0.038808
   112  H   -0.036076
   113  H   -0.030395
   114  H   -0.034969
   115  H   -0.017479
   116  H   -0.027376
   117  H   -0.023703
   118  H   -0.038216
   119  H   -0.035367
   120  H   -0.013743
   121  H   -0.022857
   122  H   -0.026586
   123  H   -0.045816
   124  H   -0.033069
   125  H   -0.016664
   126  H   -0.021133
   127  H   -0.017788
   128  H   -0.039186
   129  H   -0.047415
   130  H   -0.026018
   131  H   -0.018689
   132  H   -0.027484
   133  H   -0.046080
   134  H   -0.024797
   135  H   -0.008930
   136  H   -0.025309
   137  H   -0.025806
   138  H   -0.014366
   139  H   -0.017721
   140  H   -0.018861
 Sum of Mulliken charges =  -0.00000

 Dipole moment (field-independent basis, Debye):
    X=              0.4760    Y=             -2.7273    Z=              1.4356  Tot=              3.1186
 Quadrupole moment (field-independent basis, Debye-Ang):
   XX=           -388.9585   YY=           -396.8950   ZZ=           -433.5612
   XY=             13.4088   XZ=             -8.4763   YZ=            -38.2779

 Normal termination of Gaussian 16 at Thu Apr 28 06:48:08 2022.
