 Gaussian 16, Revision A.03,
 Gaussian 16:  ES64L-G16RevA.03 25-Dec-2016

 -----------------------------------
 #p cam-b3lyp/Def2SVP td=(nstates=5)
 -----------------------------------

 -------------------------------------------------------
 step_1451_chromophore_8 TDDFT with cam-b3lyp functional
 -------------------------------------------------------
 Symbolic Z-matrix:
 Charge =  0 Multiplicity = 1

                         Standard orientation:
 ---------------------------------------------------------------------
 Center     Atomic      Atomic             Coordinates (Angstroms)
 Number     Number       Type             X           Y           Z
 ---------------------------------------------------------------------
      1         12           0       -4.769336   -1.214514    0.213644
      2          6           0       -3.587940    2.168461    1.045407
      3          6           0       -4.747240   -0.181106   -3.075213
      4          6           0       -4.974134   -4.459139   -0.622698
      5          6           0       -3.910397   -2.069360    3.515945
      6          7           0       -4.282375    0.821214   -0.812289
      7          6           0       -3.818439    2.061554   -0.365050
      8          6           0       -3.626898    3.134407   -1.577043
      9          6           0       -4.196555    2.321577   -2.832731
     10          6           0       -4.535672    0.939878   -2.206127
     11          6           0       -5.509312    2.972806   -3.435124
     12          6           0       -2.156395    3.585833   -1.834752
     13          6           0       -1.894710    5.033090   -1.487677
     14          6           0       -0.487202    5.507183   -1.883791
     15          8           0       -0.246264    6.039945   -2.946748
     16          8           0        0.442927    5.138199   -0.921605
     17          7           0       -5.003607   -2.214225   -1.629570
     18          6           0       -4.873240   -1.606109   -2.891317
     19          6           0       -4.948940   -2.619071   -3.894239
     20          6           0       -5.141734   -3.854901   -3.228673
     21          6           0       -4.979074   -3.593943   -1.768036
     22          6           0       -4.959874   -2.227491   -5.297115
     23          6           0       -5.346981   -5.154747   -3.890217
     24          8           0       -5.463455   -5.186761   -5.102151
     25          6           0       -5.445154   -6.447071   -3.161562
     26          7           0       -4.273685   -2.990552    1.186079
     27          6           0       -4.683650   -4.146673    0.697216
     28          6           0       -5.016493   -5.186342    1.822568
     29          6           0       -4.297423   -4.516078    3.066944
     30          6           0       -4.183715   -3.098596    2.582190
     31          6           0       -6.559192   -5.329835    2.015248
     32          6           0       -2.875223   -5.071900    3.528902
     33          6           0       -2.944203   -6.523026    4.034643
     34          7           0       -3.917833   -0.139986    2.001791
     35          6           0       -3.635086   -0.675639    3.247955
     36          6           0       -3.363869    0.426269    4.161505
     37          6           0       -3.258549    1.573897    3.312312
     38          6           0       -3.660330    1.174263    2.026158
     39          6           0       -3.072840    0.230744    5.668338
     40          6           0       -2.919268    2.972724    3.265146
     41          8           0       -2.637414    3.751930    4.218879
     42          6           0       -3.211243    3.403802    1.877014
     43          6           0       -4.217000    4.451642    1.949107
     44          8           0       -5.423574    4.319219    2.253957
     45          8           0       -3.725826    5.675406    1.513201
     46          6           0       -4.616029    6.827510    1.477863
     47          6           0        1.855678    5.503682   -1.161222
     48          6           0        2.646456    4.313342   -0.734188
     49          6           0        3.967682    4.363104   -0.428445
     50          6           0        4.891241    5.555805   -0.367433
     51          6           0        4.495488    3.121017    0.167854
     52          6           0        4.880037    1.992421   -0.807080
     53          6           0        4.598547    0.596543   -0.275182
     54          6           0        5.300887   -0.596806   -0.900467
     55          6           0        4.227272   -1.485894   -1.440981
     56          6           0        6.227264   -1.385589    0.097991
     57          6           0        7.642712   -1.466105   -0.536323
     58          6           0        8.791837   -1.394430    0.506578
     59          6           0       10.159751   -1.728954   -0.246597
     60          6           0       10.446296   -3.241669    0.042770
     61          6           0       11.414699   -0.858321    0.090100
     62          6           0       12.616448   -0.871280   -0.976459
     63          6           0       13.970651   -0.698722   -0.245731
     64          6           0       14.529210   -2.054934    0.257695
     65          6           0       15.778577   -2.603984   -0.376508
     66          6           0       14.601665   -2.056556    1.810986
     67          1           0       -4.774150    0.103261   -4.128662
     68          1           0       -5.275199   -5.485403   -0.843788
     69          1           0       -3.823854   -2.360303    4.565176
     70          1           0       -4.370287    3.901722   -1.362348
     71          1           0       -3.420144    2.301866   -3.596987
     72          1           0       -5.491044    4.017982   -3.124873
     73          1           0       -6.381994    2.411981   -3.104429
     74          1           0       -5.483982    2.976860   -4.524948
     75          1           0       -1.703717    3.395557   -2.807293
     76          1           0       -1.584696    2.968896   -1.141588
     77          1           0       -2.281609    5.278823   -0.499052
     78          1           0       -2.633234    5.551271   -2.098210
     79          1           0       -4.693741   -3.003495   -6.014749
     80          1           0       -4.149987   -1.501211   -5.365644
     81          1           0       -5.884813   -1.699965   -5.532399
     82          1           0       -6.376315   -6.471677   -2.595008
     83          1           0       -4.652202   -6.502712   -2.416567
     84          1           0       -5.363525   -7.300740   -3.834281
     85          1           0       -4.494369   -6.103220    1.546933
     86          1           0       -5.025324   -4.444888    3.875851
     87          1           0       -6.892468   -6.269067    1.573543
     88          1           0       -7.146970   -4.505073    1.611073
     89          1           0       -6.771845   -5.420617    3.080857
     90          1           0       -2.426910   -4.552537    4.376166
     91          1           0       -2.156081   -4.866940    2.735831
     92          1           0       -2.513162   -6.695434    5.020698
     93          1           0       -2.348273   -7.089444    3.318959
     94          1           0       -3.965541   -6.896429    4.112224
     95          1           0       -3.831403    0.887998    6.093150
     96          1           0       -2.045823    0.533091    5.877234
     97          1           0       -3.265759   -0.775905    6.039446
     98          1           0       -2.277810    3.788643    1.466885
     99          1           0       -4.018358    7.726701    1.332260
    100          1           0       -5.227276    7.025666    2.358236
    101          1           0       -5.353173    6.827102    0.674885
    102          1           0        2.007166    6.391786   -0.546180
    103          1           0        2.046878    5.874490   -2.167719
    104          1           0        2.101354    3.419372   -0.432191
    105          1           0        4.984617    5.941371    0.647330
    106          1           0        4.431962    6.394987   -0.889747
    107          1           0        5.890490    5.326196   -0.739263
    108          1           0        3.696758    2.860696    0.861591
    109          1           0        5.335783    3.446260    0.781566
    110          1           0        5.951636    1.968047   -1.004196
    111          1           0        4.586277    2.079921   -1.853217
    112          1           0        3.538689    0.592375   -0.529687
    113          1           0        4.733774    0.661562    0.804464
    114          1           0        5.779826   -0.267691   -1.823094
    115          1           0        3.295255   -1.392916   -0.883039
    116          1           0        4.581038   -2.515996   -1.394993
    117          1           0        4.009058   -1.216403   -2.474741
    118          1           0        5.754208   -2.348421    0.293291
    119          1           0        6.358953   -0.966901    1.096347
    120          1           0        7.765024   -0.590597   -1.174254
    121          1           0        7.765723   -2.400987   -1.081739
    122          1           0        8.585639   -2.028103    1.369659
    123          1           0        8.831676   -0.385831    0.917823
    124          1           0       10.105182   -1.515347   -1.314507
    125          1           0       11.474881   -3.381504    0.375798
    126          1           0       10.340793   -3.854090   -0.852056
    127          1           0        9.712406   -3.613502    0.757336
    128          1           0       11.763782   -1.034340    1.107571
    129          1           0       11.013588    0.152440    0.157937
    130          1           0       12.468539    0.036915   -1.561918
    131          1           0       12.589071   -1.850095   -1.455000
    132          1           0       13.750432    0.114904    0.445700
    133          1           0       14.637038   -0.245296   -0.979482
    134          1           0       13.837230   -2.870673    0.043125
    135          1           0       15.537979   -3.374499   -1.108962
    136          1           0       16.450446   -2.944693    0.411233
    137          1           0       16.378489   -1.844138   -0.878577
    138          1           0       15.587365   -2.302752    2.205709
    139          1           0       13.851965   -2.779925    2.130898
    140          1           0       14.247088   -1.117179    2.235845
 ---------------------------------------------------------------------

 SCF Done:  E(RCAM-B3LYP) =  -3007.12893565     A.U. after   17 cycles

 Excitation energies and oscillator strengths:

 Excited State   1:      Singlet-A      1.6744 eV  740.49 nm  f=0.3792  <S**2>=0.000
     245 -> 248        0.18414
     246 -> 247        0.68537
     245 <- 248        0.11031
 This state for optimization and/or second-order correction.
 Total Energy, E(TD-HF/TD-DFT) =  -3007.06740425
 Copying the excited state density for this state as the 1-particle RhoCI density.

 Excited State   2:      Singlet-A      2.1371 eV  580.14 nm  f=0.1176  <S**2>=0.000
     245 -> 247        0.64805
     246 -> 248       -0.26624

 Excited State   3:      Singlet-A      3.1371 eV  395.21 nm  f=0.0006  <S**2>=0.000
     242 -> 247       -0.42312
     243 -> 247        0.54794

 Excited State   4:      Singlet-A      3.2359 eV  383.15 nm  f=0.0101  <S**2>=0.000
     242 -> 247        0.52166
     243 -> 247        0.40630
     246 -> 248        0.17180

 Excited State   5:      Singlet-A      3.3303 eV  372.29 nm  f=0.0050  <S**2>=0.000
     240 -> 247        0.55872
     240 -> 249        0.30602
     240 -> 251        0.17269
     246 -> 248       -0.12724

 The electronic state is 1-A.
 Alpha  occ. eigenvalues --  -46.91126 -19.25557 -19.24672 -19.20048 -19.19661
 Alpha  occ. eigenvalues --  -19.18274 -19.17906 -14.43790 -14.42414 -14.40197
 Alpha  occ. eigenvalues --  -14.38975 -10.39845 -10.39502 -10.34429 -10.34139
 Alpha  occ. eigenvalues --  -10.32637 -10.32414 -10.31703 -10.31649 -10.31631
 Alpha  occ. eigenvalues --  -10.31606 -10.31250 -10.30477 -10.29982 -10.29787
 Alpha  occ. eigenvalues --  -10.29223 -10.29092 -10.28934 -10.28448 -10.28431
 Alpha  occ. eigenvalues --  -10.28424 -10.28379 -10.28278 -10.28209 -10.27565
 Alpha  occ. eigenvalues --  -10.27435 -10.27289 -10.27246 -10.27156 -10.27148
 Alpha  occ. eigenvalues --  -10.26833 -10.26831 -10.26393 -10.26321 -10.26292
 Alpha  occ. eigenvalues --  -10.25965 -10.25912 -10.25731 -10.25544 -10.25406
 Alpha  occ. eigenvalues --  -10.25269 -10.25251 -10.25154 -10.25057 -10.25028
 Alpha  occ. eigenvalues --  -10.24952 -10.24895 -10.24883 -10.24697 -10.24670
 Alpha  occ. eigenvalues --  -10.24525 -10.24170 -10.24156 -10.24020 -10.23989
 Alpha  occ. eigenvalues --  -10.23672  -3.19321  -1.94195  -1.93796  -1.93597
 Alpha  occ. eigenvalues --   -1.15562  -1.15530  -1.09952  -1.08000  -1.07541
 Alpha  occ. eigenvalues --   -1.06298  -1.04612  -1.03174  -1.02285  -1.01331
 Alpha  occ. eigenvalues --   -0.93500  -0.91065  -0.89861  -0.89520  -0.89472
 Alpha  occ. eigenvalues --   -0.88932  -0.88518  -0.87246  -0.87178  -0.86938
 Alpha  occ. eigenvalues --   -0.85619  -0.85323  -0.84325  -0.84094  -0.83582
 Alpha  occ. eigenvalues --   -0.82859  -0.82607  -0.81355  -0.81063  -0.80402
 Alpha  occ. eigenvalues --   -0.80036  -0.78175  -0.78049  -0.77615  -0.76511
 Alpha  occ. eigenvalues --   -0.76372  -0.75426  -0.75309  -0.74311  -0.73928
 Alpha  occ. eigenvalues --   -0.72880  -0.72339  -0.71892  -0.70134  -0.69725
 Alpha  occ. eigenvalues --   -0.68827  -0.67744  -0.67568  -0.66568  -0.65945
 Alpha  occ. eigenvalues --   -0.65748  -0.65125  -0.65044  -0.64605  -0.63816
 Alpha  occ. eigenvalues --   -0.63701  -0.63222  -0.62577  -0.62504  -0.60039
 Alpha  occ. eigenvalues --   -0.59908  -0.59439  -0.59171  -0.58969  -0.58904
 Alpha  occ. eigenvalues --   -0.57613  -0.57185  -0.56577  -0.55476  -0.55258
 Alpha  occ. eigenvalues --   -0.54894  -0.54766  -0.54557  -0.54090  -0.53999
 Alpha  occ. eigenvalues --   -0.53923  -0.53347  -0.53105  -0.52746  -0.52661
 Alpha  occ. eigenvalues --   -0.52331  -0.52153  -0.52098  -0.51685  -0.51619
 Alpha  occ. eigenvalues --   -0.51571  -0.51261  -0.51077  -0.51029  -0.50597
 Alpha  occ. eigenvalues --   -0.50414  -0.50327  -0.50126  -0.50021  -0.49958
 Alpha  occ. eigenvalues --   -0.49471  -0.49407  -0.49334  -0.49177  -0.48752
 Alpha  occ. eigenvalues --   -0.48549  -0.48377  -0.48199  -0.48044  -0.47544
 Alpha  occ. eigenvalues --   -0.47469  -0.47370  -0.47127  -0.46929  -0.46701
 Alpha  occ. eigenvalues --   -0.46432  -0.46334  -0.46143  -0.45960  -0.45946
 Alpha  occ. eigenvalues --   -0.45657  -0.45577  -0.45118  -0.44804  -0.44641
 Alpha  occ. eigenvalues --   -0.44584  -0.44234  -0.44179  -0.44061  -0.43881
 Alpha  occ. eigenvalues --   -0.43612  -0.43461  -0.43193  -0.42915  -0.42843
 Alpha  occ. eigenvalues --   -0.42767  -0.42581  -0.42483  -0.42194  -0.42134
 Alpha  occ. eigenvalues --   -0.42063  -0.41901  -0.41746  -0.41506  -0.41109
 Alpha  occ. eigenvalues --   -0.41039  -0.40884  -0.40671  -0.40381  -0.40232
 Alpha  occ. eigenvalues --   -0.40207  -0.39882  -0.39262  -0.39075  -0.38585
 Alpha  occ. eigenvalues --   -0.38581  -0.38235  -0.37820  -0.37570  -0.37231
 Alpha  occ. eigenvalues --   -0.37092  -0.36837  -0.36438  -0.36317  -0.36078
 Alpha  occ. eigenvalues --   -0.35972  -0.35554  -0.35312  -0.34652  -0.34248
 Alpha  occ. eigenvalues --   -0.34074  -0.33835  -0.33166  -0.31594  -0.30826
 Alpha  occ. eigenvalues --   -0.30640  -0.29834  -0.29157  -0.28944  -0.24383
 Alpha  occ. eigenvalues --   -0.21784
 Alpha virt. eigenvalues --   -0.09463  -0.02262  -0.00221   0.00497   0.01976
 Alpha virt. eigenvalues --    0.04148   0.04427   0.04912   0.05515   0.07148
 Alpha virt. eigenvalues --    0.07748   0.08159   0.08689   0.08917   0.09122

 Mulliken charges:
               1
     1  Mg   0.806654
     2  C   -0.021900
     3  C   -0.048296
     4  C   -0.073045
     5  C   -0.063213
     6  N   -0.282295
     7  C   -0.075737
     8  C    0.051345
     9  C   -0.123245
    10  C    0.065797
    11  C    0.061122
    12  C    0.057952
    13  C    0.052916
    14  C    0.173241
    15  O   -0.218172
    16  O   -0.359080
    17  N   -0.411821
    18  C    0.125086
    19  C   -0.116671
    20  C   -0.015333
    21  C    0.151147
    22  C    0.127749
    23  C   -0.048931
    24  O   -0.206149
    25  C    0.065595
    26  N   -0.312791
    27  C    0.048826
    28  C   -0.056752
    29  C   -0.020327
    30  C    0.043150
    31  C    0.076430
    32  C    0.038592
    33  C    0.004701
    34  N   -0.294810
    35  C    0.090401
    36  C   -0.183553
    37  C    0.019694
    38  C    0.103852
    39  C    0.122084
    40  C    0.019092
    41  O   -0.215131
    42  C    0.039300
    43  C    0.224081
    44  O   -0.243939
    45  O   -0.334563
    46  C    0.187618
    47  C    0.268121
    48  C   -0.108215
    49  C   -0.193335
    50  C    0.087253
    51  C    0.088341
    52  C    0.033888
    53  C    0.040941
    54  C   -0.127130
    55  C    0.049321
    56  C    0.091040
    57  C   -0.014658
    58  C    0.041619
    59  C   -0.129802
    60  C    0.057341
    61  C    0.005934
    62  C    0.010522
    63  C    0.061410
    64  C   -0.155099
    65  C    0.060071
    66  C    0.040947
    67  H   -0.023860
    68  H   -0.043790
    69  H   -0.022794
    70  H    0.014341
    71  H    0.027200
    72  H    0.017765
    73  H    0.033265
    74  H    0.020786
    75  H    0.024108
    76  H    0.018018
    77  H    0.028150
    78  H    0.002802
    79  H    0.039400
    80  H    0.011347
    81  H    0.037226
    82  H    0.039783
    83  H    0.028650
    84  H    0.030617
    85  H    0.008103
    86  H   -0.000158
    87  H    0.021603
    88  H    0.031909
    89  H    0.016790
    90  H    0.008090
    91  H    0.014448
    92  H    0.016443
    93  H    0.020405
    94  H    0.016352
    95  H    0.040567
    96  H    0.048062
    97  H    0.003944
    98  H    0.044455
    99  H    0.032834
   100  H    0.040591
   101  H    0.021926
   102  H    0.023199
   103  H    0.043121
   104  H    0.012887
   105  H    0.031830
   106  H    0.003049
   107  H    0.027630
   108  H    0.013783
   109  H   -0.013960
   110  H   -0.029532
   111  H   -0.009101
   112  H   -0.008040
   113  H   -0.002183
   114  H   -0.002424
   115  H    0.007906
   116  H   -0.002779
   117  H    0.001308
   118  H   -0.008377
   119  H   -0.006328
   120  H    0.011538
   121  H    0.003093
   122  H    0.001113
   123  H   -0.016769
   124  H   -0.001742
   125  H    0.002848
   126  H    0.003057
   127  H    0.006447
   128  H   -0.013569
   129  H   -0.018608
   130  H    0.003866
   131  H    0.006849
   132  H    0.000472
   133  H   -0.014909
   134  H    0.004516
   135  H    0.014254
   136  H   -0.000629
   137  H   -0.001519
   138  H    0.009695
   139  H    0.004858
   140  H    0.004593
 Sum of Mulliken charges =  -0.00000

 Dipole moment (field-independent basis, Debye):
    X=              0.2610    Y=             -2.9376    Z=              0.8838  Tot=              3.0788
 Quadrupole moment (field-independent basis, Debye-Ang):
   XX=           -387.5831   YY=           -392.7443   ZZ=           -433.1778
   XY=             15.3111   XZ=             -5.5929   YZ=            -38.6751

 Normal termination of Gaussian 16 at Thu Apr 28 05:56:19 2022.
