 Gaussian 16, Revision A.03,
 Gaussian 16:  ES64L-G16RevA.03 25-Dec-2016

 ---------------------------------
 #p PBE1PBE/Def2SVP td=(nstates=5)
 ---------------------------------

 -----------------------------------------------------
 step_1451_chromophore_8 TDDFT with PBE1PBE functional
 -----------------------------------------------------
 Symbolic Z-matrix:
 Charge =  0 Multiplicity = 1

                         Standard orientation:
 ---------------------------------------------------------------------
 Center     Atomic      Atomic             Coordinates (Angstroms)
 Number     Number       Type             X           Y           Z
 ---------------------------------------------------------------------
      1         12           0       -4.769336   -1.214514    0.213644
      2          6           0       -3.587940    2.168461    1.045407
      3          6           0       -4.747240   -0.181106   -3.075213
      4          6           0       -4.974134   -4.459139   -0.622698
      5          6           0       -3.910397   -2.069360    3.515945
      6          7           0       -4.282375    0.821214   -0.812289
      7          6           0       -3.818439    2.061554   -0.365050
      8          6           0       -3.626898    3.134407   -1.577043
      9          6           0       -4.196555    2.321577   -2.832731
     10          6           0       -4.535672    0.939878   -2.206127
     11          6           0       -5.509312    2.972806   -3.435124
     12          6           0       -2.156395    3.585833   -1.834752
     13          6           0       -1.894710    5.033090   -1.487677
     14          6           0       -0.487202    5.507183   -1.883791
     15          8           0       -0.246264    6.039945   -2.946748
     16          8           0        0.442927    5.138199   -0.921605
     17          7           0       -5.003607   -2.214225   -1.629570
     18          6           0       -4.873240   -1.606109   -2.891317
     19          6           0       -4.948940   -2.619071   -3.894239
     20          6           0       -5.141734   -3.854901   -3.228673
     21          6           0       -4.979074   -3.593943   -1.768036
     22          6           0       -4.959874   -2.227491   -5.297115
     23          6           0       -5.346981   -5.154747   -3.890217
     24          8           0       -5.463455   -5.186761   -5.102151
     25          6           0       -5.445154   -6.447071   -3.161562
     26          7           0       -4.273685   -2.990552    1.186079
     27          6           0       -4.683650   -4.146673    0.697216
     28          6           0       -5.016493   -5.186342    1.822568
     29          6           0       -4.297423   -4.516078    3.066944
     30          6           0       -4.183715   -3.098596    2.582190
     31          6           0       -6.559192   -5.329835    2.015248
     32          6           0       -2.875223   -5.071900    3.528902
     33          6           0       -2.944203   -6.523026    4.034643
     34          7           0       -3.917833   -0.139986    2.001791
     35          6           0       -3.635086   -0.675639    3.247955
     36          6           0       -3.363869    0.426269    4.161505
     37          6           0       -3.258549    1.573897    3.312312
     38          6           0       -3.660330    1.174263    2.026158
     39          6           0       -3.072840    0.230744    5.668338
     40          6           0       -2.919268    2.972724    3.265146
     41          8           0       -2.637414    3.751930    4.218879
     42          6           0       -3.211243    3.403802    1.877014
     43          6           0       -4.217000    4.451642    1.949107
     44          8           0       -5.423574    4.319219    2.253957
     45          8           0       -3.725826    5.675406    1.513201
     46          6           0       -4.616029    6.827510    1.477863
     47          6           0        1.855678    5.503682   -1.161222
     48          6           0        2.646456    4.313342   -0.734188
     49          6           0        3.967682    4.363104   -0.428445
     50          6           0        4.891241    5.555805   -0.367433
     51          6           0        4.495488    3.121017    0.167854
     52          6           0        4.880037    1.992421   -0.807080
     53          6           0        4.598547    0.596543   -0.275182
     54          6           0        5.300887   -0.596806   -0.900467
     55          6           0        4.227272   -1.485894   -1.440981
     56          6           0        6.227264   -1.385589    0.097991
     57          6           0        7.642712   -1.466105   -0.536323
     58          6           0        8.791837   -1.394430    0.506578
     59          6           0       10.159751   -1.728954   -0.246597
     60          6           0       10.446296   -3.241669    0.042770
     61          6           0       11.414699   -0.858321    0.090100
     62          6           0       12.616448   -0.871280   -0.976459
     63          6           0       13.970651   -0.698722   -0.245731
     64          6           0       14.529210   -2.054934    0.257695
     65          6           0       15.778577   -2.603984   -0.376508
     66          6           0       14.601665   -2.056556    1.810986
     67          1           0       -4.774150    0.103261   -4.128662
     68          1           0       -5.275199   -5.485403   -0.843788
     69          1           0       -3.823854   -2.360303    4.565176
     70          1           0       -4.370287    3.901722   -1.362348
     71          1           0       -3.420144    2.301866   -3.596987
     72          1           0       -5.491044    4.017982   -3.124873
     73          1           0       -6.381994    2.411981   -3.104429
     74          1           0       -5.483982    2.976860   -4.524948
     75          1           0       -1.703717    3.395557   -2.807293
     76          1           0       -1.584696    2.968896   -1.141588
     77          1           0       -2.281609    5.278823   -0.499052
     78          1           0       -2.633234    5.551271   -2.098210
     79          1           0       -4.693741   -3.003495   -6.014749
     80          1           0       -4.149987   -1.501211   -5.365644
     81          1           0       -5.884813   -1.699965   -5.532399
     82          1           0       -6.376315   -6.471677   -2.595008
     83          1           0       -4.652202   -6.502712   -2.416567
     84          1           0       -5.363525   -7.300740   -3.834281
     85          1           0       -4.494369   -6.103220    1.546933
     86          1           0       -5.025324   -4.444888    3.875851
     87          1           0       -6.892468   -6.269067    1.573543
     88          1           0       -7.146970   -4.505073    1.611073
     89          1           0       -6.771845   -5.420617    3.080857
     90          1           0       -2.426910   -4.552537    4.376166
     91          1           0       -2.156081   -4.866940    2.735831
     92          1           0       -2.513162   -6.695434    5.020698
     93          1           0       -2.348273   -7.089444    3.318959
     94          1           0       -3.965541   -6.896429    4.112224
     95          1           0       -3.831403    0.887998    6.093150
     96          1           0       -2.045823    0.533091    5.877234
     97          1           0       -3.265759   -0.775905    6.039446
     98          1           0       -2.277810    3.788643    1.466885
     99          1           0       -4.018358    7.726701    1.332260
    100          1           0       -5.227276    7.025666    2.358236
    101          1           0       -5.353173    6.827102    0.674885
    102          1           0        2.007166    6.391786   -0.546180
    103          1           0        2.046878    5.874490   -2.167719
    104          1           0        2.101354    3.419372   -0.432191
    105          1           0        4.984617    5.941371    0.647330
    106          1           0        4.431962    6.394987   -0.889747
    107          1           0        5.890490    5.326196   -0.739263
    108          1           0        3.696758    2.860696    0.861591
    109          1           0        5.335783    3.446260    0.781566
    110          1           0        5.951636    1.968047   -1.004196
    111          1           0        4.586277    2.079921   -1.853217
    112          1           0        3.538689    0.592375   -0.529687
    113          1           0        4.733774    0.661562    0.804464
    114          1           0        5.779826   -0.267691   -1.823094
    115          1           0        3.295255   -1.392916   -0.883039
    116          1           0        4.581038   -2.515996   -1.394993
    117          1           0        4.009058   -1.216403   -2.474741
    118          1           0        5.754208   -2.348421    0.293291
    119          1           0        6.358953   -0.966901    1.096347
    120          1           0        7.765024   -0.590597   -1.174254
    121          1           0        7.765723   -2.400987   -1.081739
    122          1           0        8.585639   -2.028103    1.369659
    123          1           0        8.831676   -0.385831    0.917823
    124          1           0       10.105182   -1.515347   -1.314507
    125          1           0       11.474881   -3.381504    0.375798
    126          1           0       10.340793   -3.854090   -0.852056
    127          1           0        9.712406   -3.613502    0.757336
    128          1           0       11.763782   -1.034340    1.107571
    129          1           0       11.013588    0.152440    0.157937
    130          1           0       12.468539    0.036915   -1.561918
    131          1           0       12.589071   -1.850095   -1.455000
    132          1           0       13.750432    0.114904    0.445700
    133          1           0       14.637038   -0.245296   -0.979482
    134          1           0       13.837230   -2.870673    0.043125
    135          1           0       15.537979   -3.374499   -1.108962
    136          1           0       16.450446   -2.944693    0.411233
    137          1           0       16.378489   -1.844138   -0.878577
    138          1           0       15.587365   -2.302752    2.205709
    139          1           0       13.851965   -2.779925    2.130898
    140          1           0       14.247088   -1.117179    2.235845
 ---------------------------------------------------------------------

 SCF Done:  E(RPBE1PBE) =  -3005.31899856     A.U. after   16 cycles

 Excitation energies and oscillator strengths:

 Excited State   1:      Singlet-A      1.8310 eV  677.14 nm  f=0.3659  <S**2>=0.000
     245 -> 248        0.18015
     246 -> 247        0.69214
     246 <- 247       -0.10861
 This state for optimization and/or second-order correction.
 Total Energy, E(TD-HF/TD-DFT) =  -3005.25171075
 Copying the excited state density for this state as the 1-particle RhoCI density.

 Excited State   2:      Singlet-A      2.1356 eV  580.55 nm  f=0.1098  <S**2>=0.000
     245 -> 247        0.65681
     246 -> 248       -0.24166

 Excited State   3:      Singlet-A      2.7629 eV  448.75 nm  f=0.0006  <S**2>=0.000
     242 -> 247        0.58120
     243 -> 247        0.36593

 Excited State   4:      Singlet-A      2.7884 eV  444.64 nm  f=0.0041  <S**2>=0.000
     240 -> 247        0.38198
     240 -> 249        0.12921
     242 -> 247       -0.30815
     243 -> 247        0.47194

 Excited State   5:      Singlet-A      2.8459 eV  435.65 nm  f=0.0007  <S**2>=0.000
     240 -> 247        0.38624
     240 -> 249        0.10607
     241 -> 247        0.47059
     242 -> 247        0.10397
     243 -> 247       -0.29827

 The electronic state is 1-A.
 Alpha  occ. eigenvalues --  -46.94505 -19.26187 -19.25412 -19.20344 -19.19887
 Alpha  occ. eigenvalues --  -19.18600 -19.18035 -14.43179 -14.42028 -14.39808
 Alpha  occ. eigenvalues --  -14.38690 -10.36844 -10.36558 -10.31618 -10.31165
 Alpha  occ. eigenvalues --  -10.30532 -10.30088 -10.29215 -10.29140 -10.29130
 Alpha  occ. eigenvalues --  -10.29007 -10.28918 -10.28036 -10.27824 -10.27696
 Alpha  occ. eigenvalues --  -10.27011 -10.26806 -10.26756 -10.26309 -10.26242
 Alpha  occ. eigenvalues --  -10.26133 -10.25934 -10.25867 -10.25834 -10.25251
 Alpha  occ. eigenvalues --  -10.25172 -10.24986 -10.24886 -10.24748 -10.24734
 Alpha  occ. eigenvalues --  -10.24332 -10.24283 -10.24021 -10.23887 -10.23655
 Alpha  occ. eigenvalues --  -10.23450 -10.23382 -10.23204 -10.23080 -10.23012
 Alpha  occ. eigenvalues --  -10.22855 -10.22826 -10.22806 -10.22725 -10.22593
 Alpha  occ. eigenvalues --  -10.22534 -10.22461 -10.22425 -10.22241 -10.22217
 Alpha  occ. eigenvalues --  -10.22101 -10.21550 -10.21547 -10.21538 -10.21423
 Alpha  occ. eigenvalues --  -10.21049  -3.16290  -1.89100  -1.88684  -1.88486
 Alpha  occ. eigenvalues --   -1.10353  -1.10302  -1.04600  -1.02902  -1.02290
 Alpha  occ. eigenvalues --   -1.01089  -0.99256  -0.97949  -0.96793  -0.95870
 Alpha  occ. eigenvalues --   -0.87916  -0.85205  -0.84045  -0.83783  -0.83644
 Alpha  occ. eigenvalues --   -0.83022  -0.82775  -0.81507  -0.81313  -0.81168
 Alpha  occ. eigenvalues --   -0.79936  -0.79640  -0.78527  -0.78369  -0.77799
 Alpha  occ. eigenvalues --   -0.77072  -0.76753  -0.75621  -0.75349  -0.74692
 Alpha  occ. eigenvalues --   -0.74200  -0.72521  -0.72325  -0.71832  -0.70850
 Alpha  occ. eigenvalues --   -0.70548  -0.69661  -0.69524  -0.68427  -0.68094
 Alpha  occ. eigenvalues --   -0.67338  -0.66692  -0.66311  -0.64409  -0.64087
 Alpha  occ. eigenvalues --   -0.63304  -0.62022  -0.61938  -0.60797  -0.60398
 Alpha  occ. eigenvalues --   -0.60175  -0.59605  -0.59278  -0.59145  -0.58214
 Alpha  occ. eigenvalues --   -0.57951  -0.57389  -0.57112  -0.56736  -0.54460
 Alpha  occ. eigenvalues --   -0.54430  -0.53902  -0.53663  -0.53581  -0.53455
 Alpha  occ. eigenvalues --   -0.52211  -0.51660  -0.51123  -0.49949  -0.49792
 Alpha  occ. eigenvalues --   -0.49501  -0.49324  -0.49070  -0.48642  -0.48523
 Alpha  occ. eigenvalues --   -0.48281  -0.47769  -0.47590  -0.47371  -0.47213
 Alpha  occ. eigenvalues --   -0.46927  -0.46579  -0.46547  -0.46227  -0.46163
 Alpha  occ. eigenvalues --   -0.46078  -0.45890  -0.45639  -0.45583  -0.45117
 Alpha  occ. eigenvalues --   -0.44939  -0.44846  -0.44706  -0.44589  -0.44475
 Alpha  occ. eigenvalues --   -0.44037  -0.43989  -0.43945  -0.43736  -0.43405
 Alpha  occ. eigenvalues --   -0.43175  -0.43053  -0.42847  -0.42766  -0.42251
 Alpha  occ. eigenvalues --   -0.42066  -0.42053  -0.41774  -0.41676  -0.41351
 Alpha  occ. eigenvalues --   -0.41148  -0.41054  -0.40865  -0.40650  -0.40610
 Alpha  occ. eigenvalues --   -0.40429  -0.40189  -0.39768  -0.39542  -0.39412
 Alpha  occ. eigenvalues --   -0.39324  -0.39015  -0.38893  -0.38790  -0.38594
 Alpha  occ. eigenvalues --   -0.38308  -0.38256  -0.38048  -0.37677  -0.37656
 Alpha  occ. eigenvalues --   -0.37515  -0.37402  -0.37327  -0.36985  -0.36915
 Alpha  occ. eigenvalues --   -0.36863  -0.36671  -0.36610  -0.36353  -0.36043
 Alpha  occ. eigenvalues --   -0.35821  -0.35782  -0.35570  -0.35294  -0.35013
 Alpha  occ. eigenvalues --   -0.34983  -0.34652  -0.34179  -0.33852  -0.33531
 Alpha  occ. eigenvalues --   -0.33343  -0.33020  -0.32598  -0.32536  -0.32240
 Alpha  occ. eigenvalues --   -0.31985  -0.31921  -0.31315  -0.31244  -0.31003
 Alpha  occ. eigenvalues --   -0.30801  -0.30409  -0.30161  -0.29867  -0.29072
 Alpha  occ. eigenvalues --   -0.28951  -0.28808  -0.28703  -0.27242  -0.25709
 Alpha  occ. eigenvalues --   -0.25482  -0.25084  -0.24913  -0.24240  -0.21304
 Alpha  occ. eigenvalues --   -0.19402
 Alpha virt. eigenvalues --   -0.11887  -0.05736  -0.04429  -0.02508  -0.02219
 Alpha virt. eigenvalues --   -0.00348  -0.00168   0.00500   0.00862   0.03155
 Alpha virt. eigenvalues --    0.04081   0.04651   0.04853   0.05413   0.05814

 Mulliken charges:
               1
     1  Mg   0.941528
     2  C   -0.040269
     3  C   -0.044265
     4  C   -0.067823
     5  C   -0.061136
     6  N   -0.372764
     7  C    0.000314
     8  C   -0.017193
     9  C   -0.194895
    10  C    0.098667
    11  C    0.006699
    12  C    0.009903
    13  C   -0.029953
    14  C    0.238495
    15  O   -0.251571
    16  O   -0.387926
    17  N   -0.514968
    18  C    0.149539
    19  C   -0.149947
    20  C   -0.064621
    21  C    0.184943
    22  C    0.067098
    23  C    0.005557
    24  O   -0.242546
    25  C   -0.010440
    26  N   -0.410929
    27  C    0.078406
    28  C   -0.136359
    29  C   -0.096799
    30  C    0.070262
    31  C    0.022042
    32  C   -0.017975
    33  C   -0.066609
    34  N   -0.412815
    35  C    0.121797
    36  C   -0.195796
    37  C   -0.030981
    38  C    0.158969
    39  C    0.066869
    40  C    0.110631
    41  O   -0.259410
    42  C   -0.073186
    43  C    0.318724
    44  O   -0.279094
    45  O   -0.369499
    46  C    0.132344
    47  C    0.234000
    48  C   -0.122586
    49  C   -0.227033
    50  C    0.018688
    51  C    0.014803
    52  C   -0.024683
    53  C   -0.010482
    54  C   -0.221817
    55  C   -0.009586
    56  C    0.042377
    57  C   -0.080982
    58  C   -0.016495
    59  C   -0.211818
    60  C   -0.004402
    61  C   -0.042869
    62  C   -0.062681
    63  C    0.006207
    64  C   -0.250276
    65  C    0.003811
    66  C   -0.018922
    67  H    0.005352
    68  H   -0.010710
    69  H    0.009207
    70  H    0.051638
    71  H    0.061666
    72  H    0.044554
    73  H    0.060438
    74  H    0.047936
    75  H    0.054450
    76  H    0.052386
    77  H    0.065406
    78  H    0.038316
    79  H    0.066320
    80  H    0.039167
    81  H    0.064721
    82  H    0.066464
    83  H    0.055039
    84  H    0.058166
    85  H    0.044372
    86  H    0.037021
    87  H    0.049147
    88  H    0.059089
    89  H    0.043589
    90  H    0.040338
    91  H    0.046675
    92  H    0.044097
    93  H    0.048305
    94  H    0.044213
    95  H    0.069324
    96  H    0.075563
    97  H    0.031187
    98  H    0.082690
    99  H    0.054714
   100  H    0.062142
   101  H    0.043955
   102  H    0.049938
   103  H    0.068041
   104  H    0.041834
   105  H    0.059461
   106  H    0.031077
   107  H    0.055234
   108  H    0.045426
   109  H    0.019548
   110  H    0.005946
   111  H    0.022582
   112  H    0.026818
   113  H    0.029659
   114  H    0.034341
   115  H    0.035326
   116  H    0.025565
   117  H    0.030104
   118  H    0.023543
   119  H    0.025161
   120  H    0.044736
   121  H    0.037037
   122  H    0.032641
   123  H    0.016268
   124  H    0.035461
   125  H    0.033613
   126  H    0.030562
   127  H    0.033386
   128  H    0.020376
   129  H    0.015464
   130  H    0.037211
   131  H    0.040508
   132  H    0.031933
   133  H    0.018712
   134  H    0.044474
   135  H    0.040791
   136  H    0.026404
   137  H    0.025755
   138  H    0.036210
   139  H    0.032344
   140  H    0.031300
 Sum of Mulliken charges =  -0.00000

 Dipole moment (field-independent basis, Debye):
    X=              0.2967    Y=             -2.9254    Z=              1.2337  Tot=              3.1888
 Quadrupole moment (field-independent basis, Debye-Ang):
   XX=           -385.1054   YY=           -389.1315   ZZ=           -429.1401
   XY=             15.4011   XZ=             -6.9010   YZ=            -40.4225

 Normal termination of Gaussian 16 at Thu Apr 28 06:11:37 2022.
