 Gaussian 16, Revision A.03,
 Gaussian 16:  ES64L-G16RevA.03 25-Dec-2016

 --------------------------------
 #p wB97XD/Def2SVP td=(nstates=5)
 --------------------------------

 ----------------------------------------------------
 step_1451_chromophore_8 TDDFT with wB97XD functional
 ----------------------------------------------------
 Symbolic Z-matrix:
 Charge =  0 Multiplicity = 1

                         Standard orientation:
 ---------------------------------------------------------------------
 Center     Atomic      Atomic             Coordinates (Angstroms)
 Number     Number       Type             X           Y           Z
 ---------------------------------------------------------------------
      1         12           0       -4.769336   -1.214514    0.213644
      2          6           0       -3.587940    2.168461    1.045407
      3          6           0       -4.747240   -0.181106   -3.075213
      4          6           0       -4.974134   -4.459139   -0.622698
      5          6           0       -3.910397   -2.069360    3.515945
      6          7           0       -4.282375    0.821214   -0.812289
      7          6           0       -3.818439    2.061554   -0.365050
      8          6           0       -3.626898    3.134407   -1.577043
      9          6           0       -4.196555    2.321577   -2.832731
     10          6           0       -4.535672    0.939878   -2.206127
     11          6           0       -5.509312    2.972806   -3.435124
     12          6           0       -2.156395    3.585833   -1.834752
     13          6           0       -1.894710    5.033090   -1.487677
     14          6           0       -0.487202    5.507183   -1.883791
     15          8           0       -0.246264    6.039945   -2.946748
     16          8           0        0.442927    5.138199   -0.921605
     17          7           0       -5.003607   -2.214225   -1.629570
     18          6           0       -4.873240   -1.606109   -2.891317
     19          6           0       -4.948940   -2.619071   -3.894239
     20          6           0       -5.141734   -3.854901   -3.228673
     21          6           0       -4.979074   -3.593943   -1.768036
     22          6           0       -4.959874   -2.227491   -5.297115
     23          6           0       -5.346981   -5.154747   -3.890217
     24          8           0       -5.463455   -5.186761   -5.102151
     25          6           0       -5.445154   -6.447071   -3.161562
     26          7           0       -4.273685   -2.990552    1.186079
     27          6           0       -4.683650   -4.146673    0.697216
     28          6           0       -5.016493   -5.186342    1.822568
     29          6           0       -4.297423   -4.516078    3.066944
     30          6           0       -4.183715   -3.098596    2.582190
     31          6           0       -6.559192   -5.329835    2.015248
     32          6           0       -2.875223   -5.071900    3.528902
     33          6           0       -2.944203   -6.523026    4.034643
     34          7           0       -3.917833   -0.139986    2.001791
     35          6           0       -3.635086   -0.675639    3.247955
     36          6           0       -3.363869    0.426269    4.161505
     37          6           0       -3.258549    1.573897    3.312312
     38          6           0       -3.660330    1.174263    2.026158
     39          6           0       -3.072840    0.230744    5.668338
     40          6           0       -2.919268    2.972724    3.265146
     41          8           0       -2.637414    3.751930    4.218879
     42          6           0       -3.211243    3.403802    1.877014
     43          6           0       -4.217000    4.451642    1.949107
     44          8           0       -5.423574    4.319219    2.253957
     45          8           0       -3.725826    5.675406    1.513201
     46          6           0       -4.616029    6.827510    1.477863
     47          6           0        1.855678    5.503682   -1.161222
     48          6           0        2.646456    4.313342   -0.734188
     49          6           0        3.967682    4.363104   -0.428445
     50          6           0        4.891241    5.555805   -0.367433
     51          6           0        4.495488    3.121017    0.167854
     52          6           0        4.880037    1.992421   -0.807080
     53          6           0        4.598547    0.596543   -0.275182
     54          6           0        5.300887   -0.596806   -0.900467
     55          6           0        4.227272   -1.485894   -1.440981
     56          6           0        6.227264   -1.385589    0.097991
     57          6           0        7.642712   -1.466105   -0.536323
     58          6           0        8.791837   -1.394430    0.506578
     59          6           0       10.159751   -1.728954   -0.246597
     60          6           0       10.446296   -3.241669    0.042770
     61          6           0       11.414699   -0.858321    0.090100
     62          6           0       12.616448   -0.871280   -0.976459
     63          6           0       13.970651   -0.698722   -0.245731
     64          6           0       14.529210   -2.054934    0.257695
     65          6           0       15.778577   -2.603984   -0.376508
     66          6           0       14.601665   -2.056556    1.810986
     67          1           0       -4.774150    0.103261   -4.128662
     68          1           0       -5.275199   -5.485403   -0.843788
     69          1           0       -3.823854   -2.360303    4.565176
     70          1           0       -4.370287    3.901722   -1.362348
     71          1           0       -3.420144    2.301866   -3.596987
     72          1           0       -5.491044    4.017982   -3.124873
     73          1           0       -6.381994    2.411981   -3.104429
     74          1           0       -5.483982    2.976860   -4.524948
     75          1           0       -1.703717    3.395557   -2.807293
     76          1           0       -1.584696    2.968896   -1.141588
     77          1           0       -2.281609    5.278823   -0.499052
     78          1           0       -2.633234    5.551271   -2.098210
     79          1           0       -4.693741   -3.003495   -6.014749
     80          1           0       -4.149987   -1.501211   -5.365644
     81          1           0       -5.884813   -1.699965   -5.532399
     82          1           0       -6.376315   -6.471677   -2.595008
     83          1           0       -4.652202   -6.502712   -2.416567
     84          1           0       -5.363525   -7.300740   -3.834281
     85          1           0       -4.494369   -6.103220    1.546933
     86          1           0       -5.025324   -4.444888    3.875851
     87          1           0       -6.892468   -6.269067    1.573543
     88          1           0       -7.146970   -4.505073    1.611073
     89          1           0       -6.771845   -5.420617    3.080857
     90          1           0       -2.426910   -4.552537    4.376166
     91          1           0       -2.156081   -4.866940    2.735831
     92          1           0       -2.513162   -6.695434    5.020698
     93          1           0       -2.348273   -7.089444    3.318959
     94          1           0       -3.965541   -6.896429    4.112224
     95          1           0       -3.831403    0.887998    6.093150
     96          1           0       -2.045823    0.533091    5.877234
     97          1           0       -3.265759   -0.775905    6.039446
     98          1           0       -2.277810    3.788643    1.466885
     99          1           0       -4.018358    7.726701    1.332260
    100          1           0       -5.227276    7.025666    2.358236
    101          1           0       -5.353173    6.827102    0.674885
    102          1           0        2.007166    6.391786   -0.546180
    103          1           0        2.046878    5.874490   -2.167719
    104          1           0        2.101354    3.419372   -0.432191
    105          1           0        4.984617    5.941371    0.647330
    106          1           0        4.431962    6.394987   -0.889747
    107          1           0        5.890490    5.326196   -0.739263
    108          1           0        3.696758    2.860696    0.861591
    109          1           0        5.335783    3.446260    0.781566
    110          1           0        5.951636    1.968047   -1.004196
    111          1           0        4.586277    2.079921   -1.853217
    112          1           0        3.538689    0.592375   -0.529687
    113          1           0        4.733774    0.661562    0.804464
    114          1           0        5.779826   -0.267691   -1.823094
    115          1           0        3.295255   -1.392916   -0.883039
    116          1           0        4.581038   -2.515996   -1.394993
    117          1           0        4.009058   -1.216403   -2.474741
    118          1           0        5.754208   -2.348421    0.293291
    119          1           0        6.358953   -0.966901    1.096347
    120          1           0        7.765024   -0.590597   -1.174254
    121          1           0        7.765723   -2.400987   -1.081739
    122          1           0        8.585639   -2.028103    1.369659
    123          1           0        8.831676   -0.385831    0.917823
    124          1           0       10.105182   -1.515347   -1.314507
    125          1           0       11.474881   -3.381504    0.375798
    126          1           0       10.340793   -3.854090   -0.852056
    127          1           0        9.712406   -3.613502    0.757336
    128          1           0       11.763782   -1.034340    1.107571
    129          1           0       11.013588    0.152440    0.157937
    130          1           0       12.468539    0.036915   -1.561918
    131          1           0       12.589071   -1.850095   -1.455000
    132          1           0       13.750432    0.114904    0.445700
    133          1           0       14.637038   -0.245296   -0.979482
    134          1           0       13.837230   -2.870673    0.043125
    135          1           0       15.537979   -3.374499   -1.108962
    136          1           0       16.450446   -2.944693    0.411233
    137          1           0       16.378489   -1.844138   -0.878577
    138          1           0       15.587365   -2.302752    2.205709
    139          1           0       13.851965   -2.779925    2.130898
    140          1           0       14.247088   -1.117179    2.235845
 ---------------------------------------------------------------------

 SCF Done:  E(RwB97XD) =  -3007.82527570     A.U. after   18 cycles

 Excitation energies and oscillator strengths:

 Excited State   1:      Singlet-A      1.6178 eV  766.35 nm  f=0.3786  <S**2>=0.000
     245 -> 248        0.18941
     246 -> 247        0.68324
     245 <- 248        0.11943
 This state for optimization and/or second-order correction.
 Total Energy, E(TD-HF/TD-DFT) =  -3007.76582084
 Copying the excited state density for this state as the 1-particle RhoCI density.

 Excited State   2:      Singlet-A      2.0854 eV  594.54 nm  f=0.1132  <S**2>=0.000
     245 -> 247        0.64545
     246 -> 248       -0.26949
     246 <- 248       -0.10050

 Excited State   3:      Singlet-A      3.1639 eV  391.88 nm  f=0.0008  <S**2>=0.000
     242 -> 247       -0.47864
     243 -> 247        0.48403

 Excited State   4:      Singlet-A      3.2709 eV  379.05 nm  f=0.0088  <S**2>=0.000
     242 -> 247        0.44853
     243 -> 247        0.46524
     246 -> 248        0.20765

 Excited State   5:      Singlet-A      3.3610 eV  368.89 nm  f=0.0071  <S**2>=0.000
     240 -> 247        0.54142
     240 -> 249        0.33715
     240 -> 251        0.16159
     246 -> 248       -0.12525

 The electronic state is 1-A.
 Alpha  occ. eigenvalues --  -46.97463 -19.30784 -19.29948 -19.25014 -19.24626
 Alpha  occ. eigenvalues --  -19.23343 -19.22943 -14.48468 -14.46967 -14.44816
 Alpha  occ. eigenvalues --  -14.43543 -10.43708 -10.43348 -10.38434 -10.38094
 Alpha  occ. eigenvalues --  -10.36684 -10.36521 -10.35761 -10.35663 -10.35492
 Alpha  occ. eigenvalues --  -10.35444 -10.35258 -10.34580 -10.34081 -10.33774
 Alpha  occ. eigenvalues --  -10.33311 -10.33266 -10.32984 -10.32597 -10.32585
 Alpha  occ. eigenvalues --  -10.32470 -10.32377 -10.32311 -10.32262 -10.31534
 Alpha  occ. eigenvalues --  -10.31442 -10.31276 -10.31215 -10.31190 -10.31123
 Alpha  occ. eigenvalues --  -10.30769 -10.30726 -10.30364 -10.30165 -10.30108
 Alpha  occ. eigenvalues --  -10.29837 -10.29719 -10.29716 -10.29495 -10.29356
 Alpha  occ. eigenvalues --  -10.29200 -10.29176 -10.29162 -10.28987 -10.28973
 Alpha  occ. eigenvalues --  -10.28883 -10.28805 -10.28798 -10.28594 -10.28587
 Alpha  occ. eigenvalues --  -10.28456 -10.27975 -10.27967 -10.27887 -10.27838
 Alpha  occ. eigenvalues --  -10.27470  -3.23165  -1.96713  -1.96297  -1.96097
 Alpha  occ. eigenvalues --   -1.17736  -1.17724  -1.12176  -1.10233  -1.09743
 Alpha  occ. eigenvalues --   -1.08500  -1.06595  -1.05188  -1.04345  -1.03368
 Alpha  occ. eigenvalues --   -0.95507  -0.92856  -0.91705  -0.91377  -0.91294
 Alpha  occ. eigenvalues --   -0.90680  -0.90429  -0.89139  -0.88977  -0.88903
 Alpha  occ. eigenvalues --   -0.87560  -0.87231  -0.86170  -0.85969  -0.85465
 Alpha  occ. eigenvalues --   -0.84750  -0.84463  -0.83257  -0.82984  -0.82348
 Alpha  occ. eigenvalues --   -0.81856  -0.80089  -0.80004  -0.79559  -0.78435
 Alpha  occ. eigenvalues --   -0.78207  -0.77274  -0.77212  -0.76110  -0.75752
 Alpha  occ. eigenvalues --   -0.74852  -0.74284  -0.73869  -0.72059  -0.71618
 Alpha  occ. eigenvalues --   -0.70824  -0.69614  -0.69568  -0.68424  -0.67864
 Alpha  occ. eigenvalues --   -0.67710  -0.67073  -0.66938  -0.66620  -0.65699
 Alpha  occ. eigenvalues --   -0.65597  -0.65030  -0.64490  -0.64390  -0.61957
 Alpha  occ. eigenvalues --   -0.61887  -0.61407  -0.61160  -0.60975  -0.60895
 Alpha  occ. eigenvalues --   -0.59630  -0.59109  -0.58566  -0.57391  -0.57190
 Alpha  occ. eigenvalues --   -0.56855  -0.56688  -0.56472  -0.56020  -0.55917
 Alpha  occ. eigenvalues --   -0.55754  -0.55195  -0.54996  -0.54694  -0.54610
 Alpha  occ. eigenvalues --   -0.54255  -0.54079  -0.53948  -0.53596  -0.53507
 Alpha  occ. eigenvalues --   -0.53491  -0.53170  -0.52985  -0.52947  -0.52468
 Alpha  occ. eigenvalues --   -0.52370  -0.52203  -0.52046  -0.51917  -0.51815
 Alpha  occ. eigenvalues --   -0.51360  -0.51323  -0.51276  -0.51093  -0.50665
 Alpha  occ. eigenvalues --   -0.50459  -0.50316  -0.50099  -0.49969  -0.49452
 Alpha  occ. eigenvalues --   -0.49325  -0.49289  -0.49088  -0.48863  -0.48647
 Alpha  occ. eigenvalues --   -0.48286  -0.48251  -0.48082  -0.47891  -0.47815
 Alpha  occ. eigenvalues --   -0.47568  -0.47419  -0.46976  -0.46723  -0.46555
 Alpha  occ. eigenvalues --   -0.46475  -0.46146  -0.46097  -0.46010  -0.45775
 Alpha  occ. eigenvalues --   -0.45478  -0.45406  -0.45152  -0.44824  -0.44719
 Alpha  occ. eigenvalues --   -0.44688  -0.44483  -0.44438  -0.44058  -0.44012
 Alpha  occ. eigenvalues --   -0.43974  -0.43936  -0.43676  -0.43419  -0.43032
 Alpha  occ. eigenvalues --   -0.42899  -0.42851  -0.42567  -0.42277  -0.42071
 Alpha  occ. eigenvalues --   -0.42060  -0.41718  -0.41184  -0.40912  -0.40484
 Alpha  occ. eigenvalues --   -0.40419  -0.40060  -0.39649  -0.39502  -0.39179
 Alpha  occ. eigenvalues --   -0.38982  -0.38979  -0.38377  -0.38303  -0.37969
 Alpha  occ. eigenvalues --   -0.37802  -0.37383  -0.37139  -0.36636  -0.36184
 Alpha  occ. eigenvalues --   -0.36003  -0.35654  -0.35433  -0.33822  -0.32780
 Alpha  occ. eigenvalues --   -0.32603  -0.32014  -0.31305  -0.30973  -0.26307
 Alpha  occ. eigenvalues --   -0.23584
 Alpha virt. eigenvalues --   -0.07814  -0.00355   0.01849   0.03703   0.04135
 Alpha virt. eigenvalues --    0.06395   0.06600   0.07187   0.07751   0.09895
 Alpha virt. eigenvalues --    0.10503   0.11287   0.11594   0.12104   0.12537

 Mulliken charges:
               1
     1  Mg   0.935527
     2  C   -0.033501
     3  C   -0.056532
     4  C   -0.085838
     5  C   -0.074311
     6  N   -0.343156
     7  C   -0.035764
     8  C    0.005707
     9  C   -0.170500
    10  C    0.086151
    11  C    0.016496
    12  C    0.019606
    13  C   -0.004163
    14  C    0.230132
    15  O   -0.249729
    16  O   -0.387428
    17  N   -0.489082
    18  C    0.140947
    19  C   -0.134856
    20  C   -0.059508
    21  C    0.180134
    22  C    0.078936
    23  C    0.000060
    24  O   -0.237727
    25  C    0.002739
    26  N   -0.383652
    27  C    0.071614
    28  C   -0.111775
    29  C   -0.067222
    30  C    0.060747
    31  C    0.030024
    32  C   -0.007090
    33  C   -0.051496
    34  N   -0.376018
    35  C    0.108478
    36  C   -0.195976
    37  C   -0.025737
    38  C    0.136934
    39  C    0.079944
    40  C    0.094086
    41  O   -0.249964
    42  C   -0.033564
    43  C    0.292245
    44  O   -0.272727
    45  O   -0.366429
    46  C    0.146596
    47  C    0.241739
    48  C   -0.129718
    49  C   -0.217020
    50  C    0.034148
    51  C    0.037068
    52  C   -0.010321
    53  C    0.006706
    54  C   -0.190661
    55  C    0.003878
    56  C    0.051899
    57  C   -0.059123
    58  C   -0.000278
    59  C   -0.184484
    60  C    0.010352
    61  C   -0.028242
    62  C   -0.040454
    63  C    0.020731
    64  C   -0.219422
    65  C    0.015245
    66  C   -0.005352
    67  H   -0.000113
    68  H   -0.021036
    69  H    0.001091
    70  H    0.038795
    71  H    0.052929
    72  H    0.038620
    73  H    0.054678
    74  H    0.043019
    75  H    0.048391
    76  H    0.042648
    77  H    0.050538
    78  H    0.030189
    79  H    0.064716
    80  H    0.032326
    81  H    0.061091
    82  H    0.061646
    83  H    0.048636
    84  H    0.057812
    85  H    0.035513
    86  H    0.025142
    87  H    0.043988
    88  H    0.053200
    89  H    0.037766
    90  H    0.032729
    91  H    0.039289
    92  H    0.039216
    93  H    0.041840
    94  H    0.036660
    95  H    0.062913
    96  H    0.070234
    97  H    0.025610
    98  H    0.075254
    99  H    0.051479
   100  H    0.058469
   101  H    0.039661
   102  H    0.045087
   103  H    0.064663
   104  H    0.038504
   105  H    0.054011
   106  H    0.025112
   107  H    0.050136
   108  H    0.036359
   109  H    0.012583
   110  H   -0.005076
   111  H    0.014997
   112  H    0.013546
   113  H    0.020730
   114  H    0.021480
   115  H    0.028708
   116  H    0.018360
   117  H    0.024588
   118  H    0.015929
   119  H    0.016488
   120  H    0.033001
   121  H    0.027239
   122  H    0.023561
   123  H    0.007579
   124  H    0.022556
   125  H    0.022589
   126  H    0.025137
   127  H    0.027083
   128  H    0.007509
   129  H    0.005861
   130  H    0.030673
   131  H    0.028821
   132  H    0.022395
   133  H    0.010776
   134  H    0.027811
   135  H    0.036016
   136  H    0.019608
   137  H    0.019307
   138  H    0.030715
   139  H    0.026216
   140  H    0.024360
 Sum of Mulliken charges =  -0.00000

 Dipole moment (field-independent basis, Debye):
    X=              0.1813    Y=             -2.9878    Z=              0.8010  Tot=              3.0986
 Quadrupole moment (field-independent basis, Debye-Ang):
   XX=           -383.4690   YY=           -388.2662   ZZ=           -429.2683
   XY=             15.8776   XZ=             -4.8311   YZ=            -39.0991

 Normal termination of Gaussian 16 at Thu Apr 28 06:35:11 2022.
