 Gaussian 16, Revision A.03,
 Gaussian 16:  ES64L-G16RevA.03 25-Dec-2016

 --------------------
 #p ZINDO=(nstates=5)
 --------------------

 -----------------------------
 step_1451_chromophore_8 ZINDO
 -----------------------------
 Symbolic Z-matrix:
 Charge =  0 Multiplicity = 1

                         Standard orientation:
 ---------------------------------------------------------------------
 Center     Atomic      Atomic             Coordinates (Angstroms)
 Number     Number       Type             X           Y           Z
 ---------------------------------------------------------------------
      1         12           0       -4.769336   -1.214514    0.213644
      2          6           0       -3.587940    2.168461    1.045407
      3          6           0       -4.747240   -0.181106   -3.075213
      4          6           0       -4.974134   -4.459139   -0.622698
      5          6           0       -3.910397   -2.069360    3.515945
      6          7           0       -4.282375    0.821214   -0.812289
      7          6           0       -3.818439    2.061554   -0.365050
      8          6           0       -3.626898    3.134407   -1.577043
      9          6           0       -4.196555    2.321577   -2.832731
     10          6           0       -4.535672    0.939878   -2.206127
     11          6           0       -5.509312    2.972806   -3.435124
     12          6           0       -2.156395    3.585833   -1.834752
     13          6           0       -1.894710    5.033090   -1.487677
     14          6           0       -0.487202    5.507183   -1.883791
     15          8           0       -0.246264    6.039945   -2.946748
     16          8           0        0.442927    5.138199   -0.921605
     17          7           0       -5.003607   -2.214225   -1.629570
     18          6           0       -4.873240   -1.606109   -2.891317
     19          6           0       -4.948940   -2.619071   -3.894239
     20          6           0       -5.141734   -3.854901   -3.228673
     21          6           0       -4.979074   -3.593943   -1.768036
     22          6           0       -4.959874   -2.227491   -5.297115
     23          6           0       -5.346981   -5.154747   -3.890217
     24          8           0       -5.463455   -5.186761   -5.102151
     25          6           0       -5.445154   -6.447071   -3.161562
     26          7           0       -4.273685   -2.990552    1.186079
     27          6           0       -4.683650   -4.146673    0.697216
     28          6           0       -5.016493   -5.186342    1.822568
     29          6           0       -4.297423   -4.516078    3.066944
     30          6           0       -4.183715   -3.098596    2.582190
     31          6           0       -6.559192   -5.329835    2.015248
     32          6           0       -2.875223   -5.071900    3.528902
     33          6           0       -2.944203   -6.523026    4.034643
     34          7           0       -3.917833   -0.139986    2.001791
     35          6           0       -3.635086   -0.675639    3.247955
     36          6           0       -3.363869    0.426269    4.161505
     37          6           0       -3.258549    1.573897    3.312312
     38          6           0       -3.660330    1.174263    2.026158
     39          6           0       -3.072840    0.230744    5.668338
     40          6           0       -2.919268    2.972724    3.265146
     41          8           0       -2.637414    3.751930    4.218879
     42          6           0       -3.211243    3.403802    1.877014
     43          6           0       -4.217000    4.451642    1.949107
     44          8           0       -5.423574    4.319219    2.253957
     45          8           0       -3.725826    5.675406    1.513201
     46          6           0       -4.616029    6.827510    1.477863
     47          6           0        1.855678    5.503682   -1.161222
     48          6           0        2.646456    4.313342   -0.734188
     49          6           0        3.967682    4.363104   -0.428445
     50          6           0        4.891241    5.555805   -0.367433
     51          6           0        4.495488    3.121017    0.167854
     52          6           0        4.880037    1.992421   -0.807080
     53          6           0        4.598547    0.596543   -0.275182
     54          6           0        5.300887   -0.596806   -0.900467
     55          6           0        4.227272   -1.485894   -1.440981
     56          6           0        6.227264   -1.385589    0.097991
     57          6           0        7.642712   -1.466105   -0.536323
     58          6           0        8.791837   -1.394430    0.506578
     59          6           0       10.159751   -1.728954   -0.246597
     60          6           0       10.446296   -3.241669    0.042770
     61          6           0       11.414699   -0.858321    0.090100
     62          6           0       12.616448   -0.871280   -0.976459
     63          6           0       13.970651   -0.698722   -0.245731
     64          6           0       14.529210   -2.054934    0.257695
     65          6           0       15.778577   -2.603984   -0.376508
     66          6           0       14.601665   -2.056556    1.810986
     67          1           0       -4.774150    0.103261   -4.128662
     68          1           0       -5.275199   -5.485403   -0.843788
     69          1           0       -3.823854   -2.360303    4.565176
     70          1           0       -4.370287    3.901722   -1.362348
     71          1           0       -3.420144    2.301866   -3.596987
     72          1           0       -5.491044    4.017982   -3.124873
     73          1           0       -6.381994    2.411981   -3.104429
     74          1           0       -5.483982    2.976860   -4.524948
     75          1           0       -1.703717    3.395557   -2.807293
     76          1           0       -1.584696    2.968896   -1.141588
     77          1           0       -2.281609    5.278823   -0.499052
     78          1           0       -2.633234    5.551271   -2.098210
     79          1           0       -4.693741   -3.003495   -6.014749
     80          1           0       -4.149987   -1.501211   -5.365644
     81          1           0       -5.884813   -1.699965   -5.532399
     82          1           0       -6.376315   -6.471677   -2.595008
     83          1           0       -4.652202   -6.502712   -2.416567
     84          1           0       -5.363525   -7.300740   -3.834281
     85          1           0       -4.494369   -6.103220    1.546933
     86          1           0       -5.025324   -4.444888    3.875851
     87          1           0       -6.892468   -6.269067    1.573543
     88          1           0       -7.146970   -4.505073    1.611073
     89          1           0       -6.771845   -5.420617    3.080857
     90          1           0       -2.426910   -4.552537    4.376166
     91          1           0       -2.156081   -4.866940    2.735831
     92          1           0       -2.513162   -6.695434    5.020698
     93          1           0       -2.348273   -7.089444    3.318959
     94          1           0       -3.965541   -6.896429    4.112224
     95          1           0       -3.831403    0.887998    6.093150
     96          1           0       -2.045823    0.533091    5.877234
     97          1           0       -3.265759   -0.775905    6.039446
     98          1           0       -2.277810    3.788643    1.466885
     99          1           0       -4.018358    7.726701    1.332260
    100          1           0       -5.227276    7.025666    2.358236
    101          1           0       -5.353173    6.827102    0.674885
    102          1           0        2.007166    6.391786   -0.546180
    103          1           0        2.046878    5.874490   -2.167719
    104          1           0        2.101354    3.419372   -0.432191
    105          1           0        4.984617    5.941371    0.647330
    106          1           0        4.431962    6.394987   -0.889747
    107          1           0        5.890490    5.326196   -0.739263
    108          1           0        3.696758    2.860696    0.861591
    109          1           0        5.335783    3.446260    0.781566
    110          1           0        5.951636    1.968047   -1.004196
    111          1           0        4.586277    2.079921   -1.853217
    112          1           0        3.538689    0.592375   -0.529687
    113          1           0        4.733774    0.661562    0.804464
    114          1           0        5.779826   -0.267691   -1.823094
    115          1           0        3.295255   -1.392916   -0.883039
    116          1           0        4.581038   -2.515996   -1.394993
    117          1           0        4.009058   -1.216403   -2.474741
    118          1           0        5.754208   -2.348421    0.293291
    119          1           0        6.358953   -0.966901    1.096347
    120          1           0        7.765024   -0.590597   -1.174254
    121          1           0        7.765723   -2.400987   -1.081739
    122          1           0        8.585639   -2.028103    1.369659
    123          1           0        8.831676   -0.385831    0.917823
    124          1           0       10.105182   -1.515347   -1.314507
    125          1           0       11.474881   -3.381504    0.375798
    126          1           0       10.340793   -3.854090   -0.852056
    127          1           0        9.712406   -3.613502    0.757336
    128          1           0       11.763782   -1.034340    1.107571
    129          1           0       11.013588    0.152440    0.157937
    130          1           0       12.468539    0.036915   -1.561918
    131          1           0       12.589071   -1.850095   -1.455000
    132          1           0       13.750432    0.114904    0.445700
    133          1           0       14.637038   -0.245296   -0.979482
    134          1           0       13.837230   -2.870673    0.043125
    135          1           0       15.537979   -3.374499   -1.108962
    136          1           0       16.450446   -2.944693    0.411233
    137          1           0       16.378489   -1.844138   -0.878577
    138          1           0       15.587365   -2.302752    2.205709
    139          1           0       13.851965   -2.779925    2.130898
    140          1           0       14.247088   -1.117179    2.235845
 ---------------------------------------------------------------------

 SCF Done:  E(RZINDO/S) =  -474.003845013     A.U. after   20 cycles

 Excitation energies and oscillator strengths:

 Excited State   1:      Singlet-A      1.2278 eV 1009.80 nm  f=0.5972  <S**2>=0.000
     175 ->178        -0.18768
     176 ->177         0.66409
 This state for optimization and/or second-order correction.
 Total Energy, E(CIS/TDA) =  -473.958723995
 Copying the excited state density for this state as the 1-particle RhoCI density.

 Excited State   2:      Singlet-A      1.8501 eV  670.15 nm  f=0.0636  <S**2>=0.000
     175 ->177         0.56360
     176 ->178         0.39645

 Excited State   3:      Singlet-A      2.8676 eV  432.37 nm  f=0.0084  <S**2>=0.000
     168 ->179         0.15943
     168 ->181         0.10989
     168 ->186         0.10563
     169 ->177         0.22516
     169 ->178         0.11253
     169 ->179         0.25840
     169 ->181        -0.18015
     169 ->186         0.11839
     169 ->187         0.10578
     170 ->177         0.20914
     170 ->178         0.10285
     170 ->179         0.20155
     170 ->181        -0.18111
     173 ->177        -0.13621

 Excited State   4:      Singlet-A      2.8772 eV  430.92 nm  f=0.0214  <S**2>=0.000
     168 ->177         0.27978
     168 ->179        -0.28519
     168 ->181        -0.30157
     168 ->186        -0.20054
     168 ->187         0.10681
     168 ->194         0.10124
     169 ->177         0.10291
     169 ->179         0.10548
     170 ->179         0.13747
     171 ->177        -0.16684
     176 ->178         0.10421

 Excited State   5:      Singlet-A      2.9204 eV  424.55 nm  f=0.3776  <S**2>=0.000
     175 ->177         0.23172
     176 ->178        -0.37094
     176 ->179        -0.19911
     176 ->180         0.46234

 The electronic state is 1-A.
 Alpha  occ. eigenvalues --   -1.82781  -1.81057  -1.76696  -1.71659  -1.70761
 Alpha  occ. eigenvalues --   -1.68054  -1.65147  -1.61644  -1.60900  -1.58547
 Alpha  occ. eigenvalues --   -1.56173  -1.52211  -1.49172  -1.46695  -1.45751
 Alpha  occ. eigenvalues --   -1.44339  -1.42171  -1.40571  -1.39517  -1.37895
 Alpha  occ. eigenvalues --   -1.35701  -1.33768  -1.31642  -1.30017  -1.29823
 Alpha  occ. eigenvalues --   -1.28002  -1.27167  -1.22969  -1.20509  -1.17958
 Alpha  occ. eigenvalues --   -1.16627  -1.15664  -1.15601  -1.14109  -1.13361
 Alpha  occ. eigenvalues --   -1.12650  -1.10503  -1.09528  -1.05701  -1.03738
 Alpha  occ. eigenvalues --   -1.01089  -1.00716  -0.98162  -0.97956  -0.96242
 Alpha  occ. eigenvalues --   -0.96127  -0.94100  -0.93962  -0.92609  -0.92281
 Alpha  occ. eigenvalues --   -0.90947  -0.90789  -0.88923  -0.88499  -0.87459
 Alpha  occ. eigenvalues --   -0.86062  -0.85244  -0.83765  -0.82452  -0.80883
 Alpha  occ. eigenvalues --   -0.79478  -0.78662  -0.77674  -0.76790  -0.76590
 Alpha  occ. eigenvalues --   -0.76476  -0.75104  -0.74632  -0.73695  -0.73523
 Alpha  occ. eigenvalues --   -0.73172  -0.72859  -0.72277  -0.71933  -0.70951
 Alpha  occ. eigenvalues --   -0.70018  -0.69813  -0.69299  -0.68370  -0.68252
 Alpha  occ. eigenvalues --   -0.67239  -0.66997  -0.66891  -0.65774  -0.65376
 Alpha  occ. eigenvalues --   -0.65020  -0.64932  -0.64723  -0.64077  -0.63378
 Alpha  occ. eigenvalues --   -0.63180  -0.63081  -0.62952  -0.62710  -0.62548
 Alpha  occ. eigenvalues --   -0.62021  -0.61747  -0.61159  -0.60767  -0.60476
 Alpha  occ. eigenvalues --   -0.59589  -0.58880  -0.58775  -0.58404  -0.57887
 Alpha  occ. eigenvalues --   -0.57788  -0.57481  -0.57237  -0.56816  -0.56429
 Alpha  occ. eigenvalues --   -0.56360  -0.56022  -0.55814  -0.55223  -0.54083
 Alpha  occ. eigenvalues --   -0.53936  -0.53687  -0.53364  -0.53167  -0.52819
 Alpha  occ. eigenvalues --   -0.52757  -0.52664  -0.52598  -0.52066  -0.51568
 Alpha  occ. eigenvalues --   -0.51048  -0.50805  -0.50622  -0.50461  -0.50081
 Alpha  occ. eigenvalues --   -0.49976  -0.49567  -0.49421  -0.49368  -0.49193
 Alpha  occ. eigenvalues --   -0.49145  -0.48585  -0.48377  -0.48256  -0.47997
 Alpha  occ. eigenvalues --   -0.47531  -0.47113  -0.46741  -0.46688  -0.46421
 Alpha  occ. eigenvalues --   -0.46141  -0.45988  -0.45797  -0.45466  -0.45400
 Alpha  occ. eigenvalues --   -0.45106  -0.44356  -0.44257  -0.44144  -0.43796
 Alpha  occ. eigenvalues --   -0.43711  -0.43549  -0.43482  -0.42843  -0.42569
 Alpha  occ. eigenvalues --   -0.41926  -0.41199  -0.40965  -0.39041  -0.38829
 Alpha  occ. eigenvalues --   -0.38234  -0.37663  -0.35420  -0.34909  -0.34617
 Alpha  occ. eigenvalues --   -0.33398  -0.32842  -0.31762  -0.31359  -0.26928
 Alpha  occ. eigenvalues --   -0.22280
 Alpha virt. eigenvalues --   -0.09204  -0.02647  -0.01016  -0.00053   0.00782
 Alpha virt. eigenvalues --    0.01814   0.02120   0.02539   0.04283   0.04476
 Alpha virt. eigenvalues --    0.05735   0.06507   0.06802   0.07325   0.07961

 Mulliken charges:
               1
     1  Mg   0.448981
     2  C   -0.025794
     3  C   -0.064900
     4  C   -0.106725
     5  C   -0.072141
     6  N   -0.286106
     7  C    0.091035
     8  C    0.003824
     9  C   -0.003824
    10  C    0.130766
    11  C   -0.052909
    12  C   -0.012998
    13  C   -0.000572
    14  C    0.472048
    15  O   -0.509560
    16  O   -0.279784
    17  N   -0.339694
    18  C    0.105931
    19  C    0.077503
    20  C   -0.048506
    21  C    0.137210
    22  C   -0.030253
    23  C    0.329416
    24  O   -0.532990
    25  C   -0.025664
    26  N   -0.270227
    27  C    0.174257
    28  C    0.000184
    29  C   -0.002831
    30  C    0.099268
    31  C   -0.043319
    32  C   -0.025906
    33  C   -0.058715
    34  N   -0.329910
    35  C    0.072852
    36  C    0.017581
    37  C   -0.053499
    38  C    0.115470
    39  C   -0.041535
    40  C    0.336446
    41  O   -0.548321
    42  C    0.074381
    43  C    0.499734
    44  O   -0.532696
    45  O   -0.270947
    46  C    0.078231
    47  C    0.105559
    48  C   -0.096507
    49  C   -0.003579
    50  C   -0.037163
    51  C   -0.018188
    52  C   -0.031781
    53  C   -0.036882
    54  C   -0.009090
    55  C   -0.053991
    56  C   -0.037129
    57  C   -0.036988
    58  C   -0.036727
    59  C   -0.022250
    60  C   -0.061995
    61  C   -0.047663
    62  C   -0.042898
    63  C   -0.032891
    64  C   -0.005782
    65  C   -0.052525
    66  C   -0.062372
    67  H    0.023742
    68  H    0.026374
    69  H    0.027617
    70  H    0.043603
    71  H    0.040616
    72  H    0.025105
    73  H    0.033273
    74  H    0.019951
    75  H    0.039887
    76  H    0.017518
    77  H    0.045693
    78  H    0.023717
    79  H    0.042985
    80  H    0.019990
    81  H    0.042592
    82  H    0.039385
    83  H    0.027934
    84  H    0.040674
    85  H    0.031823
    86  H    0.030785
    87  H    0.018727
    88  H    0.033970
    89  H    0.020526
    90  H    0.022271
    91  H    0.028431
    92  H    0.020544
    93  H    0.017451
    94  H    0.020718
    95  H    0.037853
    96  H    0.039171
    97  H    0.023559
    98  H    0.046650
    99  H    0.027008
   100  H    0.049161
   101  H    0.035347
   102  H    0.038910
   103  H    0.059064
   104  H    0.042366
   105  H    0.032191
   106  H    0.016748
   107  H    0.030691
   108  H    0.026559
   109  H    0.016092
   110  H    0.003273
   111  H    0.023953
   112  H    0.014996
   113  H    0.020668
   114  H    0.026681
   115  H    0.018004
   116  H    0.011384
   117  H    0.012471
   118  H    0.021172
   119  H    0.020871
   120  H    0.024245
   121  H    0.023345
   122  H    0.025312
   123  H    0.011699
   124  H    0.023300
   125  H    0.020953
   126  H    0.012280
   127  H    0.022696
   128  H    0.018217
   129  H    0.004921
   130  H    0.025189
   131  H    0.032000
   132  H    0.026913
   133  H    0.008471
   134  H    0.017680
   135  H    0.021093
   136  H    0.019140
   137  H    0.012699
   138  H    0.024544
   139  H    0.013890
   140  H    0.016720
 Sum of Mulliken charges =  -0.00000

 Dipole moment (field-independent basis, Debye):
    X=              0.1644    Y=             -4.9210    Z=             -0.0650  Tot=              4.9242
 N-N= 4.359299949347D+03 E-N= 0.000000000000D+00  KE=-9.392398620780D+03
 Leave Link  601 at Thu Apr 28 06:48:14 2022, MaxMem=  6710886400 cpu:               0.8 elap:               0.1
 (Enter /sw/apps/gaussian-16.0/g16/l9999.exe)
 1\1\GINC-BP1-COMPUTE139\SP\RZINDO CIS\STO-3G\C55H74Mg1N4O6\OF15641\28-
 Apr-2022\0\\#p ZINDO=(nstates=5)\\step_1451_chromophore_8 ZINDO\\0,1\M
 g,0,45.136,3.192,47.676\C,0,42.648,5.829,47.053\C,0,42.477,0.999,47.75
 \C,0,47.39,0.725,47.356\C,0,47.549,5.582,46.76\N,0,42.83,3.479,47.492\
 C,0,41.992,4.568,47.236\C,0,40.417,4.151,47.19\C,0,40.471,2.605,47.601
 \C,0,41.999,2.351,47.733\C,0,39.759,2.318,48.987\C,0,39.726,4.328,45.8
 03\C,0,38.686,5.424,45.777\C,0,37.908,5.491,44.453\O,0,36.856,4.913,44

 Normal termination of Gaussian 16 at Thu Apr 28 06:48:14 2022.
