 Gaussian 16, Revision A.03,
 Gaussian 16:  ES64L-G16RevA.03 25-Dec-2016

 ------------------------------
 #p blyp/Def2SVP td=(nstates=5)
 ------------------------------

 ---------------------------------------------------
 step_1351_chromophore_21 TDDFT with blyp functional
 ---------------------------------------------------
 Symbolic Z-matrix:
 Charge =  0 Multiplicity = 1

                         Standard orientation:
 ---------------------------------------------------------------------
 Center     Atomic      Atomic             Coordinates (Angstroms)
 Number     Number       Type             X           Y           Z
 ---------------------------------------------------------------------
      1         12           0       -4.866362    1.199988    0.030890
      2          6           0       -4.983179   -2.210819   -0.219455
      3          6           0       -1.548581    1.149791    0.400306
      4          6           0       -4.889109    4.535100    0.056930
      5          6           0       -8.424350    1.145864    0.113522
      6          7           0       -3.501684   -0.374967    0.026310
      7          6           0       -3.695934   -1.689177   -0.305044
      8          6           0       -2.403124   -2.413449   -0.517608
      9          6           0       -1.355691   -1.373128   -0.034641
     10          6           0       -2.158701   -0.110907    0.146765
     11          6           0       -0.525739   -1.763966    1.241079
     12          6           0       -2.255622   -2.945155   -1.952476
     13          6           0       -1.226050   -4.073731   -2.125756
     14          6           0       -0.345805   -4.564447   -0.957726
     15          8           0       -0.660493   -5.375648   -0.091474
     16          8           0        0.926042   -4.021552   -0.995438
     17          7           0       -3.432776    2.661523    0.040633
     18          6           0       -2.149534    2.404119    0.284656
     19          6           0       -1.400699    3.675952    0.244449
     20          6           0       -2.369533    4.718175    0.086997
     21          6           0       -3.672450    3.974935    0.095063
     22          6           0        0.067507    3.832006    0.496921
     23          6           0       -2.175476    6.229177   -0.028095
     24          8           0       -3.100337    7.021747   -0.090782
     25          6           0       -0.796310    6.937576   -0.151488
     26          7           0       -6.464221    2.634833    0.290656
     27          6           0       -6.143245    3.963275    0.097160
     28          6           0       -7.417965    4.774597   -0.134593
     29          6           0       -8.547087    3.665750   -0.263619
     30          6           0       -7.754902    2.358664    0.086542
     31          6           0       -7.728504    5.776141    0.986637
     32          6           0       -9.379752    3.652597   -1.547851
     33          6           0      -10.880363    3.485039   -1.451627
     34          7           0       -6.373500   -0.234299    0.303463
     35          6           0       -7.791027   -0.113974    0.279707
     36          6           0       -8.426141   -1.455751    0.346223
     37          6           0       -7.292266   -2.298906    0.050185
     38          6           0       -6.088037   -1.452271    0.070776
     39          6           0       -9.853603   -1.726904    0.456485
     40          6           0       -6.896061   -3.661626   -0.001841
     41          8           0       -7.510010   -4.712514    0.033521
     42          6           0       -5.362582   -3.643491   -0.198492
     43          6           0       -4.692692   -4.508812    0.868086
     44          8           0       -4.397465   -4.223552    2.016568
     45          8           0       -4.241046   -5.623117    0.213202
     46          6           0       -3.602024   -6.596333    1.076215
     47          6           0        1.882040   -4.379164    0.064575
     48          6           0        2.941553   -3.253068    0.084376
     49          6           0        3.753841   -3.020219    1.100481
     50          6           0        3.670076   -3.751916    2.476536
     51          6           0        4.839702   -1.902233    1.075293
     52          6           0        6.330543   -2.315420    0.864389
     53          6           0        6.895896   -2.070063   -0.527820
     54          6           0        8.057322   -0.997429   -0.501556
     55          6           0        7.523044    0.479236   -0.800151
     56          6           0        9.125856   -1.424095   -1.600712
     57          6           0       10.611835   -1.123892   -1.209114
     58          6           0       11.527384   -0.396763   -2.222129
     59          6           0       12.305586    0.866509   -1.692081
     60          6           0       12.255349    1.995728   -2.767679
     61          6           0       13.720825    0.418086   -1.271413
     62          6           0       14.011281    0.518774    0.243097
     63          6           0       14.710228    1.845216    0.752594
     64          6           0       13.957563    2.637520    1.911788
     65          6           0       13.549146    4.062053    1.386715
     66          6           0       14.720574    2.718727    3.238714
     67          1           0       -0.462459    1.133674    0.513217
     68          1           0       -4.975018    5.622310    0.102424
     69          1           0       -9.514562    1.151513    0.040557
     70          1           0       -2.371039   -3.316123    0.092018
     71          1           0       -0.499402   -1.186099   -0.682165
     72          1           0       -1.158142   -1.408318    2.055435
     73          1           0        0.412339   -1.238781    1.415542
     74          1           0       -0.365038   -2.820803    1.454854
     75          1           0       -1.786425   -2.155594   -2.539493
     76          1           0       -3.173459   -3.331299   -2.394968
     77          1           0       -0.552280   -3.720441   -2.906412
     78          1           0       -1.706037   -4.907368   -2.638981
     79          1           0        0.455355    4.408493   -0.342764
     80          1           0        0.676533    2.928776    0.517373
     81          1           0        0.291533    4.368165    1.419327
     82          1           0       -0.966332    8.008117   -0.033909
     83          1           0       -0.548030    6.959180   -1.213026
     84          1           0        0.032049    6.515747    0.418135
     85          1           0       -7.418664    5.331322   -1.070682
     86          1           0       -9.258767    3.767508    0.555946
     87          1           0       -8.685654    5.579994    1.470843
     88          1           0       -7.684355    6.814345    0.656399
     89          1           0       -7.076104    5.388772    1.768497
     90          1           0       -9.055847    2.857513   -2.219956
     91          1           0       -9.294034    4.569085   -2.132408
     92          1           0      -11.309407    4.486958   -1.437454
     93          1           0      -11.197509    2.925782   -0.570974
     94          1           0      -11.271939    3.017672   -2.355462
     95          1           0      -10.079126   -1.648941    1.520159
     96          1           0      -10.010475   -2.683924   -0.041046
     97          1           0      -10.348269   -1.033474   -0.223891
     98          1           0       -5.138141   -4.035038   -1.191420
     99          1           0       -3.089180   -7.315274    0.436398
    100          1           0       -4.397429   -7.193026    1.522062
    101          1           0       -2.874882   -6.098842    1.718768
    102          1           0        2.355083   -5.331851   -0.171163
    103          1           0        1.378618   -4.523082    1.020701
    104          1           0        3.163561   -2.726131   -0.843501
    105          1           0        4.544275   -3.623369    3.116220
    106          1           0        3.417130   -4.798978    2.311241
    107          1           0        2.819680   -3.195790    2.872354
    108          1           0        4.651158   -1.389675    2.017817
    109          1           0        4.576870   -1.288375    0.214555
    110          1           0        6.265153   -3.393267    1.011334
    111          1           0        6.833779   -1.791323    1.676688
    112          1           0        6.113900   -1.778809   -1.229551
    113          1           0        7.196163   -2.971746   -1.061452
    114          1           0        8.462306   -0.853488    0.500268
    115          1           0        8.085165    1.052031   -1.537996
    116          1           0        7.595689    0.965913    0.171795
    117          1           0        6.501533    0.344005   -1.155213
    118          1           0        8.814888   -0.975300   -2.544705
    119          1           0        9.165260   -2.501335   -1.759705
    120          1           0       11.053582   -2.110088   -1.065310
    121          1           0       10.709160   -0.583448   -0.267615
    122          1           0       10.804011   -0.131465   -2.993051
    123          1           0       12.164296   -1.190365   -2.612764
    124          1           0       11.795098    1.328088   -0.846672
    125          1           0       12.537132    2.926179   -2.274536
    126          1           0       11.194389    2.065485   -3.012357
    127          1           0       12.847420    1.678945   -3.625021
    128          1           0       14.474279    0.919527   -1.879894
    129          1           0       13.845363   -0.647289   -1.461638
    130          1           0       14.660599   -0.342902    0.399151
    131          1           0       13.040178    0.496980    0.738468
    132          1           0       14.825115    2.465351   -0.135768
    133          1           0       15.673743    1.511054    1.136528
    134          1           0       13.064297    2.034545    2.077933
    135          1           0       12.629325    3.979924    0.808146
    136          1           0       14.319302    4.646369    0.881368
    137          1           0       13.280672    4.644261    2.267560
    138          1           0       15.651345    2.163238    3.120755
    139          1           0       14.167557    2.231384    4.042416
    140          1           0       15.041150    3.719835    3.524987
 ---------------------------------------------------------------------

 SCF Done:  E(RB-LYP) =  -3007.35629993     A.U. after   22 cycles

 Excitation energies and oscillator strengths:

 Excited State   1:      Singlet-A      1.7946 eV  690.85 nm  f=0.3039  <S**2>=0.000
     245 -> 248       -0.18252
     246 -> 247        0.68407
     246 <- 247       -0.14903
 This state for optimization and/or second-order correction.
 Total Energy, E(TD-HF/TD-DFT) =  -3007.29034777
 Copying the excited state density for this state as the 1-particle RhoCI density.

 Excited State   2:      Singlet-A      1.8613 eV  666.12 nm  f=0.0056  <S**2>=0.000
     244 -> 247        0.63633
     245 -> 247        0.29195

 Excited State   3:      Singlet-A      2.0667 eV  599.92 nm  f=0.0324  <S**2>=0.000
     243 -> 247        0.38024
     244 -> 247       -0.23292
     245 -> 247        0.47212
     246 -> 248        0.25361

 Excited State   4:      Singlet-A      2.0773 eV  596.86 nm  f=0.0138  <S**2>=0.000
     243 -> 247        0.59436
     244 -> 247        0.14481
     245 -> 247       -0.30483
     246 -> 248       -0.15786

 Excited State   5:      Singlet-A      2.6304 eV  471.34 nm  f=0.0223  <S**2>=0.000
     239 -> 247        0.17506
     242 -> 247        0.46256
     246 -> 248       -0.38453
     246 -> 249       -0.27493

 The electronic state is 1-A.
 Alpha  occ. eigenvalues --  -46.26458 -18.82734 -18.80925 -18.77738 -18.76139
 Alpha  occ. eigenvalues --  -18.75558 -18.74588 -14.03344 -14.02734 -14.01156
 Alpha  occ. eigenvalues --  -14.00603 -10.05238 -10.03136 -10.00282  -9.98919
 Alpha  occ. eigenvalues --   -9.98205  -9.96720  -9.96203  -9.95913  -9.95852
 Alpha  occ. eigenvalues --   -9.95820  -9.95670  -9.95630  -9.95399  -9.94162
 Alpha  occ. eigenvalues --   -9.94146  -9.94078  -9.94066  -9.94048  -9.93923
 Alpha  occ. eigenvalues --   -9.93848  -9.93411  -9.93198  -9.93117  -9.93096
 Alpha  occ. eigenvalues --   -9.93010  -9.92991  -9.92965  -9.92943  -9.92639
 Alpha  occ. eigenvalues --   -9.92505  -9.92502  -9.92458  -9.92437  -9.92353
 Alpha  occ. eigenvalues --   -9.92291  -9.92138  -9.92086  -9.92056  -9.91986
 Alpha  occ. eigenvalues --   -9.91922  -9.91851  -9.91621  -9.91607  -9.91554
 Alpha  occ. eigenvalues --   -9.91549  -9.91181  -9.91155  -9.91101  -9.91050
 Alpha  occ. eigenvalues --   -9.91046  -9.91012  -9.90848  -9.90827  -9.90791
 Alpha  occ. eigenvalues --   -9.90763  -2.91265  -1.71702  -1.71107  -1.71006
 Alpha  occ. eigenvalues --   -0.98057  -0.97079  -0.91867  -0.90645  -0.90111
 Alpha  occ. eigenvalues --   -0.89071  -0.87280  -0.86670  -0.85830  -0.85081
 Alpha  occ. eigenvalues --   -0.75580  -0.73852  -0.73449  -0.72580  -0.72536
 Alpha  occ. eigenvalues --   -0.71729  -0.71606  -0.70971  -0.70900  -0.70502
 Alpha  occ. eigenvalues --   -0.70236  -0.69344  -0.68358  -0.67606  -0.67257
 Alpha  occ. eigenvalues --   -0.66479  -0.65647  -0.65104  -0.64845  -0.64311
 Alpha  occ. eigenvalues --   -0.63986  -0.63055  -0.62548  -0.61529  -0.60916
 Alpha  occ. eigenvalues --   -0.60293  -0.60164  -0.59741  -0.59472  -0.59305
 Alpha  occ. eigenvalues --   -0.58641  -0.57740  -0.56935  -0.56108  -0.53854
 Alpha  occ. eigenvalues --   -0.53621  -0.53347  -0.52827  -0.52249  -0.51668
 Alpha  occ. eigenvalues --   -0.51372  -0.50869  -0.50674  -0.50283  -0.50084
 Alpha  occ. eigenvalues --   -0.50023  -0.49326  -0.48982  -0.47471  -0.47095
 Alpha  occ. eigenvalues --   -0.46812  -0.45899  -0.45444  -0.45258  -0.44006
 Alpha  occ. eigenvalues --   -0.43816  -0.43216  -0.43137  -0.42805  -0.42578
 Alpha  occ. eigenvalues --   -0.41951  -0.41551  -0.41493  -0.41336  -0.41070
 Alpha  occ. eigenvalues --   -0.40911  -0.40799  -0.40690  -0.40561  -0.40114
 Alpha  occ. eigenvalues --   -0.39888  -0.39759  -0.39578  -0.39437  -0.39378
 Alpha  occ. eigenvalues --   -0.39296  -0.39018  -0.38865  -0.38600  -0.38028
 Alpha  occ. eigenvalues --   -0.37986  -0.37853  -0.37813  -0.37729  -0.37582
 Alpha  occ. eigenvalues --   -0.37399  -0.37160  -0.36999  -0.36949  -0.36556
 Alpha  occ. eigenvalues --   -0.36454  -0.36152  -0.36109  -0.35864  -0.35808
 Alpha  occ. eigenvalues --   -0.35587  -0.35412  -0.35129  -0.35049  -0.34888
 Alpha  occ. eigenvalues --   -0.34846  -0.34614  -0.34305  -0.34276  -0.34146
 Alpha  occ. eigenvalues --   -0.34111  -0.33839  -0.33550  -0.33367  -0.33244
 Alpha  occ. eigenvalues --   -0.33207  -0.33028  -0.32741  -0.32571  -0.32267
 Alpha  occ. eigenvalues --   -0.32127  -0.31895  -0.31810  -0.31780  -0.31289
 Alpha  occ. eigenvalues --   -0.31144  -0.31065  -0.30775  -0.30530  -0.30204
 Alpha  occ. eigenvalues --   -0.29922  -0.29892  -0.29872  -0.29731  -0.29514
 Alpha  occ. eigenvalues --   -0.29496  -0.29220  -0.29112  -0.28972  -0.28641
 Alpha  occ. eigenvalues --   -0.28613  -0.28328  -0.28286  -0.28237  -0.28014
 Alpha  occ. eigenvalues --   -0.27690  -0.27470  -0.27142  -0.26495  -0.26288
 Alpha  occ. eigenvalues --   -0.26151  -0.25842  -0.25749  -0.25546  -0.25197
 Alpha  occ. eigenvalues --   -0.25041  -0.24970  -0.24111  -0.24036  -0.23827
 Alpha  occ. eigenvalues --   -0.22503  -0.22488  -0.22002  -0.21308  -0.21217
 Alpha  occ. eigenvalues --   -0.20889  -0.20425  -0.18630  -0.17850  -0.17297
 Alpha  occ. eigenvalues --   -0.15336
 Alpha virt. eigenvalues --   -0.11100  -0.07091  -0.06071  -0.04358  -0.04149
 Alpha virt. eigenvalues --   -0.02282  -0.01725  -0.01609  -0.01362   0.00881
 Alpha virt. eigenvalues --    0.01528   0.01804   0.02020   0.02332   0.02459

 Mulliken charges:
               1
     1  Mg   0.679886
     2  C   -0.053170
     3  C   -0.082305
     4  C   -0.066270
     5  C   -0.077368
     6  N   -0.260223
     7  C   -0.066125
     8  C    0.024997
     9  C    0.006374
    10  C    0.060690
    11  C    0.074187
    12  C    0.141215
    13  C    0.124235
    14  C    0.091351
    15  O   -0.199478
    16  O   -0.280935
    17  N   -0.263486
    18  C    0.157429
    19  C   -0.143777
    20  C    0.048594
    21  C    0.151756
    22  C    0.148334
    23  C   -0.076401
    24  O   -0.161824
    25  C    0.129879
    26  N   -0.201187
    27  C    0.014006
    28  C   -0.019491
    29  C    0.040798
    30  C    0.025934
    31  C    0.147095
    32  C    0.098514
    33  C    0.047655
    34  N   -0.202947
    35  C    0.101508
    36  C   -0.177372
    37  C    0.016264
    38  C    0.101797
    39  C    0.202570
    40  C   -0.058367
    41  O   -0.132707
    42  C    0.097918
    43  C    0.130739
    44  O   -0.180802
    45  O   -0.274715
    46  C    0.226664
    47  C    0.290228
    48  C   -0.075115
    49  C   -0.199612
    50  C    0.123082
    51  C    0.105440
    52  C    0.127899
    53  C    0.113534
    54  C   -0.101267
    55  C    0.089999
    56  C    0.097930
    57  C    0.047730
    58  C    0.093473
    59  C   -0.076510
    60  C    0.098100
    61  C    0.117697
    62  C    0.039995
    63  C    0.110460
    64  C   -0.091269
    65  C    0.087453
    66  C    0.117048
    67  H   -0.070527
    68  H   -0.046160
    69  H   -0.065683
    70  H    0.011963
    71  H   -0.025129
    72  H   -0.015987
    73  H   -0.002383
    74  H    0.011695
    75  H   -0.023990
    76  H   -0.006796
    77  H   -0.021934
    78  H   -0.000692
    79  H    0.003996
    80  H   -0.021050
    81  H    0.020651
    82  H   -0.014391
    83  H   -0.001058
    84  H   -0.002800
    85  H   -0.022880
    86  H   -0.033540
    87  H   -0.026814
    88  H    0.014167
    89  H   -0.015659
    90  H   -0.026700
    91  H   -0.026890
    92  H   -0.012831
    93  H   -0.000416
    94  H   -0.012695
    95  H    0.026486
    96  H    0.004138
    97  H   -0.002063
    98  H   -0.010433
    99  H   -0.001429
   100  H    0.007409
   101  H    0.029231
   102  H    0.008663
   103  H    0.010605
   104  H   -0.035953
   105  H    0.001435
   106  H    0.008633
   107  H    0.017509
   108  H   -0.029424
   109  H   -0.037785
   110  H   -0.028607
   111  H   -0.019042
   112  H   -0.044142
   113  H   -0.039519
   114  H   -0.020705
   115  H   -0.004686
   116  H   -0.012533
   117  H   -0.013195
   118  H   -0.025986
   119  H   -0.031129
   120  H   -0.037248
   121  H   -0.030212
   122  H   -0.050382
   123  H   -0.029507
   124  H   -0.036632
   125  H   -0.011345
   126  H   -0.018147
   127  H   -0.004018
   128  H   -0.037531
   129  H   -0.042094
   130  H   -0.029719
   131  H   -0.022287
   132  H   -0.029723
   133  H   -0.034873
   134  H   -0.037784
   135  H   -0.013798
   136  H   -0.000904
   137  H   -0.027147
   138  H   -0.030837
   139  H   -0.011254
   140  H   -0.015241
 Sum of Mulliken charges =  -0.00000

 Dipole moment (field-independent basis, Debye):
    X=              5.0029    Y=              1.5604    Z=             -2.4156  Tot=              5.7705
 Quadrupole moment (field-independent basis, Debye-Ang):
   XX=           -394.6343   YY=           -436.7971   ZZ=           -403.4325
   XY=            -35.1742   XZ=             19.6298   YZ=              5.2497

 Normal termination of Gaussian 16 at Wed May  4 04:54:47 2022.
