 Gaussian 16, Revision A.03,
 Gaussian 16:  ES64L-G16RevA.03 25-Dec-2016

 -----------------------------------
 #p cam-b3lyp/Def2SVP td=(nstates=5)
 -----------------------------------

 --------------------------------------------------------
 step_1351_chromophore_21 TDDFT with cam-b3lyp functional
 --------------------------------------------------------
 Symbolic Z-matrix:
 Charge =  0 Multiplicity = 1

                         Standard orientation:
 ---------------------------------------------------------------------
 Center     Atomic      Atomic             Coordinates (Angstroms)
 Number     Number       Type             X           Y           Z
 ---------------------------------------------------------------------
      1         12           0       -4.866362    1.199988    0.030890
      2          6           0       -4.983179   -2.210819   -0.219455
      3          6           0       -1.548581    1.149791    0.400306
      4          6           0       -4.889109    4.535100    0.056930
      5          6           0       -8.424350    1.145864    0.113522
      6          7           0       -3.501684   -0.374967    0.026310
      7          6           0       -3.695934   -1.689177   -0.305044
      8          6           0       -2.403124   -2.413449   -0.517608
      9          6           0       -1.355691   -1.373128   -0.034641
     10          6           0       -2.158701   -0.110907    0.146765
     11          6           0       -0.525739   -1.763966    1.241079
     12          6           0       -2.255622   -2.945155   -1.952476
     13          6           0       -1.226050   -4.073731   -2.125756
     14          6           0       -0.345805   -4.564447   -0.957726
     15          8           0       -0.660493   -5.375648   -0.091474
     16          8           0        0.926042   -4.021552   -0.995438
     17          7           0       -3.432776    2.661523    0.040633
     18          6           0       -2.149534    2.404119    0.284656
     19          6           0       -1.400699    3.675952    0.244449
     20          6           0       -2.369533    4.718175    0.086997
     21          6           0       -3.672450    3.974935    0.095063
     22          6           0        0.067507    3.832006    0.496921
     23          6           0       -2.175476    6.229177   -0.028095
     24          8           0       -3.100337    7.021747   -0.090782
     25          6           0       -0.796310    6.937576   -0.151488
     26          7           0       -6.464221    2.634833    0.290656
     27          6           0       -6.143245    3.963275    0.097160
     28          6           0       -7.417965    4.774597   -0.134593
     29          6           0       -8.547087    3.665750   -0.263619
     30          6           0       -7.754902    2.358664    0.086542
     31          6           0       -7.728504    5.776141    0.986637
     32          6           0       -9.379752    3.652597   -1.547851
     33          6           0      -10.880363    3.485039   -1.451627
     34          7           0       -6.373500   -0.234299    0.303463
     35          6           0       -7.791027   -0.113974    0.279707
     36          6           0       -8.426141   -1.455751    0.346223
     37          6           0       -7.292266   -2.298906    0.050185
     38          6           0       -6.088037   -1.452271    0.070776
     39          6           0       -9.853603   -1.726904    0.456485
     40          6           0       -6.896061   -3.661626   -0.001841
     41          8           0       -7.510010   -4.712514    0.033521
     42          6           0       -5.362582   -3.643491   -0.198492
     43          6           0       -4.692692   -4.508812    0.868086
     44          8           0       -4.397465   -4.223552    2.016568
     45          8           0       -4.241046   -5.623117    0.213202
     46          6           0       -3.602024   -6.596333    1.076215
     47          6           0        1.882040   -4.379164    0.064575
     48          6           0        2.941553   -3.253068    0.084376
     49          6           0        3.753841   -3.020219    1.100481
     50          6           0        3.670076   -3.751916    2.476536
     51          6           0        4.839702   -1.902233    1.075293
     52          6           0        6.330543   -2.315420    0.864389
     53          6           0        6.895896   -2.070063   -0.527820
     54          6           0        8.057322   -0.997429   -0.501556
     55          6           0        7.523044    0.479236   -0.800151
     56          6           0        9.125856   -1.424095   -1.600712
     57          6           0       10.611835   -1.123892   -1.209114
     58          6           0       11.527384   -0.396763   -2.222129
     59          6           0       12.305586    0.866509   -1.692081
     60          6           0       12.255349    1.995728   -2.767679
     61          6           0       13.720825    0.418086   -1.271413
     62          6           0       14.011281    0.518774    0.243097
     63          6           0       14.710228    1.845216    0.752594
     64          6           0       13.957563    2.637520    1.911788
     65          6           0       13.549146    4.062053    1.386715
     66          6           0       14.720574    2.718727    3.238714
     67          1           0       -0.462459    1.133674    0.513217
     68          1           0       -4.975018    5.622310    0.102424
     69          1           0       -9.514562    1.151513    0.040557
     70          1           0       -2.371039   -3.316123    0.092018
     71          1           0       -0.499402   -1.186099   -0.682165
     72          1           0       -1.158142   -1.408318    2.055435
     73          1           0        0.412339   -1.238781    1.415542
     74          1           0       -0.365038   -2.820803    1.454854
     75          1           0       -1.786425   -2.155594   -2.539493
     76          1           0       -3.173459   -3.331299   -2.394968
     77          1           0       -0.552280   -3.720441   -2.906412
     78          1           0       -1.706037   -4.907368   -2.638981
     79          1           0        0.455355    4.408493   -0.342764
     80          1           0        0.676533    2.928776    0.517373
     81          1           0        0.291533    4.368165    1.419327
     82          1           0       -0.966332    8.008117   -0.033909
     83          1           0       -0.548030    6.959180   -1.213026
     84          1           0        0.032049    6.515747    0.418135
     85          1           0       -7.418664    5.331322   -1.070682
     86          1           0       -9.258767    3.767508    0.555946
     87          1           0       -8.685654    5.579994    1.470843
     88          1           0       -7.684355    6.814345    0.656399
     89          1           0       -7.076104    5.388772    1.768497
     90          1           0       -9.055847    2.857513   -2.219956
     91          1           0       -9.294034    4.569085   -2.132408
     92          1           0      -11.309407    4.486958   -1.437454
     93          1           0      -11.197509    2.925782   -0.570974
     94          1           0      -11.271939    3.017672   -2.355462
     95          1           0      -10.079126   -1.648941    1.520159
     96          1           0      -10.010475   -2.683924   -0.041046
     97          1           0      -10.348269   -1.033474   -0.223891
     98          1           0       -5.138141   -4.035038   -1.191420
     99          1           0       -3.089180   -7.315274    0.436398
    100          1           0       -4.397429   -7.193026    1.522062
    101          1           0       -2.874882   -6.098842    1.718768
    102          1           0        2.355083   -5.331851   -0.171163
    103          1           0        1.378618   -4.523082    1.020701
    104          1           0        3.163561   -2.726131   -0.843501
    105          1           0        4.544275   -3.623369    3.116220
    106          1           0        3.417130   -4.798978    2.311241
    107          1           0        2.819680   -3.195790    2.872354
    108          1           0        4.651158   -1.389675    2.017817
    109          1           0        4.576870   -1.288375    0.214555
    110          1           0        6.265153   -3.393267    1.011334
    111          1           0        6.833779   -1.791323    1.676688
    112          1           0        6.113900   -1.778809   -1.229551
    113          1           0        7.196163   -2.971746   -1.061452
    114          1           0        8.462306   -0.853488    0.500268
    115          1           0        8.085165    1.052031   -1.537996
    116          1           0        7.595689    0.965913    0.171795
    117          1           0        6.501533    0.344005   -1.155213
    118          1           0        8.814888   -0.975300   -2.544705
    119          1           0        9.165260   -2.501335   -1.759705
    120          1           0       11.053582   -2.110088   -1.065310
    121          1           0       10.709160   -0.583448   -0.267615
    122          1           0       10.804011   -0.131465   -2.993051
    123          1           0       12.164296   -1.190365   -2.612764
    124          1           0       11.795098    1.328088   -0.846672
    125          1           0       12.537132    2.926179   -2.274536
    126          1           0       11.194389    2.065485   -3.012357
    127          1           0       12.847420    1.678945   -3.625021
    128          1           0       14.474279    0.919527   -1.879894
    129          1           0       13.845363   -0.647289   -1.461638
    130          1           0       14.660599   -0.342902    0.399151
    131          1           0       13.040178    0.496980    0.738468
    132          1           0       14.825115    2.465351   -0.135768
    133          1           0       15.673743    1.511054    1.136528
    134          1           0       13.064297    2.034545    2.077933
    135          1           0       12.629325    3.979924    0.808146
    136          1           0       14.319302    4.646369    0.881368
    137          1           0       13.280672    4.644261    2.267560
    138          1           0       15.651345    2.163238    3.120755
    139          1           0       14.167557    2.231384    4.042416
    140          1           0       15.041150    3.719835    3.524987
 ---------------------------------------------------------------------

 SCF Done:  E(RCAM-B3LYP) =  -3007.15351580     A.U. after   17 cycles

 Excitation energies and oscillator strengths:

 Excited State   1:      Singlet-A      1.6999 eV  729.37 nm  f=0.3874  <S**2>=0.000
     245 -> 248        0.18115
     246 -> 247        0.68491
     245 <- 248        0.10707
 This state for optimization and/or second-order correction.
 Total Energy, E(TD-HF/TD-DFT) =  -3007.09104636
 Copying the excited state density for this state as the 1-particle RhoCI density.

 Excited State   2:      Singlet-A      2.3045 eV  538.01 nm  f=0.0401  <S**2>=0.000
     245 -> 247        0.59226
     246 -> 248       -0.37568

 Excited State   3:      Singlet-A      3.3881 eV  365.94 nm  f=0.4199  <S**2>=0.000
     242 -> 247        0.11161
     243 -> 247       -0.35297
     243 -> 249        0.16858
     243 -> 250       -0.13688
     244 -> 247       -0.13774
     245 -> 247        0.27726
     246 -> 248        0.45083

 Excited State   4:      Singlet-A      3.4116 eV  363.42 nm  f=0.3121  <S**2>=0.000
     243 -> 247        0.34998
     243 -> 249       -0.15400
     243 -> 250        0.14471
     244 -> 247        0.29468
     244 -> 249       -0.13122
     244 -> 250        0.10336
     245 -> 247        0.23319
     246 -> 248        0.37873

 Excited State   5:      Singlet-A      3.6409 eV  340.53 nm  f=0.0165  <S**2>=0.000
     242 -> 247       -0.22150
     243 -> 247       -0.36948
     244 -> 247        0.51757
     246 -> 249        0.11360

 The electronic state is 1-A.
 Alpha  occ. eigenvalues --  -46.87963 -19.25554 -19.23719 -19.20716 -19.19143
 Alpha  occ. eigenvalues --  -19.18937 -19.17647 -14.42174 -14.41619 -14.39680
 Alpha  occ. eigenvalues --  -14.38999 -10.40579 -10.38510 -10.35668 -10.33388
 Alpha  occ. eigenvalues --  -10.32997 -10.31317 -10.30664 -10.30284 -10.30128
 Alpha  occ. eigenvalues --  -10.30126 -10.29821 -10.29807 -10.29645 -10.28960
 Alpha  occ. eigenvalues --  -10.28410 -10.28155 -10.28103 -10.28042 -10.28023
 Alpha  occ. eigenvalues --  -10.27949 -10.27682 -10.27588 -10.27216 -10.27018
 Alpha  occ. eigenvalues --  -10.26888 -10.26878 -10.26808 -10.26807 -10.26767
 Alpha  occ. eigenvalues --  -10.26749 -10.26343 -10.26286 -10.26207 -10.26122
 Alpha  occ. eigenvalues --  -10.26100 -10.26089 -10.26035 -10.25786 -10.25758
 Alpha  occ. eigenvalues --  -10.25718 -10.25624 -10.25350 -10.25216 -10.25210
 Alpha  occ. eigenvalues --  -10.25152 -10.25150 -10.24884 -10.24807 -10.24783
 Alpha  occ. eigenvalues --  -10.24777 -10.24700 -10.24680 -10.24535 -10.24441
 Alpha  occ. eigenvalues --  -10.24439  -3.16683  -1.91593  -1.91109  -1.91017
 Alpha  occ. eigenvalues --   -1.16459  -1.15522  -1.10448  -1.08961  -1.07909
 Alpha  occ. eigenvalues --   -1.06912  -1.05069  -1.04345  -1.03448  -1.02610
 Alpha  occ. eigenvalues --   -0.92684  -0.90709  -0.90243  -0.89378  -0.89335
 Alpha  occ. eigenvalues --   -0.88310  -0.88266  -0.87623  -0.87470  -0.87067
 Alpha  occ. eigenvalues --   -0.87000  -0.85701  -0.84615  -0.83768  -0.83373
 Alpha  occ. eigenvalues --   -0.82516  -0.81655  -0.80967  -0.80698  -0.80191
 Alpha  occ. eigenvalues --   -0.80022  -0.78778  -0.78322  -0.77008  -0.76287
 Alpha  occ. eigenvalues --   -0.75630  -0.75527  -0.75052  -0.74732  -0.74518
 Alpha  occ. eigenvalues --   -0.73797  -0.72742  -0.71873  -0.70936  -0.68551
 Alpha  occ. eigenvalues --   -0.68164  -0.67934  -0.67267  -0.66593  -0.65843
 Alpha  occ. eigenvalues --   -0.65362  -0.65003  -0.64833  -0.64200  -0.64127
 Alpha  occ. eigenvalues --   -0.63839  -0.63317  -0.62932  -0.61180  -0.60755
 Alpha  occ. eigenvalues --   -0.60488  -0.59375  -0.58791  -0.58620  -0.57505
 Alpha  occ. eigenvalues --   -0.57166  -0.56595  -0.56390  -0.55948  -0.55601
 Alpha  occ. eigenvalues --   -0.55189  -0.54771  -0.54308  -0.54215  -0.53890
 Alpha  occ. eigenvalues --   -0.53759  -0.53531  -0.53420  -0.53210  -0.52928
 Alpha  occ. eigenvalues --   -0.52773  -0.52623  -0.52234  -0.52031  -0.51995
 Alpha  occ. eigenvalues --   -0.51773  -0.51687  -0.51568  -0.50965  -0.50440
 Alpha  occ. eigenvalues --   -0.50321  -0.50231  -0.50128  -0.50097  -0.49934
 Alpha  occ. eigenvalues --   -0.49797  -0.49556  -0.49228  -0.49062  -0.49001
 Alpha  occ. eigenvalues --   -0.48653  -0.48587  -0.48529  -0.48118  -0.47975
 Alpha  occ. eigenvalues --   -0.47781  -0.47579  -0.47447  -0.47061  -0.46861
 Alpha  occ. eigenvalues --   -0.46673  -0.46448  -0.46280  -0.46182  -0.46076
 Alpha  occ. eigenvalues --   -0.45935  -0.45742  -0.45229  -0.45193  -0.44841
 Alpha  occ. eigenvalues --   -0.44807  -0.44706  -0.44389  -0.44319  -0.44282
 Alpha  occ. eigenvalues --   -0.43954  -0.43669  -0.43581  -0.43430  -0.43004
 Alpha  occ. eigenvalues --   -0.42582  -0.42532  -0.42198  -0.42111  -0.41711
 Alpha  occ. eigenvalues --   -0.41575  -0.41126  -0.41112  -0.40914  -0.40853
 Alpha  occ. eigenvalues --   -0.40616  -0.40413  -0.40295  -0.40206  -0.39959
 Alpha  occ. eigenvalues --   -0.39613  -0.39587  -0.39296  -0.39289  -0.38936
 Alpha  occ. eigenvalues --   -0.38542  -0.38337  -0.38312  -0.37475  -0.37327
 Alpha  occ. eigenvalues --   -0.36964  -0.36742  -0.36580  -0.36154  -0.35939
 Alpha  occ. eigenvalues --   -0.35760  -0.35576  -0.35553  -0.34568  -0.34425
 Alpha  occ. eigenvalues --   -0.34013  -0.33407  -0.32848  -0.31179  -0.30971
 Alpha  occ. eigenvalues --   -0.30861  -0.30405  -0.29816  -0.29658  -0.24225
 Alpha  occ. eigenvalues --   -0.20449
 Alpha virt. eigenvalues --   -0.08024  -0.01996   0.00278   0.02608   0.02941
 Alpha virt. eigenvalues --    0.03559   0.05430   0.05684   0.06008   0.07037
 Alpha virt. eigenvalues --    0.07891   0.08248   0.08612   0.08746   0.09076

 Mulliken charges:
               1
     1  Mg   0.817417
     2  C   -0.076776
     3  C   -0.092231
     4  C   -0.078907
     5  C   -0.080973
     6  N   -0.336828
     7  C   -0.019728
     8  C   -0.031546
     9  C   -0.050120
    10  C    0.079296
    11  C    0.024843
    12  C    0.094907
    13  C    0.058872
    14  C    0.164741
    15  O   -0.239196
    16  O   -0.345847
    17  N   -0.354296
    18  C    0.165002
    19  C   -0.148282
    20  C   -0.016921
    21  C    0.170866
    22  C    0.089202
    23  C   -0.001320
    24  O   -0.202246
    25  C    0.053534
    26  N   -0.273534
    27  C    0.026150
    28  C   -0.070352
    29  C   -0.013291
    30  C    0.046555
    31  C    0.083570
    32  C    0.037451
    33  C   -0.011527
    34  N   -0.292604
    35  C    0.098674
    36  C   -0.158402
    37  C   -0.055669
    38  C    0.138676
    39  C    0.139873
    40  C    0.033699
    41  O   -0.173384
    42  C    0.021270
    43  C    0.214297
    44  O   -0.217590
    45  O   -0.336430
    46  C    0.184548
    47  C    0.262557
    48  C   -0.100286
    49  C   -0.217222
    50  C    0.060793
    51  C    0.055464
    52  C    0.065002
    53  C    0.058834
    54  C   -0.154207
    55  C    0.037830
    56  C    0.044952
    57  C    0.001364
    58  C    0.037730
    59  C   -0.133894
    60  C    0.048092
    61  C    0.061809
    62  C   -0.008614
    63  C    0.056902
    64  C   -0.151152
    65  C    0.030659
    66  C    0.054629
    67  H   -0.035955
    68  H   -0.004483
    69  H   -0.030366
    70  H    0.043083
    71  H    0.010407
    72  H    0.011173
    73  H    0.019782
    74  H    0.031896
    75  H    0.007087
    76  H    0.022869
    77  H    0.013993
    78  H    0.032134
    79  H    0.029422
    80  H    0.008820
    81  H    0.046250
    82  H    0.022020
    83  H    0.028645
    84  H    0.024852
    85  H    0.011799
    86  H    0.001168
    87  H    0.000000
    88  H    0.037707
    89  H    0.011233
    90  H    0.003664
    91  H    0.001792
    92  H    0.010719
    93  H    0.018726
    94  H    0.012779
    95  H    0.052818
    96  H    0.033064
    97  H    0.022592
    98  H    0.033271
    99  H    0.022697
   100  H    0.030158
   101  H    0.052730
   102  H    0.035534
   103  H    0.037183
   104  H   -0.001427
   105  H    0.026527
   106  H    0.031208
   107  H    0.039993
   108  H   -0.000322
   109  H   -0.010395
   110  H    0.001240
   111  H    0.009292
   112  H   -0.016567
   113  H   -0.007835
   114  H    0.008923
   115  H    0.016739
   116  H    0.009925
   117  H    0.007902
   118  H    0.000544
   119  H   -0.001998
   120  H   -0.008207
   121  H   -0.005891
   122  H   -0.021578
   123  H   -0.000600
   124  H   -0.008031
   125  H    0.010821
   126  H    0.004364
   127  H    0.018103
   128  H   -0.008348
   129  H   -0.011861
   130  H   -0.000110
   131  H    0.000241
   132  H   -0.002918
   133  H   -0.005876
   134  H   -0.005620
   135  H    0.008001
   136  H    0.021891
   137  H   -0.002366
   138  H   -0.006094
   139  H    0.013071
   140  H    0.009314
 Sum of Mulliken charges =  -0.00000

 Dipole moment (field-independent basis, Debye):
    X=              5.4843    Y=              2.1589    Z=             -2.6230  Tot=              6.4512
 Quadrupole moment (field-independent basis, Debye-Ang):
   XX=           -395.4857   YY=           -433.5662   ZZ=           -403.3445
   XY=            -36.0550   XZ=             20.7050   YZ=              5.7322

 Normal termination of Gaussian 16 at Wed May  4 03:47:00 2022.
