 Gaussian 16, Revision A.03,
 Gaussian 16:  ES64L-G16RevA.03 25-Dec-2016

 ---------------------------------
 #p PBE1PBE/Def2SVP td=(nstates=5)
 ---------------------------------

 ------------------------------------------------------
 step_1351_chromophore_21 TDDFT with PBE1PBE functional
 ------------------------------------------------------
 Symbolic Z-matrix:
 Charge =  0 Multiplicity = 1

                         Standard orientation:
 ---------------------------------------------------------------------
 Center     Atomic      Atomic             Coordinates (Angstroms)
 Number     Number       Type             X           Y           Z
 ---------------------------------------------------------------------
      1         12           0       -4.866362    1.199988    0.030890
      2          6           0       -4.983179   -2.210819   -0.219455
      3          6           0       -1.548581    1.149791    0.400306
      4          6           0       -4.889109    4.535100    0.056930
      5          6           0       -8.424350    1.145864    0.113522
      6          7           0       -3.501684   -0.374967    0.026310
      7          6           0       -3.695934   -1.689177   -0.305044
      8          6           0       -2.403124   -2.413449   -0.517608
      9          6           0       -1.355691   -1.373128   -0.034641
     10          6           0       -2.158701   -0.110907    0.146765
     11          6           0       -0.525739   -1.763966    1.241079
     12          6           0       -2.255622   -2.945155   -1.952476
     13          6           0       -1.226050   -4.073731   -2.125756
     14          6           0       -0.345805   -4.564447   -0.957726
     15          8           0       -0.660493   -5.375648   -0.091474
     16          8           0        0.926042   -4.021552   -0.995438
     17          7           0       -3.432776    2.661523    0.040633
     18          6           0       -2.149534    2.404119    0.284656
     19          6           0       -1.400699    3.675952    0.244449
     20          6           0       -2.369533    4.718175    0.086997
     21          6           0       -3.672450    3.974935    0.095063
     22          6           0        0.067507    3.832006    0.496921
     23          6           0       -2.175476    6.229177   -0.028095
     24          8           0       -3.100337    7.021747   -0.090782
     25          6           0       -0.796310    6.937576   -0.151488
     26          7           0       -6.464221    2.634833    0.290656
     27          6           0       -6.143245    3.963275    0.097160
     28          6           0       -7.417965    4.774597   -0.134593
     29          6           0       -8.547087    3.665750   -0.263619
     30          6           0       -7.754902    2.358664    0.086542
     31          6           0       -7.728504    5.776141    0.986637
     32          6           0       -9.379752    3.652597   -1.547851
     33          6           0      -10.880363    3.485039   -1.451627
     34          7           0       -6.373500   -0.234299    0.303463
     35          6           0       -7.791027   -0.113974    0.279707
     36          6           0       -8.426141   -1.455751    0.346223
     37          6           0       -7.292266   -2.298906    0.050185
     38          6           0       -6.088037   -1.452271    0.070776
     39          6           0       -9.853603   -1.726904    0.456485
     40          6           0       -6.896061   -3.661626   -0.001841
     41          8           0       -7.510010   -4.712514    0.033521
     42          6           0       -5.362582   -3.643491   -0.198492
     43          6           0       -4.692692   -4.508812    0.868086
     44          8           0       -4.397465   -4.223552    2.016568
     45          8           0       -4.241046   -5.623117    0.213202
     46          6           0       -3.602024   -6.596333    1.076215
     47          6           0        1.882040   -4.379164    0.064575
     48          6           0        2.941553   -3.253068    0.084376
     49          6           0        3.753841   -3.020219    1.100481
     50          6           0        3.670076   -3.751916    2.476536
     51          6           0        4.839702   -1.902233    1.075293
     52          6           0        6.330543   -2.315420    0.864389
     53          6           0        6.895896   -2.070063   -0.527820
     54          6           0        8.057322   -0.997429   -0.501556
     55          6           0        7.523044    0.479236   -0.800151
     56          6           0        9.125856   -1.424095   -1.600712
     57          6           0       10.611835   -1.123892   -1.209114
     58          6           0       11.527384   -0.396763   -2.222129
     59          6           0       12.305586    0.866509   -1.692081
     60          6           0       12.255349    1.995728   -2.767679
     61          6           0       13.720825    0.418086   -1.271413
     62          6           0       14.011281    0.518774    0.243097
     63          6           0       14.710228    1.845216    0.752594
     64          6           0       13.957563    2.637520    1.911788
     65          6           0       13.549146    4.062053    1.386715
     66          6           0       14.720574    2.718727    3.238714
     67          1           0       -0.462459    1.133674    0.513217
     68          1           0       -4.975018    5.622310    0.102424
     69          1           0       -9.514562    1.151513    0.040557
     70          1           0       -2.371039   -3.316123    0.092018
     71          1           0       -0.499402   -1.186099   -0.682165
     72          1           0       -1.158142   -1.408318    2.055435
     73          1           0        0.412339   -1.238781    1.415542
     74          1           0       -0.365038   -2.820803    1.454854
     75          1           0       -1.786425   -2.155594   -2.539493
     76          1           0       -3.173459   -3.331299   -2.394968
     77          1           0       -0.552280   -3.720441   -2.906412
     78          1           0       -1.706037   -4.907368   -2.638981
     79          1           0        0.455355    4.408493   -0.342764
     80          1           0        0.676533    2.928776    0.517373
     81          1           0        0.291533    4.368165    1.419327
     82          1           0       -0.966332    8.008117   -0.033909
     83          1           0       -0.548030    6.959180   -1.213026
     84          1           0        0.032049    6.515747    0.418135
     85          1           0       -7.418664    5.331322   -1.070682
     86          1           0       -9.258767    3.767508    0.555946
     87          1           0       -8.685654    5.579994    1.470843
     88          1           0       -7.684355    6.814345    0.656399
     89          1           0       -7.076104    5.388772    1.768497
     90          1           0       -9.055847    2.857513   -2.219956
     91          1           0       -9.294034    4.569085   -2.132408
     92          1           0      -11.309407    4.486958   -1.437454
     93          1           0      -11.197509    2.925782   -0.570974
     94          1           0      -11.271939    3.017672   -2.355462
     95          1           0      -10.079126   -1.648941    1.520159
     96          1           0      -10.010475   -2.683924   -0.041046
     97          1           0      -10.348269   -1.033474   -0.223891
     98          1           0       -5.138141   -4.035038   -1.191420
     99          1           0       -3.089180   -7.315274    0.436398
    100          1           0       -4.397429   -7.193026    1.522062
    101          1           0       -2.874882   -6.098842    1.718768
    102          1           0        2.355083   -5.331851   -0.171163
    103          1           0        1.378618   -4.523082    1.020701
    104          1           0        3.163561   -2.726131   -0.843501
    105          1           0        4.544275   -3.623369    3.116220
    106          1           0        3.417130   -4.798978    2.311241
    107          1           0        2.819680   -3.195790    2.872354
    108          1           0        4.651158   -1.389675    2.017817
    109          1           0        4.576870   -1.288375    0.214555
    110          1           0        6.265153   -3.393267    1.011334
    111          1           0        6.833779   -1.791323    1.676688
    112          1           0        6.113900   -1.778809   -1.229551
    113          1           0        7.196163   -2.971746   -1.061452
    114          1           0        8.462306   -0.853488    0.500268
    115          1           0        8.085165    1.052031   -1.537996
    116          1           0        7.595689    0.965913    0.171795
    117          1           0        6.501533    0.344005   -1.155213
    118          1           0        8.814888   -0.975300   -2.544705
    119          1           0        9.165260   -2.501335   -1.759705
    120          1           0       11.053582   -2.110088   -1.065310
    121          1           0       10.709160   -0.583448   -0.267615
    122          1           0       10.804011   -0.131465   -2.993051
    123          1           0       12.164296   -1.190365   -2.612764
    124          1           0       11.795098    1.328088   -0.846672
    125          1           0       12.537132    2.926179   -2.274536
    126          1           0       11.194389    2.065485   -3.012357
    127          1           0       12.847420    1.678945   -3.625021
    128          1           0       14.474279    0.919527   -1.879894
    129          1           0       13.845363   -0.647289   -1.461638
    130          1           0       14.660599   -0.342902    0.399151
    131          1           0       13.040178    0.496980    0.738468
    132          1           0       14.825115    2.465351   -0.135768
    133          1           0       15.673743    1.511054    1.136528
    134          1           0       13.064297    2.034545    2.077933
    135          1           0       12.629325    3.979924    0.808146
    136          1           0       14.319302    4.646369    0.881368
    137          1           0       13.280672    4.644261    2.267560
    138          1           0       15.651345    2.163238    3.120755
    139          1           0       14.167557    2.231384    4.042416
    140          1           0       15.041150    3.719835    3.524987
 ---------------------------------------------------------------------

 SCF Done:  E(RPBE1PBE) =  -3005.34131652     A.U. after   15 cycles

 Excitation energies and oscillator strengths:

 Excited State   1:      Singlet-A      1.8503 eV  670.08 nm  f=0.3755  <S**2>=0.000
     245 -> 248       -0.17324
     246 -> 247        0.69242
     246 <- 247       -0.10792
 This state for optimization and/or second-order correction.
 Total Energy, E(TD-HF/TD-DFT) =  -3005.27332013
 Copying the excited state density for this state as the 1-particle RhoCI density.

 Excited State   2:      Singlet-A      2.3019 eV  538.62 nm  f=0.0500  <S**2>=0.000
     245 -> 247        0.61361
     246 -> 248        0.33866

 Excited State   3:      Singlet-A      2.8877 eV  429.36 nm  f=0.0009  <S**2>=0.000
     244 -> 247        0.67162
     244 -> 249       -0.15668
     244 -> 250        0.11295

 Excited State   4:      Singlet-A      3.1763 eV  390.34 nm  f=0.2189  <S**2>=0.000
     242 -> 247       -0.36253
     242 -> 249       -0.10533
     243 -> 247       -0.18956
     245 -> 247       -0.21832
     246 -> 248        0.46540
     246 -> 249       -0.17833

 Excited State   5:      Singlet-A      3.2053 eV  386.82 nm  f=0.1004  <S**2>=0.000
     242 -> 247        0.54095
     242 -> 248       -0.10888
     242 -> 249        0.15408
     243 -> 247       -0.14969
     245 -> 247       -0.14119
     246 -> 248        0.29087
     246 -> 249       -0.11407

 The electronic state is 1-A.
 Alpha  occ. eigenvalues --  -46.91336 -19.26259 -19.24431 -19.20989 -19.19408
 Alpha  occ. eigenvalues --  -19.19057 -19.17940 -14.41755 -14.41086 -14.39239
 Alpha  occ. eigenvalues --  -14.38642 -10.37649 -10.35571 -10.32733 -10.30544
 Alpha  occ. eigenvalues --  -10.30431 -10.28973 -10.28412 -10.28008 -10.27946
 Alpha  occ. eigenvalues --  -10.27696 -10.27691 -10.27406 -10.26904 -10.26535
 Alpha  occ. eigenvalues --  -10.26089 -10.25881 -10.25835 -10.25815 -10.25572
 Alpha  occ. eigenvalues --  -10.25534 -10.25317 -10.25286 -10.24753 -10.24711
 Alpha  occ. eigenvalues --  -10.24686 -10.24579 -10.24558 -10.24413 -10.24351
 Alpha  occ. eigenvalues --  -10.24233 -10.24173 -10.23890 -10.23875 -10.23676
 Alpha  occ. eigenvalues --  -10.23600 -10.23551 -10.23466 -10.23343 -10.23307
 Alpha  occ. eigenvalues --  -10.23246 -10.23232 -10.22952 -10.22704 -10.22650
 Alpha  occ. eigenvalues --  -10.22650 -10.22646 -10.22626 -10.22437 -10.22348
 Alpha  occ. eigenvalues --  -10.22245 -10.22177 -10.22123 -10.22078 -10.21997
 Alpha  occ. eigenvalues --  -10.21819  -3.13632  -1.86485  -1.85978  -1.85890
 Alpha  occ. eigenvalues --   -1.11270  -1.10338  -1.05097  -1.03759  -1.02786
 Alpha  occ. eigenvalues --   -1.01777  -0.99687  -0.99020  -0.98086  -0.97266
 Alpha  occ. eigenvalues --   -0.87087  -0.84881  -0.84447  -0.83659  -0.83462
 Alpha  occ. eigenvalues --   -0.82591  -0.82386  -0.81933  -0.81790  -0.81211
 Alpha  occ. eigenvalues --   -0.81170  -0.79956  -0.78803  -0.78044  -0.77724
 Alpha  occ. eigenvalues --   -0.76713  -0.75933  -0.75191  -0.74986  -0.74327
 Alpha  occ. eigenvalues --   -0.74226  -0.73067  -0.72538  -0.71350  -0.70462
 Alpha  occ. eigenvalues --   -0.69979  -0.69610  -0.69205  -0.69075  -0.68740
 Alpha  occ. eigenvalues --   -0.68058  -0.67217  -0.66274  -0.65287  -0.62886
 Alpha  occ. eigenvalues --   -0.62541  -0.62221  -0.61761  -0.60887  -0.60283
 Alpha  occ. eigenvalues --   -0.59892  -0.59471  -0.59076  -0.58743  -0.58342
 Alpha  occ. eigenvalues --   -0.58262  -0.57423  -0.57132  -0.55762  -0.55260
 Alpha  occ. eigenvalues --   -0.55015  -0.53957  -0.53332  -0.53198  -0.51989
 Alpha  occ. eigenvalues --   -0.51701  -0.51112  -0.50942  -0.50350  -0.50071
 Alpha  occ. eigenvalues --   -0.49719  -0.49363  -0.48782  -0.48679  -0.48502
 Alpha  occ. eigenvalues --   -0.48218  -0.48080  -0.47915  -0.47722  -0.47432
 Alpha  occ. eigenvalues --   -0.47329  -0.47226  -0.46628  -0.46598  -0.46517
 Alpha  occ. eigenvalues --   -0.46296  -0.46241  -0.46088  -0.45475  -0.45083
 Alpha  occ. eigenvalues --   -0.44811  -0.44745  -0.44710  -0.44652  -0.44523
 Alpha  occ. eigenvalues --   -0.44396  -0.44105  -0.43855  -0.43665  -0.43605
 Alpha  occ. eigenvalues --   -0.43264  -0.43196  -0.43114  -0.42714  -0.42596
 Alpha  occ. eigenvalues --   -0.42385  -0.42304  -0.42164  -0.41744  -0.41435
 Alpha  occ. eigenvalues --   -0.41369  -0.41125  -0.40992  -0.40920  -0.40689
 Alpha  occ. eigenvalues --   -0.40611  -0.40498  -0.39967  -0.39877  -0.39546
 Alpha  occ. eigenvalues --   -0.39486  -0.39467  -0.39109  -0.39031  -0.39011
 Alpha  occ. eigenvalues --   -0.38727  -0.38420  -0.38404  -0.38271  -0.37866
 Alpha  occ. eigenvalues --   -0.37377  -0.37299  -0.37052  -0.36999  -0.36622
 Alpha  occ. eigenvalues --   -0.36281  -0.35895  -0.35825  -0.35786  -0.35698
 Alpha  occ. eigenvalues --   -0.35360  -0.35269  -0.35124  -0.35043  -0.34744
 Alpha  occ. eigenvalues --   -0.34509  -0.34403  -0.34165  -0.34109  -0.33770
 Alpha  occ. eigenvalues --   -0.33446  -0.33264  -0.33145  -0.32479  -0.32307
 Alpha  occ. eigenvalues --   -0.31795  -0.31762  -0.31469  -0.31070  -0.31010
 Alpha  occ. eigenvalues --   -0.30664  -0.30523  -0.30408  -0.29464  -0.29373
 Alpha  occ. eigenvalues --   -0.29214  -0.28448  -0.28229  -0.26694  -0.26235
 Alpha  occ. eigenvalues --   -0.25948  -0.25645  -0.25409  -0.24675  -0.21090
 Alpha  occ. eigenvalues --   -0.18168
 Alpha virt. eigenvalues --   -0.10588  -0.05464  -0.03871  -0.01774  -0.01041
 Alpha virt. eigenvalues --    0.00236   0.01154   0.01371   0.01462   0.03726
 Alpha virt. eigenvalues --    0.04302   0.04672   0.04919   0.05363   0.05490

 Mulliken charges:
               1
     1  Mg   0.970472
     2  C   -0.070618
     3  C   -0.073056
     4  C   -0.060211
     5  C   -0.072951
     6  N   -0.447280
     7  C    0.057142
     8  C   -0.111309
     9  C   -0.124010
    10  C    0.112553
    11  C   -0.031768
    12  C    0.045451
    13  C   -0.006912
    14  C    0.223795
    15  O   -0.272250
    16  O   -0.376875
    17  N   -0.477574
    18  C    0.181077
    19  C   -0.176382
    20  C   -0.059894
    21  C    0.192028
    22  C    0.032589
    23  C    0.047236
    24  O   -0.238262
    25  C   -0.019375
    26  N   -0.383181
    27  C    0.052726
    28  C   -0.147733
    29  C   -0.085168
    30  C    0.087205
    31  C    0.026547
    32  C   -0.023352
    33  C   -0.083975
    34  N   -0.424310
    35  C    0.116214
    36  C   -0.160358
    37  C   -0.087747
    38  C    0.180623
    39  C    0.076228
    40  C    0.117639
    41  O   -0.220491
    42  C   -0.087835
    43  C    0.297772
    44  O   -0.252694
    45  O   -0.367626
    46  C    0.130234
    47  C    0.226265
    48  C   -0.116622
    49  C   -0.253192
    50  C   -0.006469
    51  C   -0.006004
    52  C   -0.003140
    53  C    0.008702
    54  C   -0.236578
    55  C   -0.018510
    56  C   -0.011746
    57  C   -0.054919
    58  C   -0.019380
    59  C   -0.219610
    60  C   -0.016761
    61  C    0.012900
    62  C   -0.076986
    63  C    0.007540
    64  C   -0.243282
    65  C   -0.034336
    66  C   -0.005896
    67  H   -0.002587
    68  H    0.027305
    69  H    0.003090
    70  H    0.088679
    71  H    0.047275
    72  H    0.040524
    73  H    0.046305
    74  H    0.060024
    75  H    0.040093
    76  H    0.055011
    77  H    0.046383
    78  H    0.062986
    79  H    0.057198
    80  H    0.035231
    81  H    0.072643
    82  H    0.049357
    83  H    0.056157
    84  H    0.049684
    85  H    0.048992
    86  H    0.040099
    87  H    0.028120
    88  H    0.063729
    89  H    0.040757
    90  H    0.037165
    91  H    0.034596
    92  H    0.039322
    93  H    0.044556
    94  H    0.040980
    95  H    0.080337
    96  H    0.061536
    97  H    0.049422
    98  H    0.072357
    99  H    0.045067
   100  H    0.053267
   101  H    0.073520
   102  H    0.062471
   103  H    0.061014
   104  H    0.028200
   105  H    0.053206
   106  H    0.058364
   107  H    0.068743
   108  H    0.032450
   109  H    0.022905
   110  H    0.036766
   111  H    0.040112
   112  H    0.014228
   113  H    0.023653
   114  H    0.044576
   115  H    0.043670
   116  H    0.036886
   117  H    0.034708
   118  H    0.031196
   119  H    0.029967
   120  H    0.025242
   121  H    0.026423
   122  H    0.011936
   123  H    0.031207
   124  H    0.029887
   125  H    0.039929
   126  H    0.033183
   127  H    0.045586
   128  H    0.023239
   129  H    0.020765
   130  H    0.032153
   131  H    0.033635
   132  H    0.029784
   133  H    0.026385
   134  H    0.032243
   135  H    0.036977
   136  H    0.048440
   137  H    0.026580
   138  H    0.021455
   139  H    0.040306
   140  H    0.036039
 Sum of Mulliken charges =  -0.00000

 Dipole moment (field-independent basis, Debye):
    X=              5.3675    Y=              2.0147    Z=             -2.6513  Tot=              6.3165
 Quadrupole moment (field-independent basis, Debye-Ang):
   XX=           -389.3482   YY=           -430.6242   ZZ=           -400.8039
   XY=            -36.8080   XZ=             21.0336   YZ=              5.6204

 Normal termination of Gaussian 16 at Wed May  4 04:08:38 2022.
