 Gaussian 16, Revision A.03,
 Gaussian 16:  ES64L-G16RevA.03 25-Dec-2016

 --------------------------------
 #p wB97XD/Def2SVP td=(nstates=5)
 --------------------------------

 -----------------------------------------------------
 step_1351_chromophore_21 TDDFT with wB97XD functional
 -----------------------------------------------------
 Symbolic Z-matrix:
 Charge =  0 Multiplicity = 1

                         Standard orientation:
 ---------------------------------------------------------------------
 Center     Atomic      Atomic             Coordinates (Angstroms)
 Number     Number       Type             X           Y           Z
 ---------------------------------------------------------------------
      1         12           0       -4.866362    1.199988    0.030890
      2          6           0       -4.983179   -2.210819   -0.219455
      3          6           0       -1.548581    1.149791    0.400306
      4          6           0       -4.889109    4.535100    0.056930
      5          6           0       -8.424350    1.145864    0.113522
      6          7           0       -3.501684   -0.374967    0.026310
      7          6           0       -3.695934   -1.689177   -0.305044
      8          6           0       -2.403124   -2.413449   -0.517608
      9          6           0       -1.355691   -1.373128   -0.034641
     10          6           0       -2.158701   -0.110907    0.146765
     11          6           0       -0.525739   -1.763966    1.241079
     12          6           0       -2.255622   -2.945155   -1.952476
     13          6           0       -1.226050   -4.073731   -2.125756
     14          6           0       -0.345805   -4.564447   -0.957726
     15          8           0       -0.660493   -5.375648   -0.091474
     16          8           0        0.926042   -4.021552   -0.995438
     17          7           0       -3.432776    2.661523    0.040633
     18          6           0       -2.149534    2.404119    0.284656
     19          6           0       -1.400699    3.675952    0.244449
     20          6           0       -2.369533    4.718175    0.086997
     21          6           0       -3.672450    3.974935    0.095063
     22          6           0        0.067507    3.832006    0.496921
     23          6           0       -2.175476    6.229177   -0.028095
     24          8           0       -3.100337    7.021747   -0.090782
     25          6           0       -0.796310    6.937576   -0.151488
     26          7           0       -6.464221    2.634833    0.290656
     27          6           0       -6.143245    3.963275    0.097160
     28          6           0       -7.417965    4.774597   -0.134593
     29          6           0       -8.547087    3.665750   -0.263619
     30          6           0       -7.754902    2.358664    0.086542
     31          6           0       -7.728504    5.776141    0.986637
     32          6           0       -9.379752    3.652597   -1.547851
     33          6           0      -10.880363    3.485039   -1.451627
     34          7           0       -6.373500   -0.234299    0.303463
     35          6           0       -7.791027   -0.113974    0.279707
     36          6           0       -8.426141   -1.455751    0.346223
     37          6           0       -7.292266   -2.298906    0.050185
     38          6           0       -6.088037   -1.452271    0.070776
     39          6           0       -9.853603   -1.726904    0.456485
     40          6           0       -6.896061   -3.661626   -0.001841
     41          8           0       -7.510010   -4.712514    0.033521
     42          6           0       -5.362582   -3.643491   -0.198492
     43          6           0       -4.692692   -4.508812    0.868086
     44          8           0       -4.397465   -4.223552    2.016568
     45          8           0       -4.241046   -5.623117    0.213202
     46          6           0       -3.602024   -6.596333    1.076215
     47          6           0        1.882040   -4.379164    0.064575
     48          6           0        2.941553   -3.253068    0.084376
     49          6           0        3.753841   -3.020219    1.100481
     50          6           0        3.670076   -3.751916    2.476536
     51          6           0        4.839702   -1.902233    1.075293
     52          6           0        6.330543   -2.315420    0.864389
     53          6           0        6.895896   -2.070063   -0.527820
     54          6           0        8.057322   -0.997429   -0.501556
     55          6           0        7.523044    0.479236   -0.800151
     56          6           0        9.125856   -1.424095   -1.600712
     57          6           0       10.611835   -1.123892   -1.209114
     58          6           0       11.527384   -0.396763   -2.222129
     59          6           0       12.305586    0.866509   -1.692081
     60          6           0       12.255349    1.995728   -2.767679
     61          6           0       13.720825    0.418086   -1.271413
     62          6           0       14.011281    0.518774    0.243097
     63          6           0       14.710228    1.845216    0.752594
     64          6           0       13.957563    2.637520    1.911788
     65          6           0       13.549146    4.062053    1.386715
     66          6           0       14.720574    2.718727    3.238714
     67          1           0       -0.462459    1.133674    0.513217
     68          1           0       -4.975018    5.622310    0.102424
     69          1           0       -9.514562    1.151513    0.040557
     70          1           0       -2.371039   -3.316123    0.092018
     71          1           0       -0.499402   -1.186099   -0.682165
     72          1           0       -1.158142   -1.408318    2.055435
     73          1           0        0.412339   -1.238781    1.415542
     74          1           0       -0.365038   -2.820803    1.454854
     75          1           0       -1.786425   -2.155594   -2.539493
     76          1           0       -3.173459   -3.331299   -2.394968
     77          1           0       -0.552280   -3.720441   -2.906412
     78          1           0       -1.706037   -4.907368   -2.638981
     79          1           0        0.455355    4.408493   -0.342764
     80          1           0        0.676533    2.928776    0.517373
     81          1           0        0.291533    4.368165    1.419327
     82          1           0       -0.966332    8.008117   -0.033909
     83          1           0       -0.548030    6.959180   -1.213026
     84          1           0        0.032049    6.515747    0.418135
     85          1           0       -7.418664    5.331322   -1.070682
     86          1           0       -9.258767    3.767508    0.555946
     87          1           0       -8.685654    5.579994    1.470843
     88          1           0       -7.684355    6.814345    0.656399
     89          1           0       -7.076104    5.388772    1.768497
     90          1           0       -9.055847    2.857513   -2.219956
     91          1           0       -9.294034    4.569085   -2.132408
     92          1           0      -11.309407    4.486958   -1.437454
     93          1           0      -11.197509    2.925782   -0.570974
     94          1           0      -11.271939    3.017672   -2.355462
     95          1           0      -10.079126   -1.648941    1.520159
     96          1           0      -10.010475   -2.683924   -0.041046
     97          1           0      -10.348269   -1.033474   -0.223891
     98          1           0       -5.138141   -4.035038   -1.191420
     99          1           0       -3.089180   -7.315274    0.436398
    100          1           0       -4.397429   -7.193026    1.522062
    101          1           0       -2.874882   -6.098842    1.718768
    102          1           0        2.355083   -5.331851   -0.171163
    103          1           0        1.378618   -4.523082    1.020701
    104          1           0        3.163561   -2.726131   -0.843501
    105          1           0        4.544275   -3.623369    3.116220
    106          1           0        3.417130   -4.798978    2.311241
    107          1           0        2.819680   -3.195790    2.872354
    108          1           0        4.651158   -1.389675    2.017817
    109          1           0        4.576870   -1.288375    0.214555
    110          1           0        6.265153   -3.393267    1.011334
    111          1           0        6.833779   -1.791323    1.676688
    112          1           0        6.113900   -1.778809   -1.229551
    113          1           0        7.196163   -2.971746   -1.061452
    114          1           0        8.462306   -0.853488    0.500268
    115          1           0        8.085165    1.052031   -1.537996
    116          1           0        7.595689    0.965913    0.171795
    117          1           0        6.501533    0.344005   -1.155213
    118          1           0        8.814888   -0.975300   -2.544705
    119          1           0        9.165260   -2.501335   -1.759705
    120          1           0       11.053582   -2.110088   -1.065310
    121          1           0       10.709160   -0.583448   -0.267615
    122          1           0       10.804011   -0.131465   -2.993051
    123          1           0       12.164296   -1.190365   -2.612764
    124          1           0       11.795098    1.328088   -0.846672
    125          1           0       12.537132    2.926179   -2.274536
    126          1           0       11.194389    2.065485   -3.012357
    127          1           0       12.847420    1.678945   -3.625021
    128          1           0       14.474279    0.919527   -1.879894
    129          1           0       13.845363   -0.647289   -1.461638
    130          1           0       14.660599   -0.342902    0.399151
    131          1           0       13.040178    0.496980    0.738468
    132          1           0       14.825115    2.465351   -0.135768
    133          1           0       15.673743    1.511054    1.136528
    134          1           0       13.064297    2.034545    2.077933
    135          1           0       12.629325    3.979924    0.808146
    136          1           0       14.319302    4.646369    0.881368
    137          1           0       13.280672    4.644261    2.267560
    138          1           0       15.651345    2.163238    3.120755
    139          1           0       14.167557    2.231384    4.042416
    140          1           0       15.041150    3.719835    3.524987
 ---------------------------------------------------------------------

 SCF Done:  E(RwB97XD) =  -3007.85159412     A.U. after   20 cycles

 Excitation energies and oscillator strengths:

 Excited State   1:      Singlet-A      1.6427 eV  754.77 nm  f=0.3844  <S**2>=0.000
     245 -> 248        0.18689
     246 -> 247        0.68249
     245 <- 248        0.11632
 This state for optimization and/or second-order correction.
 Total Energy, E(TD-HF/TD-DFT) =  -3007.79122662
 Copying the excited state density for this state as the 1-particle RhoCI density.

 Excited State   2:      Singlet-A      2.2503 eV  550.97 nm  f=0.0393  <S**2>=0.000
     245 -> 247        0.59180
     246 -> 248       -0.37562

 Excited State   3:      Singlet-A      3.4079 eV  363.82 nm  f=0.6396  <S**2>=0.000
     242 -> 247        0.10833
     243 -> 247        0.17448
     244 -> 247       -0.15860
     245 -> 247        0.33440
     246 -> 248        0.54366
     245 <- 247       -0.10422

 Excited State   4:      Singlet-A      3.4369 eV  360.74 nm  f=0.1155  <S**2>=0.000
     243 -> 247       -0.16722
     244 -> 247        0.50671
     244 -> 249       -0.25446
     244 -> 250        0.21354
     245 -> 247        0.13555
     246 -> 248        0.22212

 Excited State   5:      Singlet-A      3.6653 eV  338.27 nm  f=0.0158  <S**2>=0.000
     241 -> 247       -0.10507
     241 -> 249       -0.10610
     242 -> 247       -0.25860
     243 -> 247        0.55340
     244 -> 247        0.20081
     246 -> 249        0.11380

 The electronic state is 1-A.
 Alpha  occ. eigenvalues --  -46.94318 -19.30776 -19.28954 -19.25623 -19.24088
 Alpha  occ. eigenvalues --  -19.23969 -19.22699 -14.46764 -14.46213 -14.44271
 Alpha  occ. eigenvalues --  -14.43581 -10.44401 -10.42372 -10.39667 -10.37383
 Alpha  occ. eigenvalues --  -10.36915 -10.35359 -10.34675 -10.34301 -10.34167
 Alpha  occ. eigenvalues --  -10.34093 -10.33851 -10.33826 -10.33377 -10.33136
 Alpha  occ. eigenvalues --  -10.32538 -10.32139 -10.32105 -10.32093 -10.31917
 Alpha  occ. eigenvalues --  -10.31906 -10.31822 -10.31593 -10.31159 -10.31069
 Alpha  occ. eigenvalues --  -10.30917 -10.30909 -10.30829 -10.30804 -10.30790
 Alpha  occ. eigenvalues --  -10.30660 -10.30420 -10.30237 -10.30166 -10.30046
 Alpha  occ. eigenvalues --  -10.29980 -10.29976 -10.29970 -10.29745 -10.29663
 Alpha  occ. eigenvalues --  -10.29623 -10.29578 -10.29305 -10.29171 -10.29044
 Alpha  occ. eigenvalues --  -10.29020 -10.28994 -10.28864 -10.28794 -10.28703
 Alpha  occ. eigenvalues --  -10.28609 -10.28607 -10.28516 -10.28477 -10.28358
 Alpha  occ. eigenvalues --  -10.28245  -3.20435  -1.94044  -1.93538  -1.93447
 Alpha  occ. eigenvalues --   -1.18614  -1.17695  -1.12673  -1.11193  -1.10095
 Alpha  occ. eigenvalues --   -1.09109  -1.07093  -1.06365  -1.05445  -1.04621
 Alpha  occ. eigenvalues --   -0.94659  -0.92532  -0.92074  -0.91282  -0.91137
 Alpha  occ. eigenvalues --   -0.90141  -0.90055  -0.89557  -0.89392  -0.88957
 Alpha  occ. eigenvalues --   -0.88840  -0.87577  -0.86454  -0.85642  -0.85300
 Alpha  occ. eigenvalues --   -0.84363  -0.83575  -0.82842  -0.82635  -0.82099
 Alpha  occ. eigenvalues --   -0.81901  -0.80715  -0.80246  -0.78923  -0.78136
 Alpha  occ. eigenvalues --   -0.77567  -0.77313  -0.76885  -0.76653  -0.76385
 Alpha  occ. eigenvalues --   -0.75685  -0.74729  -0.73822  -0.72875  -0.70527
 Alpha  occ. eigenvalues --   -0.70080  -0.69843  -0.69267  -0.68491  -0.67791
 Alpha  occ. eigenvalues --   -0.67319  -0.66959  -0.66702  -0.66175  -0.65951
 Alpha  occ. eigenvalues --   -0.65787  -0.65114  -0.64771  -0.63173  -0.62731
 Alpha  occ. eigenvalues --   -0.62466  -0.61342  -0.60750  -0.60596  -0.59442
 Alpha  occ. eigenvalues --   -0.59135  -0.58558  -0.58349  -0.57815  -0.57499
 Alpha  occ. eigenvalues --   -0.57105  -0.56757  -0.56204  -0.56098  -0.55811
 Alpha  occ. eigenvalues --   -0.55638  -0.55441  -0.55289  -0.55113  -0.54832
 Alpha  occ. eigenvalues --   -0.54679  -0.54569  -0.54175  -0.53938  -0.53908
 Alpha  occ. eigenvalues --   -0.53662  -0.53604  -0.53478  -0.52838  -0.52375
 Alpha  occ. eigenvalues --   -0.52272  -0.52088  -0.52040  -0.51978  -0.51835
 Alpha  occ. eigenvalues --   -0.51697  -0.51436  -0.51188  -0.50955  -0.50903
 Alpha  occ. eigenvalues --   -0.50570  -0.50524  -0.50475  -0.50070  -0.49919
 Alpha  occ. eigenvalues --   -0.49659  -0.49512  -0.49374  -0.48999  -0.48704
 Alpha  occ. eigenvalues --   -0.48549  -0.48334  -0.48183  -0.48091  -0.47934
 Alpha  occ. eigenvalues --   -0.47826  -0.47671  -0.47120  -0.47078  -0.46725
 Alpha  occ. eigenvalues --   -0.46672  -0.46633  -0.46302  -0.46228  -0.46216
 Alpha  occ. eigenvalues --   -0.45884  -0.45586  -0.45519  -0.45357  -0.44924
 Alpha  occ. eigenvalues --   -0.44494  -0.44450  -0.44154  -0.44055  -0.43627
 Alpha  occ. eigenvalues --   -0.43565  -0.43000  -0.42967  -0.42831  -0.42743
 Alpha  occ. eigenvalues --   -0.42469  -0.42322  -0.42176  -0.42118  -0.41813
 Alpha  occ. eigenvalues --   -0.41531  -0.41452  -0.41163  -0.41155  -0.40807
 Alpha  occ. eigenvalues --   -0.40431  -0.40198  -0.40180  -0.39479  -0.39309
 Alpha  occ. eigenvalues --   -0.38816  -0.38808  -0.38452  -0.38008  -0.37854
 Alpha  occ. eigenvalues --   -0.37612  -0.37584  -0.37393  -0.36459  -0.36279
 Alpha  occ. eigenvalues --   -0.36069  -0.35387  -0.34984  -0.33322  -0.32996
 Alpha  occ. eigenvalues --   -0.32879  -0.32601  -0.31901  -0.31718  -0.26158
 Alpha  occ. eigenvalues --   -0.22250
 Alpha virt. eigenvalues --   -0.06364  -0.00092   0.02335   0.04716   0.05774
 Alpha virt. eigenvalues --    0.06135   0.07814   0.08083   0.08275   0.09922
 Alpha virt. eigenvalues --    0.11026   0.11386   0.11668   0.12050   0.12326

 Mulliken charges:
               1
     1  Mg   0.959898
     2  C   -0.081077
     3  C   -0.096620
     4  C   -0.082632
     5  C   -0.086495
     6  N   -0.413088
     7  C    0.024302
     8  C   -0.071167
     9  C   -0.101886
    10  C    0.102147
    11  C   -0.017647
    12  C    0.052367
    13  C    0.005647
    14  C    0.210474
    15  O   -0.267520
    16  O   -0.373737
    17  N   -0.440987
    18  C    0.178384
    19  C   -0.164993
    20  C   -0.056927
    21  C    0.188814
    22  C    0.041784
    23  C    0.043813
    24  O   -0.232974
    25  C   -0.007858
    26  N   -0.347047
    27  C    0.043513
    28  C   -0.122716
    29  C   -0.056995
    30  C    0.071359
    31  C    0.035644
    32  C   -0.010493
    33  C   -0.067913
    34  N   -0.383745
    35  C    0.107751
    36  C   -0.158886
    37  C   -0.091796
    38  C    0.167263
    39  C    0.088443
    40  C    0.104153
    41  O   -0.211050
    42  C   -0.046793
    43  C    0.275292
    44  O   -0.246691
    45  O   -0.365838
    46  C    0.142557
    47  C    0.236641
    48  C   -0.124094
    49  C   -0.241480
    50  C    0.007000
    51  C    0.015984
    52  C    0.012687
    53  C    0.023535
    54  C   -0.209214
    55  C   -0.007348
    56  C    0.005698
    57  C   -0.039571
    58  C   -0.000525
    59  C   -0.190616
    60  C   -0.000478
    61  C    0.021794
    62  C   -0.051323
    63  C    0.018353
    64  C   -0.214293
    65  C   -0.019606
    66  C    0.005940
    67  H   -0.011245
    68  H    0.022415
    69  H   -0.005693
    70  H    0.064585
    71  H    0.037305
    72  H    0.033703
    73  H    0.040478
    74  H    0.050908
    75  H    0.032479
    76  H    0.047454
    77  H    0.040960
    78  H    0.058847
    79  H    0.050921
    80  H    0.032772
    81  H    0.068568
    82  H    0.048082
    83  H    0.052206
    84  H    0.045518
    85  H    0.038951
    86  H    0.025225
    87  H    0.022257
    88  H    0.060068
    89  H    0.032853
    90  H    0.028127
    91  H    0.026603
    92  H    0.033156
    93  H    0.037712
    94  H    0.035907
    95  H    0.076479
    96  H    0.057926
    97  H    0.043674
    98  H    0.063805
    99  H    0.042267
   100  H    0.049570
   101  H    0.070604
   102  H    0.058445
   103  H    0.054729
   104  H    0.025573
   105  H    0.049211
   106  H    0.053140
   107  H    0.061424
   108  H    0.025200
   109  H    0.010272
   110  H    0.027008
   111  H    0.033323
   112  H    0.003013
   113  H    0.016293
   114  H    0.031716
   115  H    0.037356
   116  H    0.031658
   117  H    0.027130
   118  H    0.021954
   119  H    0.021408
   120  H    0.017700
   121  H    0.013988
   122  H   -0.000828
   123  H    0.023215
   124  H    0.014860
   125  H    0.033807
   126  H    0.025640
   127  H    0.039440
   128  H    0.015491
   129  H    0.011619
   130  H    0.026067
   131  H    0.017715
   132  H    0.018528
   133  H    0.017987
   134  H    0.020418
   135  H    0.030459
   136  H    0.042856
   137  H    0.019471
   138  H    0.014207
   139  H    0.035431
   140  H    0.030511
 Sum of Mulliken charges =  -0.00000

 Dipole moment (field-independent basis, Debye):
    X=              5.5877    Y=              2.2388    Z=             -2.6682  Tot=              6.5844
 Quadrupole moment (field-independent basis, Debye-Ang):
   XX=           -390.7945   YY=           -429.0346   ZZ=           -400.4748
   XY=            -36.0250   XZ=             21.0761   YZ=              5.7049

 Normal termination of Gaussian 16 at Wed May  4 04:40:31 2022.
