 Gaussian 16, Revision A.03,
 Gaussian 16:  ES64L-G16RevA.03 25-Dec-2016

 --------------------
 #p ZINDO=(nstates=5)
 --------------------

 ------------------------------
 step_1351_chromophore_21 ZINDO
 ------------------------------
 Symbolic Z-matrix:
 Charge =  0 Multiplicity = 1

                         Standard orientation:
 ---------------------------------------------------------------------
 Center     Atomic      Atomic             Coordinates (Angstroms)
 Number     Number       Type             X           Y           Z
 ---------------------------------------------------------------------
      1         12           0       -4.866362    1.199988    0.030890
      2          6           0       -4.983179   -2.210819   -0.219455
      3          6           0       -1.548581    1.149791    0.400306
      4          6           0       -4.889109    4.535100    0.056930
      5          6           0       -8.424350    1.145864    0.113522
      6          7           0       -3.501684   -0.374967    0.026310
      7          6           0       -3.695934   -1.689177   -0.305044
      8          6           0       -2.403124   -2.413449   -0.517608
      9          6           0       -1.355691   -1.373128   -0.034641
     10          6           0       -2.158701   -0.110907    0.146765
     11          6           0       -0.525739   -1.763966    1.241079
     12          6           0       -2.255622   -2.945155   -1.952476
     13          6           0       -1.226050   -4.073731   -2.125756
     14          6           0       -0.345805   -4.564447   -0.957726
     15          8           0       -0.660493   -5.375648   -0.091474
     16          8           0        0.926042   -4.021552   -0.995438
     17          7           0       -3.432776    2.661523    0.040633
     18          6           0       -2.149534    2.404119    0.284656
     19          6           0       -1.400699    3.675952    0.244449
     20          6           0       -2.369533    4.718175    0.086997
     21          6           0       -3.672450    3.974935    0.095063
     22          6           0        0.067507    3.832006    0.496921
     23          6           0       -2.175476    6.229177   -0.028095
     24          8           0       -3.100337    7.021747   -0.090782
     25          6           0       -0.796310    6.937576   -0.151488
     26          7           0       -6.464221    2.634833    0.290656
     27          6           0       -6.143245    3.963275    0.097160
     28          6           0       -7.417965    4.774597   -0.134593
     29          6           0       -8.547087    3.665750   -0.263619
     30          6           0       -7.754902    2.358664    0.086542
     31          6           0       -7.728504    5.776141    0.986637
     32          6           0       -9.379752    3.652597   -1.547851
     33          6           0      -10.880363    3.485039   -1.451627
     34          7           0       -6.373500   -0.234299    0.303463
     35          6           0       -7.791027   -0.113974    0.279707
     36          6           0       -8.426141   -1.455751    0.346223
     37          6           0       -7.292266   -2.298906    0.050185
     38          6           0       -6.088037   -1.452271    0.070776
     39          6           0       -9.853603   -1.726904    0.456485
     40          6           0       -6.896061   -3.661626   -0.001841
     41          8           0       -7.510010   -4.712514    0.033521
     42          6           0       -5.362582   -3.643491   -0.198492
     43          6           0       -4.692692   -4.508812    0.868086
     44          8           0       -4.397465   -4.223552    2.016568
     45          8           0       -4.241046   -5.623117    0.213202
     46          6           0       -3.602024   -6.596333    1.076215
     47          6           0        1.882040   -4.379164    0.064575
     48          6           0        2.941553   -3.253068    0.084376
     49          6           0        3.753841   -3.020219    1.100481
     50          6           0        3.670076   -3.751916    2.476536
     51          6           0        4.839702   -1.902233    1.075293
     52          6           0        6.330543   -2.315420    0.864389
     53          6           0        6.895896   -2.070063   -0.527820
     54          6           0        8.057322   -0.997429   -0.501556
     55          6           0        7.523044    0.479236   -0.800151
     56          6           0        9.125856   -1.424095   -1.600712
     57          6           0       10.611835   -1.123892   -1.209114
     58          6           0       11.527384   -0.396763   -2.222129
     59          6           0       12.305586    0.866509   -1.692081
     60          6           0       12.255349    1.995728   -2.767679
     61          6           0       13.720825    0.418086   -1.271413
     62          6           0       14.011281    0.518774    0.243097
     63          6           0       14.710228    1.845216    0.752594
     64          6           0       13.957563    2.637520    1.911788
     65          6           0       13.549146    4.062053    1.386715
     66          6           0       14.720574    2.718727    3.238714
     67          1           0       -0.462459    1.133674    0.513217
     68          1           0       -4.975018    5.622310    0.102424
     69          1           0       -9.514562    1.151513    0.040557
     70          1           0       -2.371039   -3.316123    0.092018
     71          1           0       -0.499402   -1.186099   -0.682165
     72          1           0       -1.158142   -1.408318    2.055435
     73          1           0        0.412339   -1.238781    1.415542
     74          1           0       -0.365038   -2.820803    1.454854
     75          1           0       -1.786425   -2.155594   -2.539493
     76          1           0       -3.173459   -3.331299   -2.394968
     77          1           0       -0.552280   -3.720441   -2.906412
     78          1           0       -1.706037   -4.907368   -2.638981
     79          1           0        0.455355    4.408493   -0.342764
     80          1           0        0.676533    2.928776    0.517373
     81          1           0        0.291533    4.368165    1.419327
     82          1           0       -0.966332    8.008117   -0.033909
     83          1           0       -0.548030    6.959180   -1.213026
     84          1           0        0.032049    6.515747    0.418135
     85          1           0       -7.418664    5.331322   -1.070682
     86          1           0       -9.258767    3.767508    0.555946
     87          1           0       -8.685654    5.579994    1.470843
     88          1           0       -7.684355    6.814345    0.656399
     89          1           0       -7.076104    5.388772    1.768497
     90          1           0       -9.055847    2.857513   -2.219956
     91          1           0       -9.294034    4.569085   -2.132408
     92          1           0      -11.309407    4.486958   -1.437454
     93          1           0      -11.197509    2.925782   -0.570974
     94          1           0      -11.271939    3.017672   -2.355462
     95          1           0      -10.079126   -1.648941    1.520159
     96          1           0      -10.010475   -2.683924   -0.041046
     97          1           0      -10.348269   -1.033474   -0.223891
     98          1           0       -5.138141   -4.035038   -1.191420
     99          1           0       -3.089180   -7.315274    0.436398
    100          1           0       -4.397429   -7.193026    1.522062
    101          1           0       -2.874882   -6.098842    1.718768
    102          1           0        2.355083   -5.331851   -0.171163
    103          1           0        1.378618   -4.523082    1.020701
    104          1           0        3.163561   -2.726131   -0.843501
    105          1           0        4.544275   -3.623369    3.116220
    106          1           0        3.417130   -4.798978    2.311241
    107          1           0        2.819680   -3.195790    2.872354
    108          1           0        4.651158   -1.389675    2.017817
    109          1           0        4.576870   -1.288375    0.214555
    110          1           0        6.265153   -3.393267    1.011334
    111          1           0        6.833779   -1.791323    1.676688
    112          1           0        6.113900   -1.778809   -1.229551
    113          1           0        7.196163   -2.971746   -1.061452
    114          1           0        8.462306   -0.853488    0.500268
    115          1           0        8.085165    1.052031   -1.537996
    116          1           0        7.595689    0.965913    0.171795
    117          1           0        6.501533    0.344005   -1.155213
    118          1           0        8.814888   -0.975300   -2.544705
    119          1           0        9.165260   -2.501335   -1.759705
    120          1           0       11.053582   -2.110088   -1.065310
    121          1           0       10.709160   -0.583448   -0.267615
    122          1           0       10.804011   -0.131465   -2.993051
    123          1           0       12.164296   -1.190365   -2.612764
    124          1           0       11.795098    1.328088   -0.846672
    125          1           0       12.537132    2.926179   -2.274536
    126          1           0       11.194389    2.065485   -3.012357
    127          1           0       12.847420    1.678945   -3.625021
    128          1           0       14.474279    0.919527   -1.879894
    129          1           0       13.845363   -0.647289   -1.461638
    130          1           0       14.660599   -0.342902    0.399151
    131          1           0       13.040178    0.496980    0.738468
    132          1           0       14.825115    2.465351   -0.135768
    133          1           0       15.673743    1.511054    1.136528
    134          1           0       13.064297    2.034545    2.077933
    135          1           0       12.629325    3.979924    0.808146
    136          1           0       14.319302    4.646369    0.881368
    137          1           0       13.280672    4.644261    2.267560
    138          1           0       15.651345    2.163238    3.120755
    139          1           0       14.167557    2.231384    4.042416
    140          1           0       15.041150    3.719835    3.524987
 ---------------------------------------------------------------------

 SCF Done:  E(RZINDO/S) =  -474.399041344     A.U. after   21 cycles

 Excitation energies and oscillator strengths:

 Excited State   1:      Singlet-A      1.2233 eV 1013.49 nm  f=0.6118  <S**2>=0.000
     175 ->178         0.19396
     176 ->177         0.66227
 This state for optimization and/or second-order correction.
 Total Energy, E(CIS/TDA) =  -474.354084334
 Copying the excited state density for this state as the 1-particle RhoCI density.

 Excited State   2:      Singlet-A      1.9189 eV  646.12 nm  f=0.0008  <S**2>=0.000
     175 ->177        -0.46900
     176 ->178         0.51055

 Excited State   3:      Singlet-A      2.8105 eV  441.14 nm  f=0.0126  <S**2>=0.000
     176 ->179         0.63426

 Excited State   4:      Singlet-A      2.9322 eV  422.83 nm  f=0.4014  <S**2>=0.000
     168 ->177         0.21489
     168 ->179        -0.29925
     168 ->180        -0.20619
     168 ->186        -0.18137
     175 ->177         0.30075
     176 ->178         0.28478
     176 ->180         0.10506

 Excited State   5:      Singlet-A      2.9658 eV  418.05 nm  f=0.7017  <S**2>=0.000
     168 ->177        -0.17145
     168 ->179         0.25512
     168 ->180         0.17261
     168 ->186         0.15302
     175 ->177         0.36801
     176 ->178         0.34839

 The electronic state is 1-A.
 Alpha  occ. eigenvalues --   -1.85732  -1.83249  -1.80729  -1.72905  -1.72570
 Alpha  occ. eigenvalues --   -1.70207  -1.63284  -1.59464  -1.59359  -1.59231
 Alpha  occ. eigenvalues --   -1.53700  -1.50818  -1.48627  -1.48513  -1.47445
 Alpha  occ. eigenvalues --   -1.44244  -1.43577  -1.40813  -1.39575  -1.38668
 Alpha  occ. eigenvalues --   -1.37181  -1.35588  -1.33638  -1.32530  -1.29256
 Alpha  occ. eigenvalues --   -1.27986  -1.24984  -1.20845  -1.20143  -1.18870
 Alpha  occ. eigenvalues --   -1.17776  -1.15481  -1.15103  -1.14926  -1.13746
 Alpha  occ. eigenvalues --   -1.12307  -1.10851  -1.10036  -1.04874  -1.03935
 Alpha  occ. eigenvalues --   -1.02507  -1.01349  -0.99007  -0.97579  -0.95917
 Alpha  occ. eigenvalues --   -0.95380  -0.94265  -0.93561  -0.92661  -0.91755
 Alpha  occ. eigenvalues --   -0.90409  -0.90121  -0.89027  -0.88272  -0.87307
 Alpha  occ. eigenvalues --   -0.86076  -0.84699  -0.83857  -0.82624  -0.80757
 Alpha  occ. eigenvalues --   -0.79229  -0.78366  -0.76343  -0.76199  -0.76021
 Alpha  occ. eigenvalues --   -0.75564  -0.74989  -0.74195  -0.73334  -0.73283
 Alpha  occ. eigenvalues --   -0.72437  -0.71907  -0.71590  -0.71164  -0.70753
 Alpha  occ. eigenvalues --   -0.69932  -0.68924  -0.68686  -0.68121  -0.67973
 Alpha  occ. eigenvalues --   -0.67475  -0.67140  -0.66940  -0.66593  -0.66003
 Alpha  occ. eigenvalues --   -0.65624  -0.65484  -0.65179  -0.64826  -0.64579
 Alpha  occ. eigenvalues --   -0.63674  -0.63170  -0.62511  -0.62427  -0.62229
 Alpha  occ. eigenvalues --   -0.61656  -0.61559  -0.60808  -0.60639  -0.60216
 Alpha  occ. eigenvalues --   -0.59769  -0.59433  -0.58937  -0.58761  -0.58400
 Alpha  occ. eigenvalues --   -0.58195  -0.57997  -0.57505  -0.57235  -0.56887
 Alpha  occ. eigenvalues --   -0.56668  -0.56132  -0.55754  -0.55206  -0.54951
 Alpha  occ. eigenvalues --   -0.54530  -0.53482  -0.53248  -0.53040  -0.52478
 Alpha  occ. eigenvalues --   -0.52103  -0.51795  -0.51610  -0.51048  -0.50899
 Alpha  occ. eigenvalues --   -0.50789  -0.50402  -0.50091  -0.49949  -0.49599
 Alpha  occ. eigenvalues --   -0.49253  -0.49187  -0.48984  -0.48965  -0.48762
 Alpha  occ. eigenvalues --   -0.48559  -0.48469  -0.48233  -0.48014  -0.47727
 Alpha  occ. eigenvalues --   -0.47499  -0.47352  -0.47028  -0.46866  -0.46303
 Alpha  occ. eigenvalues --   -0.46249  -0.45897  -0.45739  -0.45729  -0.45365
 Alpha  occ. eigenvalues --   -0.45259  -0.44821  -0.44675  -0.44321  -0.44163
 Alpha  occ. eigenvalues --   -0.43930  -0.43801  -0.43422  -0.42269  -0.42059
 Alpha  occ. eigenvalues --   -0.41677  -0.41076  -0.40866  -0.39188  -0.38951
 Alpha  occ. eigenvalues --   -0.38057  -0.36640  -0.35364  -0.34748  -0.33925
 Alpha  occ. eigenvalues --   -0.33235  -0.33186  -0.32264  -0.32050  -0.26786
 Alpha  occ. eigenvalues --   -0.20994
 Alpha virt. eigenvalues --   -0.07862  -0.02201  -0.00567   0.01465   0.01614
 Alpha virt. eigenvalues --    0.02851   0.02961   0.03134   0.05086   0.05108
 Alpha virt. eigenvalues --    0.06514   0.06922   0.07457   0.08014   0.08210

 Mulliken charges:
               1
     1  Mg   0.428298
     2  C   -0.053658
     3  C   -0.098232
     4  C   -0.047185
     5  C   -0.060309
     6  N   -0.292034
     7  C    0.126694
     8  C    0.016511
     9  C    0.010374
    10  C    0.143912
    11  C   -0.058625
    12  C   -0.014627
    13  C    0.001184
    14  C    0.471156
    15  O   -0.516219
    16  O   -0.280778
    17  N   -0.304524
    18  C    0.127305
    19  C    0.004776
    20  C   -0.056512
    21  C    0.141409
    22  C   -0.039843
    23  C    0.325103
    24  O   -0.518734
    25  C   -0.037185
    26  N   -0.262199
    27  C    0.129085
    28  C    0.001944
    29  C   -0.008782
    30  C    0.112787
    31  C   -0.059033
    32  C   -0.025278
    33  C   -0.055138
    34  N   -0.306314
    35  C    0.058024
    36  C    0.046012
    37  C   -0.091365
    38  C    0.152110
    39  C   -0.032493
    40  C    0.331511
    41  O   -0.536791
    42  C    0.054539
    43  C    0.490720
    44  O   -0.515438
    45  O   -0.268128
    46  C    0.073928
    47  C    0.106463
    48  C   -0.097499
    49  C   -0.009907
    50  C   -0.052439
    51  C   -0.033847
    52  C   -0.028804
    53  C   -0.031701
    54  C   -0.023204
    55  C   -0.067235
    56  C   -0.037074
    57  C   -0.045354
    58  C   -0.041704
    59  C   -0.013291
    60  C   -0.061814
    61  C   -0.035489
    62  C   -0.047202
    63  C   -0.046105
    64  C   -0.012680
    65  C   -0.057829
    66  C   -0.054663
    67  H    0.026770
    68  H    0.041686
    69  H    0.032792
    70  H    0.047701
    71  H    0.026951
    72  H    0.013135
    73  H    0.021402
    74  H    0.034963
    75  H    0.023319
    76  H    0.035234
    77  H    0.021957
    78  H    0.040173
    79  H    0.023964
    80  H    0.023110
    81  H    0.033216
    82  H    0.041845
    83  H    0.035581
    84  H    0.035134
    85  H    0.028633
    86  H    0.025740
    87  H    0.015686
    88  H    0.036697
    89  H    0.028743
    90  H    0.015298
    91  H    0.016514
    92  H    0.014662
    93  H    0.021488
    94  H    0.017214
    95  H    0.054348
    96  H    0.036386
    97  H    0.029575
    98  H    0.047998
    99  H    0.024078
   100  H    0.044187
   101  H    0.059738
   102  H    0.047183
   103  H    0.056337
   104  H    0.035601
   105  H    0.029491
   106  H    0.029591
   107  H    0.033067
   108  H    0.024583
   109  H    0.016619
   110  H    0.021502
   111  H    0.029214
   112  H    0.018148
   113  H    0.020042
   114  H    0.030080
   115  H    0.025199
   116  H    0.018583
   117  H    0.022106
   118  H    0.024118
   119  H    0.016413
   120  H    0.010619
   121  H    0.018518
   122  H    0.013169
   123  H    0.023588
   124  H    0.022800
   125  H    0.021213
   126  H    0.015357
   127  H    0.028705
   128  H    0.019188
   129  H    0.013333
   130  H    0.021916
   131  H    0.026008
   132  H    0.023248
   133  H    0.019438
   134  H    0.022166
   135  H    0.017396
   136  H    0.029159
   137  H    0.007537
   138  H    0.012828
   139  H    0.020418
   140  H    0.023024
 Sum of Mulliken charges =  -0.00000

 Dipole moment (field-independent basis, Debye):
    X=              6.7390    Y=              3.5175    Z=             -4.4204  Tot=              8.7936
 N-N= 4.333123808462D+03 E-N= 0.000000000000D+00  KE=-9.340796933648D+03
 Leave Link  601 at Wed May  4 04:54:53 2022, MaxMem=  6710886400 cpu:               0.8 elap:               0.0
 (Enter /sw/apps/gaussian-16.0/g16/l9999.exe)
 1\1\GINC-BP1-COMPUTE065\SP\RZINDO CIS\STO-3G\C55H74Mg1N4O6\OF15641\04-
 May-2022\0\\#p ZINDO=(nstates=5)\\step_1351_chromophore_21 ZINDO\\0,1\
 Mg,0,15.747,52.153,25.506\C,0,17.773,51.004,28.013\C,0,13.301,52.837,2
 7.673\C,0,13.967,53.424,22.988\C,0,18.195,50.962,23.213\N,0,15.648,51.
 964,27.579\C,0,16.646,51.679,28.472\C,0,16.243,51.98,29.882\C,0,14.728
 ,52.29,29.736\C,0,14.52,52.377,28.246\C,0,13.743,51.287,30.438\C,0,17.
 123,53.063,30.527\C,0,17.099,53.091,32.064\C,0,16.185,52.158,32.885\O,

 Normal termination of Gaussian 16 at Wed May  4 04:54:53 2022.
