 Gaussian 16, Revision A.03,
 Gaussian 16:  ES64L-G16RevA.03 25-Dec-2016

 ------------------------------
 #p blyp/Def2SVP td=(nstates=5)
 ------------------------------

 --------------------------------------------------
 step_1751_chromophore_4 TDDFT with blyp functional
 --------------------------------------------------
 Symbolic Z-matrix:
 Charge =  0 Multiplicity = 1

                         Standard orientation:
 ---------------------------------------------------------------------
 Center     Atomic      Atomic             Coordinates (Angstroms)
 Number     Number       Type             X           Y           Z
 ---------------------------------------------------------------------
      1         12           0        5.594607    0.687211    0.130970
      2          6           0        3.449173   -2.056729    0.208940
      3          6           0        2.932107    2.658259   -0.325386
      4          6           0        7.779722    3.184703   -0.155657
      5          6           0        8.352583   -1.644155    0.267200
      6          7           0        3.462614    0.334198   -0.060207
      7          6           0        2.817034   -0.886335    0.085912
      8          6           0        1.320216   -0.677384    0.127369
      9          6           0        1.095610    0.853214   -0.251439
     10          6           0        2.542669    1.305054   -0.124903
     11          6           0        0.431813    1.188366   -1.642173
     12          6           0        0.838676   -0.939290    1.516604
     13          6           0       -0.493454   -1.616513    1.709261
     14          6           0       -1.432883   -1.582884    0.520374
     15          8           0       -1.806515   -0.509740    0.061596
     16          8           0       -1.802285   -2.780212   -0.003120
     17          7           0        5.395850    2.637028   -0.137829
     18          6           0        4.230832    3.275651   -0.274530
     19          6           0        4.476939    4.720936   -0.433947
     20          6           0        5.866882    4.842021   -0.499246
     21          6           0        6.441628    3.529087   -0.181391
     22          6           0        3.332435    5.720801   -0.529482
     23          6           0        6.724126    6.102343   -0.725807
     24          8           0        7.948627    6.113550   -0.757320
     25          6           0        5.993891    7.350510   -1.121239
     26          7           0        7.817052    0.695483   -0.043697
     27          6           0        8.431549    1.976657   -0.073563
     28          6           0        9.959041    1.683682    0.079916
     29          6           0       10.055348    0.252122    0.507508
     30          6           0        8.688476   -0.274152    0.234895
     31          6           0       10.849981    1.918188   -1.157469
     32          6           0       10.464067   -0.009395    1.924832
     33          6           0       11.498742   -1.160200    2.153873
     34          7           0        5.910755   -1.394920    0.241058
     35          6           0        7.052808   -2.213202    0.337269
     36          6           0        6.701163   -3.659935    0.326919
     37          6           0        5.269358   -3.643935    0.399649
     38          6           0        4.861306   -2.238323    0.268246
     39          6           0        7.602924   -4.804783    0.327375
     40          6           0        4.098244   -4.452588    0.454716
     41          8           0        3.925139   -5.667826    0.626527
     42          6           0        2.869388   -3.488404    0.346275
     43          6           0        2.123107   -3.890983   -0.882012
     44          8           0        2.605244   -3.882903   -1.994196
     45          8           0        0.825555   -4.146626   -0.695386
     46          6           0        0.047709   -4.582992   -1.824865
     47          6           0       -2.854207   -2.949137   -0.977495
     48          6           0       -4.143308   -2.633962   -0.256738
     49          6           0       -5.324051   -3.254370   -0.088724
     50          6           0       -5.670522   -4.620417   -0.634711
     51          6           0       -6.420686   -2.484684    0.591960
     52          6           0       -7.186564   -1.550515   -0.389352
     53          6           0       -7.426192   -0.155203    0.185828
     54          6           0       -8.838000    0.391225   -0.141504
     55          6           0       -9.004171    0.588218   -1.708633
     56          6           0       -9.145495    1.639595    0.737344
     57          6           0      -10.233879    1.250066    1.790626
     58          6           0      -11.003302    2.448001    2.340941
     59          6           0      -12.495722    2.062570    2.601375
     60          6           0      -12.949674    2.598632    3.987274
     61          6           0      -13.456862    2.519674    1.407493
     62          6           0      -13.897794    1.319307    0.551351
     63          6           0      -14.151593    1.636693   -0.925667
     64          6           0      -13.475276    0.632588   -1.880878
     65          6           0      -13.040838    1.317901   -3.220152
     66          6           0      -14.419647   -0.521893   -2.148557
     67          1           0        2.064367    3.274115   -0.570870
     68          1           0        8.547472    3.959483   -0.201319
     69          1           0        9.262339   -2.238774    0.377238
     70          1           0        0.913509   -1.319494   -0.653681
     71          1           0        0.422414    1.309864    0.474814
     72          1           0       -0.626358    1.425489   -1.534944
     73          1           0        0.526523    0.289972   -2.251614
     74          1           0        0.955022    2.044763   -2.067797
     75          1           0        0.784389   -0.035798    2.123820
     76          1           0        1.587429   -1.506700    2.067800
     77          1           0       -0.980439   -1.145220    2.563615
     78          1           0       -0.283715   -2.658531    1.952483
     79          1           0        3.217021    6.222405   -1.490894
     80          1           0        3.694768    6.419077    0.225294
     81          1           0        2.324708    5.350045   -0.341944
     82          1           0        5.457639    7.791769   -0.281568
     83          1           0        5.427980    7.017995   -1.991565
     84          1           0        6.686972    8.066296   -1.564773
     85          1           0       10.322909    2.308201    0.896777
     86          1           0       10.766237   -0.275679   -0.128379
     87          1           0       11.848945    2.159181   -0.791946
     88          1           0       10.380497    2.695745   -1.758900
     89          1           0       10.748128    1.119706   -1.893011
     90          1           0        9.573347   -0.260483    2.500692
     91          1           0       10.771847    0.901349    2.437661
     92          1           0       12.254008   -0.890765    2.892872
     93          1           0       12.047783   -1.521805    1.284073
     94          1           0       10.948252   -2.014849    2.546716
     95          1           0        8.590781   -4.698194    0.774686
     96          1           0        7.930386   -5.021507   -0.689237
     97          1           0        7.142290   -5.766736    0.555403
     98          1           0        2.246187   -3.662980    1.223348
     99          1           0       -0.745385   -5.226783   -1.445136
    100          1           0        0.635495   -5.102544   -2.581340
    101          1           0       -0.435830   -3.708818   -2.262538
    102          1           0       -2.806165   -4.001511   -1.258487
    103          1           0       -2.723164   -2.367454   -1.889973
    104          1           0       -4.254315   -1.582532    0.009373
    105          1           0       -6.558797   -4.708483   -1.260548
    106          1           0       -5.838397   -5.218070    0.262332
    107          1           0       -4.769554   -5.041521   -1.081569
    108          1           0       -5.894815   -1.930482    1.369421
    109          1           0       -7.104937   -3.205222    1.039423
    110          1           0       -8.158649   -2.010206   -0.569755
    111          1           0       -6.669165   -1.390613   -1.335522
    112          1           0       -6.645410    0.536530   -0.131132
    113          1           0       -7.300797   -0.159422    1.269374
    114          1           0       -9.453958   -0.433702    0.218089
    115          1           0       -8.055052    0.578982   -2.245023
    116          1           0       -9.445142    1.544790   -1.989066
    117          1           0       -9.675082   -0.200014   -2.052712
    118          1           0       -9.485543    2.467892    0.116097
    119          1           0       -8.288014    1.984667    1.315172
    120          1           0       -9.639359    0.809307    2.591261
    121          1           0      -11.002437    0.542145    1.481666
    122          1           0      -10.874261    3.297121    1.669965
    123          1           0      -10.559592    2.805355    3.269601
    124          1           0      -12.670354    0.987806    2.649249
    125          1           0      -13.778153    3.287786    3.825707
    126          1           0      -12.198466    3.308226    4.333182
    127          1           0      -13.221094    1.851135    4.732648
    128          1           0      -12.771276    3.154374    0.846052
    129          1           0      -14.289627    3.146632    1.724553
    130          1           0      -14.861422    1.066878    0.993683
    131          1           0      -13.217306    0.472918    0.641528
    132          1           0      -13.823434    2.671039   -1.023389
    133          1           0      -15.226108    1.602049   -1.103869
    134          1           0      -12.582890    0.195294   -1.432002
    135          1           0      -11.971725    1.526241   -3.244261
    136          1           0      -13.606133    2.226877   -3.427874
    137          1           0      -13.309286    0.535668   -3.931674
    138          1           0      -13.785164   -1.407173   -2.191406
    139          1           0      -14.900159   -0.529320   -3.127597
    140          1           0      -15.210594   -0.714998   -1.424923
 ---------------------------------------------------------------------

 SCF Done:  E(RB-LYP) =  -3007.39247469     A.U. after   22 cycles

 Excitation energies and oscillator strengths:

 Excited State   1:      Singlet-A      1.7877 eV  693.53 nm  f=0.2969  <S**2>=0.000
     245 -> 248        0.16512
     246 -> 247        0.69356
     246 <- 247       -0.15955
 This state for optimization and/or second-order correction.
 Total Energy, E(TD-HF/TD-DFT) =  -3007.32677656
 Copying the excited state density for this state as the 1-particle RhoCI density.

 Excited State   2:      Singlet-A      1.9414 eV  638.64 nm  f=0.0003  <S**2>=0.000
     244 -> 247        0.70613

 Excited State   3:      Singlet-A      2.0231 eV  612.83 nm  f=0.0301  <S**2>=0.000
     243 -> 247        0.58475
     245 -> 247       -0.37020
     246 -> 248        0.12157

 Excited State   4:      Singlet-A      2.0945 eV  591.96 nm  f=0.0560  <S**2>=0.000
     243 -> 247        0.39371
     245 -> 247        0.52255
     246 -> 248       -0.22983

 Excited State   5:      Singlet-A      2.5526 eV  485.73 nm  f=0.0001  <S**2>=0.000
     241 -> 247        0.70454

 The electronic state is 1-A.
 Alpha  occ. eigenvalues --  -46.26561 -18.82367 -18.81857 -18.76553 -18.75757
 Alpha  occ. eigenvalues --  -18.75151 -18.74885 -14.02947 -14.02155 -14.01134
 Alpha  occ. eigenvalues --  -14.01129 -10.04433 -10.02974  -9.99899  -9.99134
 Alpha  occ. eigenvalues --   -9.98872  -9.97424  -9.96127  -9.95931  -9.95753
 Alpha  occ. eigenvalues --   -9.95678  -9.95597  -9.95592  -9.95496  -9.94856
 Alpha  occ. eigenvalues --   -9.94273  -9.93867  -9.93606  -9.93541  -9.93467
 Alpha  occ. eigenvalues --   -9.93342  -9.93246  -9.93245  -9.92972  -9.92960
 Alpha  occ. eigenvalues --   -9.92811  -9.92658  -9.92640  -9.92475  -9.92465
 Alpha  occ. eigenvalues --   -9.92257  -9.92253  -9.92207  -9.92169  -9.92164
 Alpha  occ. eigenvalues --   -9.91991  -9.91961  -9.91858  -9.91810  -9.91804
 Alpha  occ. eigenvalues --   -9.91784  -9.91757  -9.91733  -9.91485  -9.91344
 Alpha  occ. eigenvalues --   -9.91297  -9.91256  -9.91065  -9.91016  -9.90932
 Alpha  occ. eigenvalues --   -9.90848  -9.90802  -9.90768  -9.90703  -9.90552
 Alpha  occ. eigenvalues --   -9.90347  -2.91279  -1.71707  -1.71158  -1.70998
 Alpha  occ. eigenvalues --   -0.98842  -0.98441  -0.91550  -0.90185  -0.89910
 Alpha  occ. eigenvalues --   -0.89145  -0.86518  -0.85801  -0.85175  -0.84248
 Alpha  occ. eigenvalues --   -0.74982  -0.74190  -0.73410  -0.72916  -0.72676
 Alpha  occ. eigenvalues --   -0.72133  -0.71466  -0.70925  -0.70552  -0.70401
 Alpha  occ. eigenvalues --   -0.69806  -0.69179  -0.68152  -0.67625  -0.67036
 Alpha  occ. eigenvalues --   -0.66682  -0.65878  -0.65632  -0.65385  -0.64596
 Alpha  occ. eigenvalues --   -0.64162  -0.62840  -0.62253  -0.61770  -0.61201
 Alpha  occ. eigenvalues --   -0.60840  -0.59999  -0.59854  -0.59606  -0.59077
 Alpha  occ. eigenvalues --   -0.58665  -0.57814  -0.56360  -0.55744  -0.54487
 Alpha  occ. eigenvalues --   -0.53942  -0.53709  -0.52610  -0.52198  -0.51376
 Alpha  occ. eigenvalues --   -0.51004  -0.50969  -0.50835  -0.50225  -0.50161
 Alpha  occ. eigenvalues --   -0.49669  -0.49530  -0.48760  -0.48679  -0.46923
 Alpha  occ. eigenvalues --   -0.46481  -0.46019  -0.45673  -0.45202  -0.44651
 Alpha  occ. eigenvalues --   -0.44290  -0.43860  -0.43384  -0.42869  -0.42439
 Alpha  occ. eigenvalues --   -0.42107  -0.41869  -0.41576  -0.41430  -0.41190
 Alpha  occ. eigenvalues --   -0.40956  -0.40794  -0.40557  -0.40526  -0.40049
 Alpha  occ. eigenvalues --   -0.39574  -0.39540  -0.39393  -0.39119  -0.38899
 Alpha  occ. eigenvalues --   -0.38840  -0.38715  -0.38586  -0.38321  -0.38234
 Alpha  occ. eigenvalues --   -0.38037  -0.37963  -0.37733  -0.37451  -0.37289
 Alpha  occ. eigenvalues --   -0.36745  -0.36646  -0.36497  -0.36378  -0.36116
 Alpha  occ. eigenvalues --   -0.36015  -0.35834  -0.35778  -0.35728  -0.35550
 Alpha  occ. eigenvalues --   -0.35448  -0.35113  -0.35002  -0.34861  -0.34683
 Alpha  occ. eigenvalues --   -0.34175  -0.34063  -0.34039  -0.33851  -0.33717
 Alpha  occ. eigenvalues --   -0.33702  -0.33607  -0.33304  -0.33132  -0.33083
 Alpha  occ. eigenvalues --   -0.32737  -0.32662  -0.32599  -0.32555  -0.32222
 Alpha  occ. eigenvalues --   -0.32135  -0.31783  -0.31689  -0.31578  -0.31348
 Alpha  occ. eigenvalues --   -0.31219  -0.30808  -0.30705  -0.30608  -0.30356
 Alpha  occ. eigenvalues --   -0.30261  -0.30228  -0.29937  -0.29771  -0.29445
 Alpha  occ. eigenvalues --   -0.29418  -0.29336  -0.29161  -0.29072  -0.29001
 Alpha  occ. eigenvalues --   -0.28828  -0.28584  -0.28383  -0.27977  -0.27544
 Alpha  occ. eigenvalues --   -0.27331  -0.27249  -0.27112  -0.26804  -0.26615
 Alpha  occ. eigenvalues --   -0.26320  -0.26298  -0.26030  -0.25421  -0.25171
 Alpha  occ. eigenvalues --   -0.24985  -0.24459  -0.24370  -0.23933  -0.23315
 Alpha  occ. eigenvalues --   -0.22875  -0.22112  -0.21498  -0.21141  -0.20803
 Alpha  occ. eigenvalues --   -0.20541  -0.20281  -0.18606  -0.18182  -0.17191
 Alpha  occ. eigenvalues --   -0.15277
 Alpha virt. eigenvalues --   -0.11165  -0.06683  -0.05781  -0.04395  -0.03388
 Alpha virt. eigenvalues --   -0.02349  -0.01741  -0.01412  -0.01025   0.00987
 Alpha virt. eigenvalues --    0.01250   0.01597   0.02120   0.02448   0.02867

 Mulliken charges:
               1
     1  Mg   0.700908
     2  C    0.038826
     3  C   -0.091477
     4  C   -0.027452
     5  C   -0.052399
     6  N   -0.217533
     7  C   -0.097984
     8  C    0.013908
     9  C    0.021809
    10  C    0.002111
    11  C    0.127320
    12  C    0.118414
    13  C    0.194125
    14  C    0.059283
    15  O   -0.217894
    16  O   -0.250566
    17  N   -0.310880
    18  C    0.159870
    19  C   -0.132529
    20  C   -0.009110
    21  C    0.140125
    22  C    0.167887
    23  C   -0.071189
    24  O   -0.157297
    25  C    0.136502
    26  N   -0.206964
    27  C   -0.014058
    28  C    0.022906
    29  C    0.050661
    30  C   -0.046661
    31  C    0.157762
    32  C    0.109949
    33  C    0.056386
    34  N   -0.247337
    35  C    0.130502
    36  C   -0.138587
    37  C    0.105496
    38  C    0.054633
    39  C    0.187902
    40  C   -0.076172
    41  O   -0.155422
    42  C    0.105382
    43  C    0.059710
    44  O   -0.186333
    45  O   -0.235495
    46  C    0.215322
    47  C    0.355503
    48  C   -0.126938
    49  C   -0.198034
    50  C    0.164060
    51  C    0.153179
    52  C    0.105561
    53  C    0.036578
    54  C   -0.073193
    55  C    0.101375
    56  C    0.123631
    57  C    0.017673
    58  C    0.142859
    59  C   -0.127689
    60  C    0.120045
    61  C    0.102852
    62  C    0.057705
    63  C    0.125450
    64  C   -0.113965
    65  C    0.113608
    66  C    0.101647
    67  H   -0.066439
    68  H   -0.042105
    69  H   -0.071776
    70  H    0.003942
    71  H   -0.021277
    72  H    0.009824
    73  H   -0.010753
    74  H   -0.012810
    75  H   -0.034740
    76  H   -0.023756
    77  H   -0.005456
    78  H   -0.013708
    79  H    0.003303
    80  H    0.007092
    81  H   -0.007087
    82  H    0.018581
    83  H    0.008418
    84  H   -0.015522
    85  H   -0.036871
    86  H   -0.034544
    87  H    0.007244
    88  H   -0.021440
    89  H   -0.017904
    90  H   -0.026111
    91  H   -0.031066
    92  H   -0.009511
    93  H   -0.008307
    94  H   -0.002861
    95  H   -0.014358
    96  H   -0.013722
    97  H    0.004350
    98  H   -0.016840
    99  H    0.014801
   100  H    0.023511
   101  H    0.007892
   102  H   -0.029162
   103  H    0.008569
   104  H   -0.021644
   105  H    0.010462
   106  H   -0.008800
   107  H   -0.030660
   108  H   -0.014177
   109  H   -0.039414
   110  H   -0.034088
   111  H   -0.016942
   112  H   -0.027624
   113  H   -0.040115
   114  H   -0.030645
   115  H   -0.012660
   116  H   -0.009264
   117  H   -0.002567
   118  H   -0.037105
   119  H   -0.031253
   120  H   -0.028470
   121  H   -0.012594
   122  H   -0.033875
   123  H   -0.042646
   124  H   -0.028637
   125  H   -0.040036
   126  H   -0.031964
   127  H   -0.001948
   128  H   -0.041768
   129  H   -0.026137
   130  H   -0.035331
   131  H   -0.021874
   132  H   -0.039090
   133  H   -0.037572
   134  H   -0.027559
   135  H   -0.009428
   136  H   -0.008763
   137  H   -0.030267
   138  H   -0.028797
   139  H   -0.019119
   140  H   -0.013299
 Sum of Mulliken charges =  -0.00000

 Dipole moment (field-independent basis, Debye):
    X=             -3.6431    Y=              1.6108    Z=              1.3825  Tot=              4.2165
 Quadrupole moment (field-independent basis, Debye-Ang):
   XX=           -378.4632   YY=           -424.9112   ZZ=           -404.7493
   XY=              7.3026   XZ=             14.8443   YZ=              3.4492

 Normal termination of Gaussian 16 at Wed May  4 14:11:19 2022.
