 Gaussian 16, Revision A.03,
 Gaussian 16:  ES64L-G16RevA.03 25-Dec-2016

 -----------------------------------
 #p cam-b3lyp/Def2SVP td=(nstates=5)
 -----------------------------------

 -------------------------------------------------------
 step_1751_chromophore_4 TDDFT with cam-b3lyp functional
 -------------------------------------------------------
 Symbolic Z-matrix:
 Charge =  0 Multiplicity = 1

                         Standard orientation:
 ---------------------------------------------------------------------
 Center     Atomic      Atomic             Coordinates (Angstroms)
 Number     Number       Type             X           Y           Z
 ---------------------------------------------------------------------
      1         12           0        5.594607    0.687211    0.130970
      2          6           0        3.449173   -2.056729    0.208940
      3          6           0        2.932107    2.658259   -0.325386
      4          6           0        7.779722    3.184703   -0.155657
      5          6           0        8.352583   -1.644155    0.267200
      6          7           0        3.462614    0.334198   -0.060207
      7          6           0        2.817034   -0.886335    0.085912
      8          6           0        1.320216   -0.677384    0.127369
      9          6           0        1.095610    0.853214   -0.251439
     10          6           0        2.542669    1.305054   -0.124903
     11          6           0        0.431813    1.188366   -1.642173
     12          6           0        0.838676   -0.939290    1.516604
     13          6           0       -0.493454   -1.616513    1.709261
     14          6           0       -1.432883   -1.582884    0.520374
     15          8           0       -1.806515   -0.509740    0.061596
     16          8           0       -1.802285   -2.780212   -0.003120
     17          7           0        5.395850    2.637028   -0.137829
     18          6           0        4.230832    3.275651   -0.274530
     19          6           0        4.476939    4.720936   -0.433947
     20          6           0        5.866882    4.842021   -0.499246
     21          6           0        6.441628    3.529087   -0.181391
     22          6           0        3.332435    5.720801   -0.529482
     23          6           0        6.724126    6.102343   -0.725807
     24          8           0        7.948627    6.113550   -0.757320
     25          6           0        5.993891    7.350510   -1.121239
     26          7           0        7.817052    0.695483   -0.043697
     27          6           0        8.431549    1.976657   -0.073563
     28          6           0        9.959041    1.683682    0.079916
     29          6           0       10.055348    0.252122    0.507508
     30          6           0        8.688476   -0.274152    0.234895
     31          6           0       10.849981    1.918188   -1.157469
     32          6           0       10.464067   -0.009395    1.924832
     33          6           0       11.498742   -1.160200    2.153873
     34          7           0        5.910755   -1.394920    0.241058
     35          6           0        7.052808   -2.213202    0.337269
     36          6           0        6.701163   -3.659935    0.326919
     37          6           0        5.269358   -3.643935    0.399649
     38          6           0        4.861306   -2.238323    0.268246
     39          6           0        7.602924   -4.804783    0.327375
     40          6           0        4.098244   -4.452588    0.454716
     41          8           0        3.925139   -5.667826    0.626527
     42          6           0        2.869388   -3.488404    0.346275
     43          6           0        2.123107   -3.890983   -0.882012
     44          8           0        2.605244   -3.882903   -1.994196
     45          8           0        0.825555   -4.146626   -0.695386
     46          6           0        0.047709   -4.582992   -1.824865
     47          6           0       -2.854207   -2.949137   -0.977495
     48          6           0       -4.143308   -2.633962   -0.256738
     49          6           0       -5.324051   -3.254370   -0.088724
     50          6           0       -5.670522   -4.620417   -0.634711
     51          6           0       -6.420686   -2.484684    0.591960
     52          6           0       -7.186564   -1.550515   -0.389352
     53          6           0       -7.426192   -0.155203    0.185828
     54          6           0       -8.838000    0.391225   -0.141504
     55          6           0       -9.004171    0.588218   -1.708633
     56          6           0       -9.145495    1.639595    0.737344
     57          6           0      -10.233879    1.250066    1.790626
     58          6           0      -11.003302    2.448001    2.340941
     59          6           0      -12.495722    2.062570    2.601375
     60          6           0      -12.949674    2.598632    3.987274
     61          6           0      -13.456862    2.519674    1.407493
     62          6           0      -13.897794    1.319307    0.551351
     63          6           0      -14.151593    1.636693   -0.925667
     64          6           0      -13.475276    0.632588   -1.880878
     65          6           0      -13.040838    1.317901   -3.220152
     66          6           0      -14.419647   -0.521893   -2.148557
     67          1           0        2.064367    3.274115   -0.570870
     68          1           0        8.547472    3.959483   -0.201319
     69          1           0        9.262339   -2.238774    0.377238
     70          1           0        0.913509   -1.319494   -0.653681
     71          1           0        0.422414    1.309864    0.474814
     72          1           0       -0.626358    1.425489   -1.534944
     73          1           0        0.526523    0.289972   -2.251614
     74          1           0        0.955022    2.044763   -2.067797
     75          1           0        0.784389   -0.035798    2.123820
     76          1           0        1.587429   -1.506700    2.067800
     77          1           0       -0.980439   -1.145220    2.563615
     78          1           0       -0.283715   -2.658531    1.952483
     79          1           0        3.217021    6.222405   -1.490894
     80          1           0        3.694768    6.419077    0.225294
     81          1           0        2.324708    5.350045   -0.341944
     82          1           0        5.457639    7.791769   -0.281568
     83          1           0        5.427980    7.017995   -1.991565
     84          1           0        6.686972    8.066296   -1.564773
     85          1           0       10.322909    2.308201    0.896777
     86          1           0       10.766237   -0.275679   -0.128379
     87          1           0       11.848945    2.159181   -0.791946
     88          1           0       10.380497    2.695745   -1.758900
     89          1           0       10.748128    1.119706   -1.893011
     90          1           0        9.573347   -0.260483    2.500692
     91          1           0       10.771847    0.901349    2.437661
     92          1           0       12.254008   -0.890765    2.892872
     93          1           0       12.047783   -1.521805    1.284073
     94          1           0       10.948252   -2.014849    2.546716
     95          1           0        8.590781   -4.698194    0.774686
     96          1           0        7.930386   -5.021507   -0.689237
     97          1           0        7.142290   -5.766736    0.555403
     98          1           0        2.246187   -3.662980    1.223348
     99          1           0       -0.745385   -5.226783   -1.445136
    100          1           0        0.635495   -5.102544   -2.581340
    101          1           0       -0.435830   -3.708818   -2.262538
    102          1           0       -2.806165   -4.001511   -1.258487
    103          1           0       -2.723164   -2.367454   -1.889973
    104          1           0       -4.254315   -1.582532    0.009373
    105          1           0       -6.558797   -4.708483   -1.260548
    106          1           0       -5.838397   -5.218070    0.262332
    107          1           0       -4.769554   -5.041521   -1.081569
    108          1           0       -5.894815   -1.930482    1.369421
    109          1           0       -7.104937   -3.205222    1.039423
    110          1           0       -8.158649   -2.010206   -0.569755
    111          1           0       -6.669165   -1.390613   -1.335522
    112          1           0       -6.645410    0.536530   -0.131132
    113          1           0       -7.300797   -0.159422    1.269374
    114          1           0       -9.453958   -0.433702    0.218089
    115          1           0       -8.055052    0.578982   -2.245023
    116          1           0       -9.445142    1.544790   -1.989066
    117          1           0       -9.675082   -0.200014   -2.052712
    118          1           0       -9.485543    2.467892    0.116097
    119          1           0       -8.288014    1.984667    1.315172
    120          1           0       -9.639359    0.809307    2.591261
    121          1           0      -11.002437    0.542145    1.481666
    122          1           0      -10.874261    3.297121    1.669965
    123          1           0      -10.559592    2.805355    3.269601
    124          1           0      -12.670354    0.987806    2.649249
    125          1           0      -13.778153    3.287786    3.825707
    126          1           0      -12.198466    3.308226    4.333182
    127          1           0      -13.221094    1.851135    4.732648
    128          1           0      -12.771276    3.154374    0.846052
    129          1           0      -14.289627    3.146632    1.724553
    130          1           0      -14.861422    1.066878    0.993683
    131          1           0      -13.217306    0.472918    0.641528
    132          1           0      -13.823434    2.671039   -1.023389
    133          1           0      -15.226108    1.602049   -1.103869
    134          1           0      -12.582890    0.195294   -1.432002
    135          1           0      -11.971725    1.526241   -3.244261
    136          1           0      -13.606133    2.226877   -3.427874
    137          1           0      -13.309286    0.535668   -3.931674
    138          1           0      -13.785164   -1.407173   -2.191406
    139          1           0      -14.900159   -0.529320   -3.127597
    140          1           0      -15.210594   -0.714998   -1.424923
 ---------------------------------------------------------------------

 SCF Done:  E(RCAM-B3LYP) =  -3007.20058134     A.U. after   19 cycles

 Excitation energies and oscillator strengths:

 Excited State   1:      Singlet-A      1.6744 eV  740.47 nm  f=0.3871  <S**2>=0.000
     245 -> 248        0.16695
     246 -> 247        0.68702
     245 <- 248        0.10394
 This state for optimization and/or second-order correction.
 Total Energy, E(TD-HF/TD-DFT) =  -3007.13904810
 Copying the excited state density for this state as the 1-particle RhoCI density.

 Excited State   2:      Singlet-A      2.3059 eV  537.69 nm  f=0.0923  <S**2>=0.000
     245 -> 247        0.62192
     246 -> 248       -0.32064

 Excited State   3:      Singlet-A      3.4697 eV  357.34 nm  f=0.2220  <S**2>=0.000
     241 -> 247        0.22839
     241 -> 249       -0.15975
     242 -> 247        0.22801
     242 -> 249       -0.13259
     244 -> 247        0.38056
     245 -> 247        0.17172
     246 -> 248        0.37753

 Excited State   4:      Singlet-A      3.4950 eV  354.74 nm  f=0.4580  <S**2>=0.000
     241 -> 247       -0.31997
     241 -> 249        0.16024
     242 -> 247       -0.17564
     242 -> 249        0.15187
     245 -> 247        0.24549
     246 -> 248        0.46829

 Excited State   5:      Singlet-A      3.5572 eV  348.54 nm  f=0.0920  <S**2>=0.000
     241 -> 247       -0.14198
     241 -> 249        0.12477
     242 -> 247       -0.31383
     244 -> 247        0.55529
     245 -> 247       -0.10458
     246 -> 248       -0.13841

 The electronic state is 1-A.
 Alpha  occ. eigenvalues --  -46.88078 -19.25194 -19.24778 -19.19508 -19.19025
 Alpha  occ. eigenvalues --  -19.18201 -19.18086 -14.41644 -14.41179 -14.39641
 Alpha  occ. eigenvalues --  -14.39619 -10.39695 -10.38289 -10.35128 -10.34266
 Alpha  occ. eigenvalues --  -10.33229 -10.31388 -10.30602 -10.30240 -10.30158
 Alpha  occ. eigenvalues --  -10.30066 -10.30054 -10.29867 -10.29770 -10.29354
 Alpha  occ. eigenvalues --  -10.29017 -10.28413 -10.27954 -10.27565 -10.27453
 Alpha  occ. eigenvalues --  -10.27379 -10.27248 -10.27134 -10.27084 -10.27066
 Alpha  occ. eigenvalues --  -10.26823 -10.26792 -10.26637 -10.26363 -10.26302
 Alpha  occ. eigenvalues --  -10.26001 -10.25966 -10.25922 -10.25903 -10.25876
 Alpha  occ. eigenvalues --  -10.25854 -10.25852 -10.25663 -10.25601 -10.25568
 Alpha  occ. eigenvalues --  -10.25500 -10.25459 -10.25407 -10.25402 -10.25239
 Alpha  occ. eigenvalues --  -10.25098 -10.24932 -10.24701 -10.24658 -10.24622
 Alpha  occ. eigenvalues --  -10.24455 -10.24435 -10.24390 -10.24260 -10.24169
 Alpha  occ. eigenvalues --  -10.23940  -3.16706  -1.91609  -1.91153  -1.91028
 Alpha  occ. eigenvalues --   -1.17397  -1.16847  -1.10002  -1.08268  -1.08038
 Alpha  occ. eigenvalues --   -1.07150  -1.04222  -1.03411  -1.02847  -1.01778
 Alpha  occ. eigenvalues --   -0.92092  -0.91081  -0.90220  -0.89707  -0.89364
 Alpha  occ. eigenvalues --   -0.88818  -0.88149  -0.87498  -0.87280  -0.87045
 Alpha  occ. eigenvalues --   -0.86326  -0.85444  -0.84394  -0.83800  -0.83143
 Alpha  occ. eigenvalues --   -0.82679  -0.82059  -0.81548  -0.81273  -0.80503
 Alpha  occ. eigenvalues --   -0.79950  -0.78580  -0.77878  -0.77294  -0.76618
 Alpha  occ. eigenvalues --   -0.76259  -0.75318  -0.75118  -0.74865  -0.74334
 Alpha  occ. eigenvalues --   -0.73728  -0.72859  -0.71227  -0.70543  -0.69066
 Alpha  occ. eigenvalues --   -0.68568  -0.68283  -0.67116  -0.66572  -0.65571
 Alpha  occ. eigenvalues --   -0.65207  -0.65050  -0.64951  -0.64252  -0.64037
 Alpha  occ. eigenvalues --   -0.63532  -0.63325  -0.62646  -0.62382  -0.60621
 Alpha  occ. eigenvalues --   -0.60095  -0.59548  -0.59134  -0.58595  -0.58250
 Alpha  occ. eigenvalues --   -0.57694  -0.57203  -0.56658  -0.56133  -0.55461
 Alpha  occ. eigenvalues --   -0.55440  -0.54822  -0.54528  -0.54396  -0.54200
 Alpha  occ. eigenvalues --   -0.53650  -0.53523  -0.53428  -0.53397  -0.52597
 Alpha  occ. eigenvalues --   -0.52470  -0.52206  -0.51892  -0.51656  -0.51472
 Alpha  occ. eigenvalues --   -0.51297  -0.51209  -0.51096  -0.50727  -0.50697
 Alpha  occ. eigenvalues --   -0.50543  -0.50291  -0.50193  -0.49897  -0.49696
 Alpha  occ. eigenvalues --   -0.49435  -0.48873  -0.48824  -0.48680  -0.48495
 Alpha  occ. eigenvalues --   -0.48314  -0.48155  -0.48019  -0.47865  -0.47638
 Alpha  occ. eigenvalues --   -0.47580  -0.47277  -0.47182  -0.46712  -0.46468
 Alpha  occ. eigenvalues --   -0.46072  -0.45960  -0.45764  -0.45709  -0.45621
 Alpha  occ. eigenvalues --   -0.45501  -0.45295  -0.45077  -0.44977  -0.44690
 Alpha  occ. eigenvalues --   -0.44629  -0.44382  -0.44300  -0.44099  -0.43879
 Alpha  occ. eigenvalues --   -0.43647  -0.43361  -0.43352  -0.43174  -0.42727
 Alpha  occ. eigenvalues --   -0.42661  -0.42488  -0.42365  -0.42246  -0.42087
 Alpha  occ. eigenvalues --   -0.41554  -0.41461  -0.41378  -0.41257  -0.40996
 Alpha  occ. eigenvalues --   -0.40674  -0.40521  -0.40433  -0.40263  -0.40122
 Alpha  occ. eigenvalues --   -0.40080  -0.39664  -0.39338  -0.38943  -0.38418
 Alpha  occ. eigenvalues --   -0.38359  -0.38129  -0.38099  -0.37569  -0.37558
 Alpha  occ. eigenvalues --   -0.37419  -0.37032  -0.36665  -0.36419  -0.36306
 Alpha  occ. eigenvalues --   -0.35819  -0.35578  -0.34802  -0.34343  -0.33926
 Alpha  occ. eigenvalues --   -0.33577  -0.33500  -0.32560  -0.31417  -0.30826
 Alpha  occ. eigenvalues --   -0.30486  -0.30360  -0.30184  -0.29531  -0.24060
 Alpha  occ. eigenvalues --   -0.20434
 Alpha virt. eigenvalues --   -0.08255  -0.01367   0.00607   0.02506   0.03247
 Alpha virt. eigenvalues --    0.04343   0.05162   0.05994   0.06385   0.07040
 Alpha virt. eigenvalues --    0.07645   0.08364   0.08642   0.09121   0.09204

 Mulliken charges:
               1
     1  Mg   0.835759
     2  C   -0.003422
     3  C   -0.108592
     4  C   -0.048514
     5  C   -0.054357
     6  N   -0.291515
     7  C   -0.049194
     8  C   -0.051056
     9  C   -0.025368
    10  C    0.024973
    11  C    0.074036
    12  C    0.066017
    13  C    0.124706
    14  C    0.137571
    15  O   -0.257599
    16  O   -0.315789
    17  N   -0.403137
    18  C    0.171563
    19  C   -0.145192
    20  C   -0.070837
    21  C    0.162516
    22  C    0.114129
    23  C    0.011136
    24  O   -0.198230
    25  C    0.050574
    26  N   -0.270992
    27  C    0.000891
    28  C   -0.030537
    29  C   -0.012445
    30  C   -0.026488
    31  C    0.096458
    32  C    0.050304
    33  C   -0.006165
    34  N   -0.333999
    35  C    0.133540
    36  C   -0.124275
    37  C    0.019522
    38  C    0.101197
    39  C    0.122430
    40  C    0.024708
    41  O   -0.194978
    42  C    0.032923
    43  C    0.150692
    44  O   -0.223924
    45  O   -0.297549
    46  C    0.177497
    47  C    0.324962
    48  C   -0.149431
    49  C   -0.214541
    50  C    0.102629
    51  C    0.088699
    52  C    0.048905
    53  C   -0.006591
    54  C   -0.129106
    55  C    0.044535
    56  C    0.070170
    57  C   -0.028388
    58  C    0.087794
    59  C   -0.187012
    60  C    0.062898
    61  C    0.055885
    62  C    0.004478
    63  C    0.067236
    64  C   -0.168343
    65  C    0.058757
    66  C    0.037124
    67  H   -0.034575
    68  H   -0.000747
    69  H   -0.035624
    70  H    0.034612
    71  H    0.015796
    72  H    0.034898
    73  H    0.012644
    74  H    0.011333
    75  H   -0.001594
    76  H    0.009001
    77  H    0.028681
    78  H    0.020108
    79  H    0.029654
    80  H    0.029652
    81  H    0.021575
    82  H    0.046008
    83  H    0.034945
    84  H    0.020837
    85  H   -0.000852
    86  H    0.002131
    87  H    0.031510
    88  H    0.004845
    89  H    0.007476
    90  H    0.005704
    91  H   -0.000867
    92  H    0.015881
    93  H    0.014382
    94  H    0.018747
    95  H    0.012652
    96  H    0.016461
    97  H    0.034779
    98  H    0.026018
    99  H    0.036184
   100  H    0.050969
   101  H    0.025957
   102  H   -0.002593
   103  H    0.037918
   104  H    0.008448
   105  H    0.034246
   106  H    0.015834
   107  H   -0.006168
   108  H    0.016692
   109  H   -0.008403
   110  H   -0.005511
   111  H    0.011330
   112  H   -0.000350
   113  H   -0.012303
   114  H   -0.000673
   115  H    0.011395
   116  H    0.012504
   117  H    0.017969
   118  H   -0.009542
   119  H   -0.001942
   120  H   -0.001290
   121  H    0.009014
   122  H   -0.006034
   123  H   -0.012040
   124  H    0.003844
   125  H   -0.015072
   126  H   -0.007359
   127  H    0.021807
   128  H   -0.015401
   129  H    0.002073
   130  H   -0.006244
   131  H    0.001983
   132  H   -0.009704
   133  H   -0.007769
   134  H   -0.000031
   135  H    0.011716
   136  H    0.014713
   137  H   -0.005746
   138  H   -0.003182
   139  H    0.005893
   140  H    0.011145
 Sum of Mulliken charges =  -0.00000

 Dipole moment (field-independent basis, Debye):
    X=             -3.6225    Y=              1.9174    Z=              1.4468  Tot=              4.3465
 Quadrupole moment (field-independent basis, Debye-Ang):
   XX=           -376.5992   YY=           -420.3302   ZZ=           -404.4423
   XY=              8.1545   XZ=             15.3495   YZ=              3.0679

 Normal termination of Gaussian 16 at Wed May  4 13:10:35 2022.
