 Gaussian 16, Revision A.03,
 Gaussian 16:  ES64L-G16RevA.03 25-Dec-2016

 ---------------------------------
 #p PBE1PBE/Def2SVP td=(nstates=5)
 ---------------------------------

 -----------------------------------------------------
 step_1751_chromophore_4 TDDFT with PBE1PBE functional
 -----------------------------------------------------
 Symbolic Z-matrix:
 Charge =  0 Multiplicity = 1

                         Standard orientation:
 ---------------------------------------------------------------------
 Center     Atomic      Atomic             Coordinates (Angstroms)
 Number     Number       Type             X           Y           Z
 ---------------------------------------------------------------------
      1         12           0        5.594607    0.687211    0.130970
      2          6           0        3.449173   -2.056729    0.208940
      3          6           0        2.932107    2.658259   -0.325386
      4          6           0        7.779722    3.184703   -0.155657
      5          6           0        8.352583   -1.644155    0.267200
      6          7           0        3.462614    0.334198   -0.060207
      7          6           0        2.817034   -0.886335    0.085912
      8          6           0        1.320216   -0.677384    0.127369
      9          6           0        1.095610    0.853214   -0.251439
     10          6           0        2.542669    1.305054   -0.124903
     11          6           0        0.431813    1.188366   -1.642173
     12          6           0        0.838676   -0.939290    1.516604
     13          6           0       -0.493454   -1.616513    1.709261
     14          6           0       -1.432883   -1.582884    0.520374
     15          8           0       -1.806515   -0.509740    0.061596
     16          8           0       -1.802285   -2.780212   -0.003120
     17          7           0        5.395850    2.637028   -0.137829
     18          6           0        4.230832    3.275651   -0.274530
     19          6           0        4.476939    4.720936   -0.433947
     20          6           0        5.866882    4.842021   -0.499246
     21          6           0        6.441628    3.529087   -0.181391
     22          6           0        3.332435    5.720801   -0.529482
     23          6           0        6.724126    6.102343   -0.725807
     24          8           0        7.948627    6.113550   -0.757320
     25          6           0        5.993891    7.350510   -1.121239
     26          7           0        7.817052    0.695483   -0.043697
     27          6           0        8.431549    1.976657   -0.073563
     28          6           0        9.959041    1.683682    0.079916
     29          6           0       10.055348    0.252122    0.507508
     30          6           0        8.688476   -0.274152    0.234895
     31          6           0       10.849981    1.918188   -1.157469
     32          6           0       10.464067   -0.009395    1.924832
     33          6           0       11.498742   -1.160200    2.153873
     34          7           0        5.910755   -1.394920    0.241058
     35          6           0        7.052808   -2.213202    0.337269
     36          6           0        6.701163   -3.659935    0.326919
     37          6           0        5.269358   -3.643935    0.399649
     38          6           0        4.861306   -2.238323    0.268246
     39          6           0        7.602924   -4.804783    0.327375
     40          6           0        4.098244   -4.452588    0.454716
     41          8           0        3.925139   -5.667826    0.626527
     42          6           0        2.869388   -3.488404    0.346275
     43          6           0        2.123107   -3.890983   -0.882012
     44          8           0        2.605244   -3.882903   -1.994196
     45          8           0        0.825555   -4.146626   -0.695386
     46          6           0        0.047709   -4.582992   -1.824865
     47          6           0       -2.854207   -2.949137   -0.977495
     48          6           0       -4.143308   -2.633962   -0.256738
     49          6           0       -5.324051   -3.254370   -0.088724
     50          6           0       -5.670522   -4.620417   -0.634711
     51          6           0       -6.420686   -2.484684    0.591960
     52          6           0       -7.186564   -1.550515   -0.389352
     53          6           0       -7.426192   -0.155203    0.185828
     54          6           0       -8.838000    0.391225   -0.141504
     55          6           0       -9.004171    0.588218   -1.708633
     56          6           0       -9.145495    1.639595    0.737344
     57          6           0      -10.233879    1.250066    1.790626
     58          6           0      -11.003302    2.448001    2.340941
     59          6           0      -12.495722    2.062570    2.601375
     60          6           0      -12.949674    2.598632    3.987274
     61          6           0      -13.456862    2.519674    1.407493
     62          6           0      -13.897794    1.319307    0.551351
     63          6           0      -14.151593    1.636693   -0.925667
     64          6           0      -13.475276    0.632588   -1.880878
     65          6           0      -13.040838    1.317901   -3.220152
     66          6           0      -14.419647   -0.521893   -2.148557
     67          1           0        2.064367    3.274115   -0.570870
     68          1           0        8.547472    3.959483   -0.201319
     69          1           0        9.262339   -2.238774    0.377238
     70          1           0        0.913509   -1.319494   -0.653681
     71          1           0        0.422414    1.309864    0.474814
     72          1           0       -0.626358    1.425489   -1.534944
     73          1           0        0.526523    0.289972   -2.251614
     74          1           0        0.955022    2.044763   -2.067797
     75          1           0        0.784389   -0.035798    2.123820
     76          1           0        1.587429   -1.506700    2.067800
     77          1           0       -0.980439   -1.145220    2.563615
     78          1           0       -0.283715   -2.658531    1.952483
     79          1           0        3.217021    6.222405   -1.490894
     80          1           0        3.694768    6.419077    0.225294
     81          1           0        2.324708    5.350045   -0.341944
     82          1           0        5.457639    7.791769   -0.281568
     83          1           0        5.427980    7.017995   -1.991565
     84          1           0        6.686972    8.066296   -1.564773
     85          1           0       10.322909    2.308201    0.896777
     86          1           0       10.766237   -0.275679   -0.128379
     87          1           0       11.848945    2.159181   -0.791946
     88          1           0       10.380497    2.695745   -1.758900
     89          1           0       10.748128    1.119706   -1.893011
     90          1           0        9.573347   -0.260483    2.500692
     91          1           0       10.771847    0.901349    2.437661
     92          1           0       12.254008   -0.890765    2.892872
     93          1           0       12.047783   -1.521805    1.284073
     94          1           0       10.948252   -2.014849    2.546716
     95          1           0        8.590781   -4.698194    0.774686
     96          1           0        7.930386   -5.021507   -0.689237
     97          1           0        7.142290   -5.766736    0.555403
     98          1           0        2.246187   -3.662980    1.223348
     99          1           0       -0.745385   -5.226783   -1.445136
    100          1           0        0.635495   -5.102544   -2.581340
    101          1           0       -0.435830   -3.708818   -2.262538
    102          1           0       -2.806165   -4.001511   -1.258487
    103          1           0       -2.723164   -2.367454   -1.889973
    104          1           0       -4.254315   -1.582532    0.009373
    105          1           0       -6.558797   -4.708483   -1.260548
    106          1           0       -5.838397   -5.218070    0.262332
    107          1           0       -4.769554   -5.041521   -1.081569
    108          1           0       -5.894815   -1.930482    1.369421
    109          1           0       -7.104937   -3.205222    1.039423
    110          1           0       -8.158649   -2.010206   -0.569755
    111          1           0       -6.669165   -1.390613   -1.335522
    112          1           0       -6.645410    0.536530   -0.131132
    113          1           0       -7.300797   -0.159422    1.269374
    114          1           0       -9.453958   -0.433702    0.218089
    115          1           0       -8.055052    0.578982   -2.245023
    116          1           0       -9.445142    1.544790   -1.989066
    117          1           0       -9.675082   -0.200014   -2.052712
    118          1           0       -9.485543    2.467892    0.116097
    119          1           0       -8.288014    1.984667    1.315172
    120          1           0       -9.639359    0.809307    2.591261
    121          1           0      -11.002437    0.542145    1.481666
    122          1           0      -10.874261    3.297121    1.669965
    123          1           0      -10.559592    2.805355    3.269601
    124          1           0      -12.670354    0.987806    2.649249
    125          1           0      -13.778153    3.287786    3.825707
    126          1           0      -12.198466    3.308226    4.333182
    127          1           0      -13.221094    1.851135    4.732648
    128          1           0      -12.771276    3.154374    0.846052
    129          1           0      -14.289627    3.146632    1.724553
    130          1           0      -14.861422    1.066878    0.993683
    131          1           0      -13.217306    0.472918    0.641528
    132          1           0      -13.823434    2.671039   -1.023389
    133          1           0      -15.226108    1.602049   -1.103869
    134          1           0      -12.582890    0.195294   -1.432002
    135          1           0      -11.971725    1.526241   -3.244261
    136          1           0      -13.606133    2.226877   -3.427874
    137          1           0      -13.309286    0.535668   -3.931674
    138          1           0      -13.785164   -1.407173   -2.191406
    139          1           0      -14.900159   -0.529320   -3.127597
    140          1           0      -15.210594   -0.714998   -1.424923
 ---------------------------------------------------------------------

 SCF Done:  E(RPBE1PBE) =  -3005.38804831     A.U. after   15 cycles

 Excitation energies and oscillator strengths:

 Excited State   1:      Singlet-A      1.8338 eV  676.09 nm  f=0.3704  <S**2>=0.000
     245 -> 248        0.15717
     246 -> 247        0.69576
     246 <- 247       -0.11715
 This state for optimization and/or second-order correction.
 Total Energy, E(TD-HF/TD-DFT) =  -3005.32065596
 Copying the excited state density for this state as the 1-particle RhoCI density.

 Excited State   2:      Singlet-A      2.3019 eV  538.62 nm  f=0.0993  <S**2>=0.000
     245 -> 247        0.63697
     246 -> 248       -0.28921

 Excited State   3:      Singlet-A      2.9938 eV  414.14 nm  f=0.0002  <S**2>=0.000
     243 -> 247        0.40591
     243 -> 249       -0.13294
     244 -> 247        0.53496
     244 -> 249       -0.12624

 Excited State   4:      Singlet-A      3.1905 eV  388.60 nm  f=0.0130  <S**2>=0.000
     241 -> 247        0.48500
     241 -> 248        0.10330
     241 -> 249        0.10080
     243 -> 247        0.36884
     244 -> 247       -0.25733
     246 -> 248       -0.15141

 Excited State   5:      Singlet-A      3.2075 eV  386.55 nm  f=0.0029  <S**2>=0.000
     241 -> 247        0.44495
     243 -> 247       -0.39541
     244 -> 247        0.32906

 The electronic state is 1-A.
 Alpha  occ. eigenvalues --  -46.91477 -19.25851 -19.25373 -19.19752 -19.19219
 Alpha  occ. eigenvalues --  -19.18412 -19.18330 -14.41270 -14.40593 -14.39285
 Alpha  occ. eigenvalues --  -14.39250 -10.36715 -10.35277 -10.32252 -10.31393
 Alpha  occ. eigenvalues --  -10.30594 -10.28604 -10.28298 -10.28015 -10.27965
 Alpha  occ. eigenvalues --  -10.27763 -10.27719 -10.27623 -10.27512 -10.27017
 Alpha  occ. eigenvalues --  -10.26587 -10.26134 -10.25580 -10.25408 -10.25266
 Alpha  occ. eigenvalues --  -10.25026 -10.24951 -10.24772 -10.24706 -10.24641
 Alpha  occ. eigenvalues --  -10.24589 -10.24281 -10.24237 -10.24192 -10.23765
 Alpha  occ. eigenvalues --  -10.23746 -10.23670 -10.23545 -10.23431 -10.23422
 Alpha  occ. eigenvalues --  -10.23333 -10.23328 -10.23305 -10.23216 -10.23122
 Alpha  occ. eigenvalues --  -10.23070 -10.23045 -10.22920 -10.22905 -10.22824
 Alpha  occ. eigenvalues --  -10.22517 -10.22512 -10.22280 -10.22216 -10.22210
 Alpha  occ. eigenvalues --  -10.22049 -10.21927 -10.21834 -10.21716 -10.21650
 Alpha  occ. eigenvalues --  -10.21362  -3.13684  -1.86529  -1.86051  -1.85928
 Alpha  occ. eigenvalues --   -1.12170  -1.11642  -1.04709  -1.02987  -1.02863
 Alpha  occ. eigenvalues --   -1.01944  -0.98860  -0.98079  -0.97436  -0.96425
 Alpha  occ. eigenvalues --   -0.86431  -0.85229  -0.84464  -0.83805  -0.83678
 Alpha  occ. eigenvalues --   -0.82938  -0.82482  -0.81622  -0.81555  -0.81342
 Alpha  occ. eigenvalues --   -0.80642  -0.79701  -0.78618  -0.78048  -0.77401
 Alpha  occ. eigenvalues --   -0.76909  -0.76247  -0.75743  -0.75544  -0.74853
 Alpha  occ. eigenvalues --   -0.74101  -0.72879  -0.72169  -0.71598  -0.70867
 Alpha  occ. eigenvalues --   -0.70504  -0.69481  -0.69409  -0.69029  -0.68508
 Alpha  occ. eigenvalues --   -0.68031  -0.67308  -0.65654  -0.64874  -0.63391
 Alpha  occ. eigenvalues --   -0.62976  -0.62575  -0.61545  -0.60801  -0.60033
 Alpha  occ. eigenvalues --   -0.59540  -0.59447  -0.59366  -0.58636  -0.58447
 Alpha  occ. eigenvalues --   -0.57857  -0.57648  -0.56942  -0.56863  -0.54992
 Alpha  occ. eigenvalues --   -0.54620  -0.54062  -0.53696  -0.53203  -0.52722
 Alpha  occ. eigenvalues --   -0.52174  -0.51670  -0.51238  -0.50563  -0.50005
 Alpha  occ. eigenvalues --   -0.49923  -0.49287  -0.49029  -0.48795  -0.48698
 Alpha  occ. eigenvalues --   -0.48249  -0.48075  -0.47835  -0.47711  -0.47175
 Alpha  occ. eigenvalues --   -0.47064  -0.46789  -0.46418  -0.46273  -0.46000
 Alpha  occ. eigenvalues --   -0.45929  -0.45851  -0.45570  -0.45335  -0.45253
 Alpha  occ. eigenvalues --   -0.45111  -0.44792  -0.44744  -0.44483  -0.44302
 Alpha  occ. eigenvalues --   -0.43998  -0.43526  -0.43409  -0.43260  -0.43138
 Alpha  occ. eigenvalues --   -0.42912  -0.42751  -0.42590  -0.42497  -0.42319
 Alpha  occ. eigenvalues --   -0.42241  -0.41920  -0.41858  -0.41345  -0.41098
 Alpha  occ. eigenvalues --   -0.40759  -0.40657  -0.40483  -0.40376  -0.40280
 Alpha  occ. eigenvalues --   -0.40204  -0.39991  -0.39825  -0.39672  -0.39480
 Alpha  occ. eigenvalues --   -0.39399  -0.39181  -0.39070  -0.38831  -0.38663
 Alpha  occ. eigenvalues --   -0.38392  -0.38147  -0.38114  -0.37956  -0.37471
 Alpha  occ. eigenvalues --   -0.37374  -0.37265  -0.37125  -0.37046  -0.36888
 Alpha  occ. eigenvalues --   -0.36411  -0.36237  -0.36165  -0.36106  -0.35696
 Alpha  occ. eigenvalues --   -0.35458  -0.35409  -0.35197  -0.35157  -0.35043
 Alpha  occ. eigenvalues --   -0.34862  -0.34631  -0.34129  -0.33718  -0.33275
 Alpha  occ. eigenvalues --   -0.33210  -0.33070  -0.32896  -0.32538  -0.32372
 Alpha  occ. eigenvalues --   -0.32280  -0.31853  -0.31732  -0.31439  -0.31295
 Alpha  occ. eigenvalues --   -0.30769  -0.30390  -0.29774  -0.29354  -0.29060
 Alpha  occ. eigenvalues --   -0.28522  -0.28347  -0.27906  -0.26994  -0.26104
 Alpha  occ. eigenvalues --   -0.25541  -0.25495  -0.25335  -0.25088  -0.20935
 Alpha  occ. eigenvalues --   -0.18136
 Alpha virt. eigenvalues --   -0.10733  -0.04927  -0.03576  -0.01868  -0.00194
 Alpha virt. eigenvalues --    0.00549   0.00684   0.01696   0.01798   0.03736
 Alpha virt. eigenvalues --    0.04125   0.04444   0.05147   0.05528   0.05819

 Mulliken charges:
               1
     1  Mg   0.987903
     2  C   -0.020404
     3  C   -0.099447
     4  C   -0.055555
     5  C   -0.046401
     6  N   -0.396104
     7  C    0.019160
     8  C   -0.141980
     9  C   -0.088787
    10  C    0.065410
    11  C    0.015652
    12  C    0.025404
    13  C    0.048206
    14  C    0.206114
    15  O   -0.289080
    16  O   -0.349414
    17  N   -0.529634
    18  C    0.196328
    19  C   -0.177115
    20  C   -0.117148
    21  C    0.198734
    22  C    0.055527
    23  C    0.066352
    24  O   -0.236147
    25  C   -0.026015
    26  N   -0.371957
    27  C    0.041877
    28  C   -0.109953
    29  C   -0.096152
    30  C    0.019151
    31  C    0.035633
    32  C   -0.002966
    33  C   -0.078636
    34  N   -0.456535
    35  C    0.150996
    36  C   -0.141162
    37  C   -0.027731
    38  C    0.163785
    39  C    0.071034
    40  C    0.116620
    41  O   -0.241017
    42  C   -0.078921
    43  C    0.249439
    44  O   -0.258478
    45  O   -0.333754
    46  C    0.121510
    47  C    0.278157
    48  C   -0.155918
    49  C   -0.258012
    50  C    0.038838
    51  C    0.020164
    52  C   -0.012392
    53  C   -0.055915
    54  C   -0.218042
    55  C   -0.013876
    56  C    0.016709
    57  C   -0.094920
    58  C    0.036895
    59  C   -0.275240
    60  C    0.004828
    61  C    0.006779
    62  C   -0.059664
    63  C    0.011020
    64  C   -0.265663
    65  C   -0.003750
    66  C   -0.022652
    67  H   -0.000973
    68  H    0.031241
    69  H   -0.002459
    70  H    0.076475
    71  H    0.051143
    72  H    0.061867
    73  H    0.040933
    74  H    0.038976
    75  H    0.029821
    76  H    0.043393
    77  H    0.061232
    78  H    0.052746
    79  H    0.056482
    80  H    0.058636
    81  H    0.047554
    82  H    0.071647
    83  H    0.062185
    84  H    0.049023
    85  H    0.036992
    86  H    0.040107
    87  H    0.059394
    88  H    0.033976
    89  H    0.035575
    90  H    0.039674
    91  H    0.031400
    92  H    0.043971
    93  H    0.040582
    94  H    0.046014
    95  H    0.038940
    96  H    0.044952
    97  H    0.061444
    98  H    0.063265
    99  H    0.057789
   100  H    0.072477
   101  H    0.049105
   102  H    0.026134
   103  H    0.062819
   104  H    0.038858
   105  H    0.060770
   106  H    0.044857
   107  H    0.022878
   108  H    0.048307
   109  H    0.024564
   110  H    0.026999
   111  H    0.043334
   112  H    0.032406
   113  H    0.021066
   114  H    0.037373
   115  H    0.038222
   116  H    0.039581
   117  H    0.044590
   118  H    0.022680
   119  H    0.030227
   120  H    0.033318
   121  H    0.042490
   122  H    0.024417
   123  H    0.020455
   124  H    0.042294
   125  H    0.013199
   126  H    0.020215
   127  H    0.048339
   128  H    0.017979
   129  H    0.032472
   130  H    0.028461
   131  H    0.033168
   132  H    0.023066
   133  H    0.025538
   134  H    0.039779
   135  H    0.041139
   136  H    0.041634
   137  H    0.022565
   138  H    0.025199
   139  H    0.032924
   140  H    0.038416
 Sum of Mulliken charges =  -0.00000

 Dipole moment (field-independent basis, Debye):
    X=             -3.6625    Y=              1.9409    Z=              1.4364  Tot=              4.3869
 Quadrupole moment (field-independent basis, Debye-Ang):
   XX=           -370.7409   YY=           -417.8137   ZZ=           -402.0116
   XY=              7.5336   XZ=             15.5538   YZ=              3.1203

 Normal termination of Gaussian 16 at Wed May  4 13:31:54 2022.
