 Gaussian 16, Revision A.03,
 Gaussian 16:  ES64L-G16RevA.03 25-Dec-2016

 --------------------------------
 #p wB97XD/Def2SVP td=(nstates=5)
 --------------------------------

 ----------------------------------------------------
 step_1751_chromophore_4 TDDFT with wB97XD functional
 ----------------------------------------------------
 Symbolic Z-matrix:
 Charge =  0 Multiplicity = 1

                         Standard orientation:
 ---------------------------------------------------------------------
 Center     Atomic      Atomic             Coordinates (Angstroms)
 Number     Number       Type             X           Y           Z
 ---------------------------------------------------------------------
      1         12           0        5.594607    0.687211    0.130970
      2          6           0        3.449173   -2.056729    0.208940
      3          6           0        2.932107    2.658259   -0.325386
      4          6           0        7.779722    3.184703   -0.155657
      5          6           0        8.352583   -1.644155    0.267200
      6          7           0        3.462614    0.334198   -0.060207
      7          6           0        2.817034   -0.886335    0.085912
      8          6           0        1.320216   -0.677384    0.127369
      9          6           0        1.095610    0.853214   -0.251439
     10          6           0        2.542669    1.305054   -0.124903
     11          6           0        0.431813    1.188366   -1.642173
     12          6           0        0.838676   -0.939290    1.516604
     13          6           0       -0.493454   -1.616513    1.709261
     14          6           0       -1.432883   -1.582884    0.520374
     15          8           0       -1.806515   -0.509740    0.061596
     16          8           0       -1.802285   -2.780212   -0.003120
     17          7           0        5.395850    2.637028   -0.137829
     18          6           0        4.230832    3.275651   -0.274530
     19          6           0        4.476939    4.720936   -0.433947
     20          6           0        5.866882    4.842021   -0.499246
     21          6           0        6.441628    3.529087   -0.181391
     22          6           0        3.332435    5.720801   -0.529482
     23          6           0        6.724126    6.102343   -0.725807
     24          8           0        7.948627    6.113550   -0.757320
     25          6           0        5.993891    7.350510   -1.121239
     26          7           0        7.817052    0.695483   -0.043697
     27          6           0        8.431549    1.976657   -0.073563
     28          6           0        9.959041    1.683682    0.079916
     29          6           0       10.055348    0.252122    0.507508
     30          6           0        8.688476   -0.274152    0.234895
     31          6           0       10.849981    1.918188   -1.157469
     32          6           0       10.464067   -0.009395    1.924832
     33          6           0       11.498742   -1.160200    2.153873
     34          7           0        5.910755   -1.394920    0.241058
     35          6           0        7.052808   -2.213202    0.337269
     36          6           0        6.701163   -3.659935    0.326919
     37          6           0        5.269358   -3.643935    0.399649
     38          6           0        4.861306   -2.238323    0.268246
     39          6           0        7.602924   -4.804783    0.327375
     40          6           0        4.098244   -4.452588    0.454716
     41          8           0        3.925139   -5.667826    0.626527
     42          6           0        2.869388   -3.488404    0.346275
     43          6           0        2.123107   -3.890983   -0.882012
     44          8           0        2.605244   -3.882903   -1.994196
     45          8           0        0.825555   -4.146626   -0.695386
     46          6           0        0.047709   -4.582992   -1.824865
     47          6           0       -2.854207   -2.949137   -0.977495
     48          6           0       -4.143308   -2.633962   -0.256738
     49          6           0       -5.324051   -3.254370   -0.088724
     50          6           0       -5.670522   -4.620417   -0.634711
     51          6           0       -6.420686   -2.484684    0.591960
     52          6           0       -7.186564   -1.550515   -0.389352
     53          6           0       -7.426192   -0.155203    0.185828
     54          6           0       -8.838000    0.391225   -0.141504
     55          6           0       -9.004171    0.588218   -1.708633
     56          6           0       -9.145495    1.639595    0.737344
     57          6           0      -10.233879    1.250066    1.790626
     58          6           0      -11.003302    2.448001    2.340941
     59          6           0      -12.495722    2.062570    2.601375
     60          6           0      -12.949674    2.598632    3.987274
     61          6           0      -13.456862    2.519674    1.407493
     62          6           0      -13.897794    1.319307    0.551351
     63          6           0      -14.151593    1.636693   -0.925667
     64          6           0      -13.475276    0.632588   -1.880878
     65          6           0      -13.040838    1.317901   -3.220152
     66          6           0      -14.419647   -0.521893   -2.148557
     67          1           0        2.064367    3.274115   -0.570870
     68          1           0        8.547472    3.959483   -0.201319
     69          1           0        9.262339   -2.238774    0.377238
     70          1           0        0.913509   -1.319494   -0.653681
     71          1           0        0.422414    1.309864    0.474814
     72          1           0       -0.626358    1.425489   -1.534944
     73          1           0        0.526523    0.289972   -2.251614
     74          1           0        0.955022    2.044763   -2.067797
     75          1           0        0.784389   -0.035798    2.123820
     76          1           0        1.587429   -1.506700    2.067800
     77          1           0       -0.980439   -1.145220    2.563615
     78          1           0       -0.283715   -2.658531    1.952483
     79          1           0        3.217021    6.222405   -1.490894
     80          1           0        3.694768    6.419077    0.225294
     81          1           0        2.324708    5.350045   -0.341944
     82          1           0        5.457639    7.791769   -0.281568
     83          1           0        5.427980    7.017995   -1.991565
     84          1           0        6.686972    8.066296   -1.564773
     85          1           0       10.322909    2.308201    0.896777
     86          1           0       10.766237   -0.275679   -0.128379
     87          1           0       11.848945    2.159181   -0.791946
     88          1           0       10.380497    2.695745   -1.758900
     89          1           0       10.748128    1.119706   -1.893011
     90          1           0        9.573347   -0.260483    2.500692
     91          1           0       10.771847    0.901349    2.437661
     92          1           0       12.254008   -0.890765    2.892872
     93          1           0       12.047783   -1.521805    1.284073
     94          1           0       10.948252   -2.014849    2.546716
     95          1           0        8.590781   -4.698194    0.774686
     96          1           0        7.930386   -5.021507   -0.689237
     97          1           0        7.142290   -5.766736    0.555403
     98          1           0        2.246187   -3.662980    1.223348
     99          1           0       -0.745385   -5.226783   -1.445136
    100          1           0        0.635495   -5.102544   -2.581340
    101          1           0       -0.435830   -3.708818   -2.262538
    102          1           0       -2.806165   -4.001511   -1.258487
    103          1           0       -2.723164   -2.367454   -1.889973
    104          1           0       -4.254315   -1.582532    0.009373
    105          1           0       -6.558797   -4.708483   -1.260548
    106          1           0       -5.838397   -5.218070    0.262332
    107          1           0       -4.769554   -5.041521   -1.081569
    108          1           0       -5.894815   -1.930482    1.369421
    109          1           0       -7.104937   -3.205222    1.039423
    110          1           0       -8.158649   -2.010206   -0.569755
    111          1           0       -6.669165   -1.390613   -1.335522
    112          1           0       -6.645410    0.536530   -0.131132
    113          1           0       -7.300797   -0.159422    1.269374
    114          1           0       -9.453958   -0.433702    0.218089
    115          1           0       -8.055052    0.578982   -2.245023
    116          1           0       -9.445142    1.544790   -1.989066
    117          1           0       -9.675082   -0.200014   -2.052712
    118          1           0       -9.485543    2.467892    0.116097
    119          1           0       -8.288014    1.984667    1.315172
    120          1           0       -9.639359    0.809307    2.591261
    121          1           0      -11.002437    0.542145    1.481666
    122          1           0      -10.874261    3.297121    1.669965
    123          1           0      -10.559592    2.805355    3.269601
    124          1           0      -12.670354    0.987806    2.649249
    125          1           0      -13.778153    3.287786    3.825707
    126          1           0      -12.198466    3.308226    4.333182
    127          1           0      -13.221094    1.851135    4.732648
    128          1           0      -12.771276    3.154374    0.846052
    129          1           0      -14.289627    3.146632    1.724553
    130          1           0      -14.861422    1.066878    0.993683
    131          1           0      -13.217306    0.472918    0.641528
    132          1           0      -13.823434    2.671039   -1.023389
    133          1           0      -15.226108    1.602049   -1.103869
    134          1           0      -12.582890    0.195294   -1.432002
    135          1           0      -11.971725    1.526241   -3.244261
    136          1           0      -13.606133    2.226877   -3.427874
    137          1           0      -13.309286    0.535668   -3.931674
    138          1           0      -13.785164   -1.407173   -2.191406
    139          1           0      -14.900159   -0.529320   -3.127597
    140          1           0      -15.210594   -0.714998   -1.424923
 ---------------------------------------------------------------------

 SCF Done:  E(RwB97XD) =  -3007.89981236     A.U. after   19 cycles

 Excitation energies and oscillator strengths:

 Excited State   1:      Singlet-A      1.6143 eV  768.04 nm  f=0.3855  <S**2>=0.000
     245 -> 248        0.17340
     246 -> 247        0.68447
     245 <- 248        0.11336
 This state for optimization and/or second-order correction.
 Total Energy, E(TD-HF/TD-DFT) =  -3007.84048781
 Copying the excited state density for this state as the 1-particle RhoCI density.

 Excited State   2:      Singlet-A      2.2527 eV  550.39 nm  f=0.0898  <S**2>=0.000
     245 -> 247        0.62068
     246 -> 248       -0.32202

 Excited State   3:      Singlet-A      3.4878 eV  355.48 nm  f=0.4036  <S**2>=0.000
     242 -> 247        0.18647
     242 -> 249       -0.13588
     244 -> 247        0.36730
     245 -> 247        0.22532
     246 -> 248        0.48154

 Excited State   4:      Singlet-A      3.5225 eV  351.98 nm  f=0.2843  <S**2>=0.000
     240 -> 247        0.10599
     241 -> 247       -0.18437
     242 -> 247        0.37458
     242 -> 249       -0.27342
     242 -> 250        0.15818
     244 -> 247        0.18167
     245 -> 247       -0.18992
     246 -> 248       -0.34624

 Excited State   5:      Singlet-A      3.5867 eV  345.67 nm  f=0.1251  <S**2>=0.000
     242 -> 247       -0.35168
     242 -> 249        0.11984
     244 -> 247        0.52911
     245 -> 247       -0.12241
     246 -> 248       -0.16345

 The electronic state is 1-A.
 Alpha  occ. eigenvalues --  -46.94414 -19.30395 -19.29982 -19.24428 -19.24038
 Alpha  occ. eigenvalues --  -19.23180 -19.23145 -14.46218 -14.45812 -14.44257
 Alpha  occ. eigenvalues --  -14.44206 -10.43499 -10.42124 -10.39080 -10.38313
 Alpha  occ. eigenvalues --  -10.37125 -10.35161 -10.34614 -10.34307 -10.34196
 Alpha  occ. eigenvalues --  -10.34089 -10.34087 -10.33885 -10.33744 -10.33389
 Alpha  occ. eigenvalues --  -10.33205 -10.32539 -10.32020 -10.31617 -10.31509
 Alpha  occ. eigenvalues --  -10.31371 -10.31170 -10.31161 -10.31124 -10.31068
 Alpha  occ. eigenvalues --  -10.30874 -10.30851 -10.30587 -10.30407 -10.30129
 Alpha  occ. eigenvalues --  -10.30001 -10.29979 -10.29922 -10.29829 -10.29818
 Alpha  occ. eigenvalues --  -10.29792 -10.29709 -10.29594 -10.29567 -10.29547
 Alpha  occ. eigenvalues --  -10.29439 -10.29439 -10.29264 -10.29257 -10.29194
 Alpha  occ. eigenvalues --  -10.28924 -10.28866 -10.28630 -10.28576 -10.28552
 Alpha  occ. eigenvalues --  -10.28388 -10.28292 -10.28246 -10.28071 -10.28068
 Alpha  occ. eigenvalues --  -10.27766  -3.20468  -1.94064  -1.93586  -1.93461
 Alpha  occ. eigenvalues --   -1.19578  -1.19007  -1.12202  -1.10513  -1.10202
 Alpha  occ. eigenvalues --   -1.09349  -1.06217  -1.05430  -1.04852  -1.03817
 Alpha  occ. eigenvalues --   -0.94056  -0.92893  -0.92073  -0.91461  -0.91237
 Alpha  occ. eigenvalues --   -0.90589  -0.90083  -0.89273  -0.89227  -0.88985
 Alpha  occ. eigenvalues --   -0.88267  -0.87319  -0.86257  -0.85681  -0.85047
 Alpha  occ. eigenvalues --   -0.84541  -0.83969  -0.83400  -0.83205  -0.82467
 Alpha  occ. eigenvalues --   -0.81766  -0.80524  -0.79794  -0.79211  -0.78520
 Alpha  occ. eigenvalues --   -0.78151  -0.77103  -0.77050  -0.76694  -0.76162
 Alpha  occ. eigenvalues --   -0.75631  -0.74856  -0.73184  -0.72462  -0.70965
 Alpha  occ. eigenvalues --   -0.70543  -0.70186  -0.69105  -0.68429  -0.67527
 Alpha  occ. eigenvalues --   -0.67027  -0.66985  -0.66950  -0.66090  -0.66038
 Alpha  occ. eigenvalues --   -0.65373  -0.65247  -0.64480  -0.64367  -0.62521
 Alpha  occ. eigenvalues --   -0.62069  -0.61504  -0.61112  -0.60580  -0.60213
 Alpha  occ. eigenvalues --   -0.59632  -0.59135  -0.58650  -0.58042  -0.57408
 Alpha  occ. eigenvalues --   -0.57361  -0.56721  -0.56464  -0.56246  -0.56105
 Alpha  occ. eigenvalues --   -0.55572  -0.55446  -0.55305  -0.55266  -0.54497
 Alpha  occ. eigenvalues --   -0.54414  -0.54132  -0.53769  -0.53584  -0.53355
 Alpha  occ. eigenvalues --   -0.53236  -0.53162  -0.52943  -0.52651  -0.52601
 Alpha  occ. eigenvalues --   -0.52436  -0.52219  -0.52075  -0.51811  -0.51599
 Alpha  occ. eigenvalues --   -0.51370  -0.50839  -0.50723  -0.50575  -0.50429
 Alpha  occ. eigenvalues --   -0.50242  -0.50096  -0.49887  -0.49778  -0.49558
 Alpha  occ. eigenvalues --   -0.49499  -0.49223  -0.49069  -0.48586  -0.48333
 Alpha  occ. eigenvalues --   -0.47983  -0.47875  -0.47674  -0.47536  -0.47523
 Alpha  occ. eigenvalues --   -0.47446  -0.47173  -0.46996  -0.46871  -0.46607
 Alpha  occ. eigenvalues --   -0.46579  -0.46309  -0.46240  -0.45977  -0.45802
 Alpha  occ. eigenvalues --   -0.45530  -0.45301  -0.45231  -0.45082  -0.44615
 Alpha  occ. eigenvalues --   -0.44557  -0.44457  -0.44323  -0.44194  -0.44049
 Alpha  occ. eigenvalues --   -0.43466  -0.43324  -0.43307  -0.43148  -0.42845
 Alpha  occ. eigenvalues --   -0.42568  -0.42451  -0.42281  -0.42155  -0.42028
 Alpha  occ. eigenvalues --   -0.41934  -0.41556  -0.41179  -0.40798  -0.40264
 Alpha  occ. eigenvalues --   -0.40246  -0.40043  -0.39937  -0.39468  -0.39398
 Alpha  occ. eigenvalues --   -0.39288  -0.38881  -0.38793  -0.38359  -0.38235
 Alpha  occ. eigenvalues --   -0.37838  -0.37416  -0.36637  -0.36191  -0.35909
 Alpha  occ. eigenvalues --   -0.35502  -0.35429  -0.34777  -0.33598  -0.32828
 Alpha  occ. eigenvalues --   -0.32564  -0.32414  -0.32211  -0.31726  -0.25986
 Alpha  occ. eigenvalues --   -0.22235
 Alpha virt. eigenvalues --   -0.06613   0.00549   0.02648   0.04604   0.06322
 Alpha virt. eigenvalues --    0.06608   0.07398   0.08462   0.08528   0.09859
 Alpha virt. eigenvalues --    0.10959   0.11165   0.11956   0.12366   0.12530

 Mulliken charges:
               1
     1  Mg   0.977336
     2  C   -0.025433
     3  C   -0.117656
     4  C   -0.063709
     5  C   -0.058959
     6  N   -0.364192
     7  C   -0.003571
     8  C   -0.106125
     9  C   -0.070122
    10  C    0.051292
    11  C    0.027979
    12  C    0.031571
    13  C    0.063187
    14  C    0.189184
    15  O   -0.284282
    16  O   -0.344343
    17  N   -0.493994
    18  C    0.189795
    19  C   -0.166645
    20  C   -0.109907
    21  C    0.185438
    22  C    0.068639
    23  C    0.060114
    24  O   -0.230485
    25  C   -0.012907
    26  N   -0.337359
    27  C    0.022571
    28  C   -0.082089
    29  C   -0.063417
    30  C    0.001939
    31  C    0.046503
    32  C    0.006307
    33  C   -0.062817
    34  N   -0.420793
    35  C    0.143408
    36  C   -0.134357
    37  C   -0.026749
    38  C    0.143665
    39  C    0.076098
    40  C    0.100769
    41  O   -0.231220
    42  C   -0.037765
    43  C    0.222588
    44  O   -0.253520
    45  O   -0.328423
    46  C    0.134600
    47  C    0.294372
    48  C   -0.165873
    49  C   -0.241867
    50  C    0.052072
    51  C    0.041118
    52  C    0.002059
    53  C   -0.041223
    54  C   -0.183824
    55  C   -0.002130
    56  C    0.029515
    57  C   -0.069301
    58  C    0.049940
    59  C   -0.244245
    60  C    0.018994
    61  C    0.020526
    62  C   -0.039786
    63  C    0.025544
    64  C   -0.231039
    65  C    0.010360
    66  C   -0.013399
    67  H   -0.012083
    68  H    0.026853
    69  H   -0.009152
    70  H    0.056809
    71  H    0.042263
    72  H    0.057884
    73  H    0.034849
    74  H    0.031974
    75  H    0.023209
    76  H    0.033133
    77  H    0.057172
    78  H    0.046839
    79  H    0.051956
    80  H    0.050127
    81  H    0.044741
    82  H    0.067906
    83  H    0.054737
    84  H    0.047635
    85  H    0.026443
    86  H    0.025450
    87  H    0.054710
    88  H    0.027370
    89  H    0.029085
    90  H    0.030259
    91  H    0.023906
    92  H    0.039267
    93  H    0.034710
    94  H    0.039298
    95  H    0.034944
    96  H    0.040258
    97  H    0.059705
    98  H    0.056157
    99  H    0.054751
   100  H    0.070088
   101  H    0.043607
   102  H    0.016858
   103  H    0.060583
   104  H    0.031222
   105  H    0.056558
   106  H    0.038171
   107  H    0.016103
   108  H    0.039355
   109  H    0.018220
   110  H    0.018106
   111  H    0.033906
   112  H    0.023742
   113  H    0.009476
   114  H    0.021381
   115  H    0.032321
   116  H    0.032840
   117  H    0.038287
   118  H    0.012402
   119  H    0.022648
   120  H    0.024137
   121  H    0.025290
   122  H    0.014742
   123  H    0.012016
   124  H    0.028371
   125  H    0.005641
   126  H    0.012732
   127  H    0.044113
   128  H    0.004267
   129  H    0.025751
   130  H    0.020107
   131  H    0.019304
   132  H    0.012965
   133  H    0.017172
   134  H    0.025654
   135  H    0.035003
   136  H    0.036076
   137  H    0.015010
   138  H    0.019427
   139  H    0.026475
   140  H    0.032749
 Sum of Mulliken charges =  -0.00000

 Dipole moment (field-independent basis, Debye):
    X=             -3.6402    Y=              1.9242    Z=              1.4309  Tot=              4.3590
 Quadrupole moment (field-independent basis, Debye-Ang):
   XX=           -371.2391   YY=           -415.8419   ZZ=           -401.5310
   XY=              7.6747   XZ=             15.6667   YZ=              2.9600

 Normal termination of Gaussian 16 at Wed May  4 13:59:17 2022.
