 Gaussian 16, Revision A.03,
 Gaussian 16:  ES64L-G16RevA.03 25-Dec-2016

 --------------------
 #p ZINDO=(nstates=5)
 --------------------

 -----------------------------
 step_1751_chromophore_4 ZINDO
 -----------------------------
 Symbolic Z-matrix:
 Charge =  0 Multiplicity = 1

                         Standard orientation:
 ---------------------------------------------------------------------
 Center     Atomic      Atomic             Coordinates (Angstroms)
 Number     Number       Type             X           Y           Z
 ---------------------------------------------------------------------
      1         12           0        5.594607    0.687211    0.130970
      2          6           0        3.449173   -2.056729    0.208940
      3          6           0        2.932107    2.658259   -0.325386
      4          6           0        7.779722    3.184703   -0.155657
      5          6           0        8.352583   -1.644155    0.267200
      6          7           0        3.462614    0.334198   -0.060207
      7          6           0        2.817034   -0.886335    0.085912
      8          6           0        1.320216   -0.677384    0.127369
      9          6           0        1.095610    0.853214   -0.251439
     10          6           0        2.542669    1.305054   -0.124903
     11          6           0        0.431813    1.188366   -1.642173
     12          6           0        0.838676   -0.939290    1.516604
     13          6           0       -0.493454   -1.616513    1.709261
     14          6           0       -1.432883   -1.582884    0.520374
     15          8           0       -1.806515   -0.509740    0.061596
     16          8           0       -1.802285   -2.780212   -0.003120
     17          7           0        5.395850    2.637028   -0.137829
     18          6           0        4.230832    3.275651   -0.274530
     19          6           0        4.476939    4.720936   -0.433947
     20          6           0        5.866882    4.842021   -0.499246
     21          6           0        6.441628    3.529087   -0.181391
     22          6           0        3.332435    5.720801   -0.529482
     23          6           0        6.724126    6.102343   -0.725807
     24          8           0        7.948627    6.113550   -0.757320
     25          6           0        5.993891    7.350510   -1.121239
     26          7           0        7.817052    0.695483   -0.043697
     27          6           0        8.431549    1.976657   -0.073563
     28          6           0        9.959041    1.683682    0.079916
     29          6           0       10.055348    0.252122    0.507508
     30          6           0        8.688476   -0.274152    0.234895
     31          6           0       10.849981    1.918188   -1.157469
     32          6           0       10.464067   -0.009395    1.924832
     33          6           0       11.498742   -1.160200    2.153873
     34          7           0        5.910755   -1.394920    0.241058
     35          6           0        7.052808   -2.213202    0.337269
     36          6           0        6.701163   -3.659935    0.326919
     37          6           0        5.269358   -3.643935    0.399649
     38          6           0        4.861306   -2.238323    0.268246
     39          6           0        7.602924   -4.804783    0.327375
     40          6           0        4.098244   -4.452588    0.454716
     41          8           0        3.925139   -5.667826    0.626527
     42          6           0        2.869388   -3.488404    0.346275
     43          6           0        2.123107   -3.890983   -0.882012
     44          8           0        2.605244   -3.882903   -1.994196
     45          8           0        0.825555   -4.146626   -0.695386
     46          6           0        0.047709   -4.582992   -1.824865
     47          6           0       -2.854207   -2.949137   -0.977495
     48          6           0       -4.143308   -2.633962   -0.256738
     49          6           0       -5.324051   -3.254370   -0.088724
     50          6           0       -5.670522   -4.620417   -0.634711
     51          6           0       -6.420686   -2.484684    0.591960
     52          6           0       -7.186564   -1.550515   -0.389352
     53          6           0       -7.426192   -0.155203    0.185828
     54          6           0       -8.838000    0.391225   -0.141504
     55          6           0       -9.004171    0.588218   -1.708633
     56          6           0       -9.145495    1.639595    0.737344
     57          6           0      -10.233879    1.250066    1.790626
     58          6           0      -11.003302    2.448001    2.340941
     59          6           0      -12.495722    2.062570    2.601375
     60          6           0      -12.949674    2.598632    3.987274
     61          6           0      -13.456862    2.519674    1.407493
     62          6           0      -13.897794    1.319307    0.551351
     63          6           0      -14.151593    1.636693   -0.925667
     64          6           0      -13.475276    0.632588   -1.880878
     65          6           0      -13.040838    1.317901   -3.220152
     66          6           0      -14.419647   -0.521893   -2.148557
     67          1           0        2.064367    3.274115   -0.570870
     68          1           0        8.547472    3.959483   -0.201319
     69          1           0        9.262339   -2.238774    0.377238
     70          1           0        0.913509   -1.319494   -0.653681
     71          1           0        0.422414    1.309864    0.474814
     72          1           0       -0.626358    1.425489   -1.534944
     73          1           0        0.526523    0.289972   -2.251614
     74          1           0        0.955022    2.044763   -2.067797
     75          1           0        0.784389   -0.035798    2.123820
     76          1           0        1.587429   -1.506700    2.067800
     77          1           0       -0.980439   -1.145220    2.563615
     78          1           0       -0.283715   -2.658531    1.952483
     79          1           0        3.217021    6.222405   -1.490894
     80          1           0        3.694768    6.419077    0.225294
     81          1           0        2.324708    5.350045   -0.341944
     82          1           0        5.457639    7.791769   -0.281568
     83          1           0        5.427980    7.017995   -1.991565
     84          1           0        6.686972    8.066296   -1.564773
     85          1           0       10.322909    2.308201    0.896777
     86          1           0       10.766237   -0.275679   -0.128379
     87          1           0       11.848945    2.159181   -0.791946
     88          1           0       10.380497    2.695745   -1.758900
     89          1           0       10.748128    1.119706   -1.893011
     90          1           0        9.573347   -0.260483    2.500692
     91          1           0       10.771847    0.901349    2.437661
     92          1           0       12.254008   -0.890765    2.892872
     93          1           0       12.047783   -1.521805    1.284073
     94          1           0       10.948252   -2.014849    2.546716
     95          1           0        8.590781   -4.698194    0.774686
     96          1           0        7.930386   -5.021507   -0.689237
     97          1           0        7.142290   -5.766736    0.555403
     98          1           0        2.246187   -3.662980    1.223348
     99          1           0       -0.745385   -5.226783   -1.445136
    100          1           0        0.635495   -5.102544   -2.581340
    101          1           0       -0.435830   -3.708818   -2.262538
    102          1           0       -2.806165   -4.001511   -1.258487
    103          1           0       -2.723164   -2.367454   -1.889973
    104          1           0       -4.254315   -1.582532    0.009373
    105          1           0       -6.558797   -4.708483   -1.260548
    106          1           0       -5.838397   -5.218070    0.262332
    107          1           0       -4.769554   -5.041521   -1.081569
    108          1           0       -5.894815   -1.930482    1.369421
    109          1           0       -7.104937   -3.205222    1.039423
    110          1           0       -8.158649   -2.010206   -0.569755
    111          1           0       -6.669165   -1.390613   -1.335522
    112          1           0       -6.645410    0.536530   -0.131132
    113          1           0       -7.300797   -0.159422    1.269374
    114          1           0       -9.453958   -0.433702    0.218089
    115          1           0       -8.055052    0.578982   -2.245023
    116          1           0       -9.445142    1.544790   -1.989066
    117          1           0       -9.675082   -0.200014   -2.052712
    118          1           0       -9.485543    2.467892    0.116097
    119          1           0       -8.288014    1.984667    1.315172
    120          1           0       -9.639359    0.809307    2.591261
    121          1           0      -11.002437    0.542145    1.481666
    122          1           0      -10.874261    3.297121    1.669965
    123          1           0      -10.559592    2.805355    3.269601
    124          1           0      -12.670354    0.987806    2.649249
    125          1           0      -13.778153    3.287786    3.825707
    126          1           0      -12.198466    3.308226    4.333182
    127          1           0      -13.221094    1.851135    4.732648
    128          1           0      -12.771276    3.154374    0.846052
    129          1           0      -14.289627    3.146632    1.724553
    130          1           0      -14.861422    1.066878    0.993683
    131          1           0      -13.217306    0.472918    0.641528
    132          1           0      -13.823434    2.671039   -1.023389
    133          1           0      -15.226108    1.602049   -1.103869
    134          1           0      -12.582890    0.195294   -1.432002
    135          1           0      -11.971725    1.526241   -3.244261
    136          1           0      -13.606133    2.226877   -3.427874
    137          1           0      -13.309286    0.535668   -3.931674
    138          1           0      -13.785164   -1.407173   -2.191406
    139          1           0      -14.900159   -0.529320   -3.127597
    140          1           0      -15.210594   -0.714998   -1.424923
 ---------------------------------------------------------------------

 SCF Done:  E(RZINDO/S) =  -474.629280903     A.U. after   19 cycles

 Excitation energies and oscillator strengths:

 Excited State   1:      Singlet-A      1.2228 eV 1013.97 nm  f=0.6300  <S**2>=0.000
     175 ->178        -0.18568
     176 ->177         0.66327
 This state for optimization and/or second-order correction.
 Total Energy, E(CIS/TDA) =  -474.584345135
 Copying the excited state density for this state as the 1-particle RhoCI density.

 Excited State   2:      Singlet-A      1.9782 eV  626.75 nm  f=0.0132  <S**2>=0.000
     175 ->177         0.51124
     176 ->178         0.46598

 Excited State   3:      Singlet-A      2.9272 eV  423.56 nm  f=0.0407  <S**2>=0.000
     175 ->177        -0.11381
     176 ->178         0.15204
     176 ->179         0.64943

 Excited State   4:      Singlet-A      2.9945 eV  414.04 nm  f=0.4882  <S**2>=0.000
     168 ->179         0.21663
     168 ->186         0.12658
     169 ->177         0.20895
     169 ->178        -0.12479
     169 ->179         0.14067
     169 ->180         0.29133
     169 ->186         0.12893
     175 ->177        -0.26704
     176 ->178         0.30104
     176 ->179        -0.15542

 Excited State   5:      Singlet-A      3.0004 eV  413.23 nm  f=0.0455  <S**2>=0.000
     168 ->177         0.32688
     168 ->178        -0.12351
     168 ->179        -0.32869
     168 ->180         0.25748
     168 ->186        -0.11210
     168 ->187         0.13630
     169 ->177        -0.11807
     169 ->179         0.26237
     169 ->186         0.12393

 The electronic state is 1-A.
 Alpha  occ. eigenvalues --   -1.83862  -1.81820  -1.80957  -1.75046  -1.74135
 Alpha  occ. eigenvalues --   -1.70884  -1.65178  -1.61215  -1.58847  -1.58661
 Alpha  occ. eigenvalues --   -1.56109  -1.53583  -1.50190  -1.47243  -1.47071
 Alpha  occ. eigenvalues --   -1.43748  -1.42234  -1.39652  -1.38870  -1.38743
 Alpha  occ. eigenvalues --   -1.35865  -1.33964  -1.32990  -1.32361  -1.28733
 Alpha  occ. eigenvalues --   -1.26997  -1.24345  -1.22022  -1.20277  -1.18802
 Alpha  occ. eigenvalues --   -1.17836  -1.15680  -1.15024  -1.14032  -1.13230
 Alpha  occ. eigenvalues --   -1.12837  -1.11774  -1.10232  -1.05321  -1.05036
 Alpha  occ. eigenvalues --   -1.03326  -1.01837  -0.98251  -0.98091  -0.97251
 Alpha  occ. eigenvalues --   -0.97143  -0.95244  -0.93961  -0.92367  -0.92281
 Alpha  occ. eigenvalues --   -0.90888  -0.90625  -0.89265  -0.88325  -0.86760
 Alpha  occ. eigenvalues --   -0.86119  -0.83872  -0.83313  -0.82872  -0.80894
 Alpha  occ. eigenvalues --   -0.80048  -0.78765  -0.77533  -0.77053  -0.76582
 Alpha  occ. eigenvalues --   -0.75893  -0.75109  -0.74729  -0.74493  -0.73901
 Alpha  occ. eigenvalues --   -0.73177  -0.72779  -0.72605  -0.71065  -0.70790
 Alpha  occ. eigenvalues --   -0.69916  -0.69275  -0.68507  -0.68304  -0.67963
 Alpha  occ. eigenvalues --   -0.67252  -0.67098  -0.66933  -0.66535  -0.65833
 Alpha  occ. eigenvalues --   -0.65617  -0.65237  -0.63788  -0.63548  -0.62810
 Alpha  occ. eigenvalues --   -0.62500  -0.62179  -0.61815  -0.61724  -0.61472
 Alpha  occ. eigenvalues --   -0.61119  -0.60873  -0.60560  -0.60461  -0.59918
 Alpha  occ. eigenvalues --   -0.59714  -0.59212  -0.58808  -0.58337  -0.58244
 Alpha  occ. eigenvalues --   -0.57770  -0.57083  -0.56802  -0.56674  -0.56442
 Alpha  occ. eigenvalues --   -0.55957  -0.55570  -0.55324  -0.54772  -0.54667
 Alpha  occ. eigenvalues --   -0.54574  -0.54248  -0.53153  -0.52614  -0.52356
 Alpha  occ. eigenvalues --   -0.52134  -0.51885  -0.51465  -0.51357  -0.51064
 Alpha  occ. eigenvalues --   -0.50849  -0.50628  -0.50206  -0.49853  -0.49729
 Alpha  occ. eigenvalues --   -0.49387  -0.49164  -0.49028  -0.48917  -0.48605
 Alpha  occ. eigenvalues --   -0.48407  -0.48334  -0.48173  -0.47771  -0.47269
 Alpha  occ. eigenvalues --   -0.46994  -0.46827  -0.46663  -0.46462  -0.46071
 Alpha  occ. eigenvalues --   -0.45796  -0.45756  -0.45595  -0.45178  -0.44934
 Alpha  occ. eigenvalues --   -0.44884  -0.44617  -0.44285  -0.44192  -0.44105
 Alpha  occ. eigenvalues --   -0.43586  -0.43000  -0.42721  -0.42112  -0.41907
 Alpha  occ. eigenvalues --   -0.41804  -0.41067  -0.41006  -0.38549  -0.38486
 Alpha  occ. eigenvalues --   -0.37616  -0.36937  -0.34969  -0.34824  -0.34511
 Alpha  occ. eigenvalues --   -0.33190  -0.32608  -0.32373  -0.31754  -0.26739
 Alpha  occ. eigenvalues --   -0.21097
 Alpha virt. eigenvalues --   -0.08107  -0.01726  -0.00327   0.01594   0.01940
 Alpha virt. eigenvalues --    0.03043   0.03146   0.03344   0.04842   0.05353
 Alpha virt. eigenvalues --    0.06702   0.07178   0.07754   0.07938   0.08463

 Mulliken charges:
               1
     1  Mg   0.427586
     2  C   -0.052617
     3  C   -0.110760
     4  C   -0.029957
     5  C   -0.063813
     6  N   -0.297338
     7  C    0.141674
     8  C    0.013755
     9  C   -0.000480
    10  C    0.141353
    11  C   -0.049785
    12  C   -0.007536
    13  C    0.012413
    14  C    0.480863
    15  O   -0.540290
    16  O   -0.268511
    17  N   -0.296101
    18  C    0.115981
    19  C   -0.004596
    20  C   -0.041547
    21  C    0.109485
    22  C   -0.045799
    23  C    0.324756
    24  O   -0.522063
    25  C   -0.033428
    26  N   -0.276008
    27  C    0.086997
    28  C    0.010243
    29  C    0.018543
    30  C    0.145255
    31  C   -0.054338
    32  C   -0.024235
    33  C   -0.059612
    34  N   -0.319533
    35  C    0.085114
    36  C    0.063787
    37  C   -0.067428
    38  C    0.133900
    39  C   -0.033282
    40  C    0.338397
    41  O   -0.540489
    42  C    0.051279
    43  C    0.494920
    44  O   -0.536169
    45  O   -0.265874
    46  C    0.080897
    47  C    0.121140
    48  C   -0.100227
    49  C   -0.001498
    50  C   -0.046443
    51  C   -0.020344
    52  C   -0.027972
    53  C   -0.034202
    54  C   -0.018231
    55  C   -0.058670
    56  C   -0.035207
    57  C   -0.042751
    58  C   -0.034131
    59  C   -0.021629
    60  C   -0.067993
    61  C   -0.042379
    62  C   -0.039174
    63  C   -0.034789
    64  C   -0.006083
    65  C   -0.064808
    66  C   -0.054661
    67  H    0.021227
    68  H    0.043535
    69  H    0.025295
    70  H    0.043189
    71  H    0.035730
    72  H    0.030840
    73  H    0.025733
    74  H    0.025323
    75  H    0.022018
    76  H    0.014918
    77  H    0.044672
    78  H    0.026802
    79  H    0.029440
    80  H    0.029647
    81  H    0.030895
    82  H    0.046748
    83  H    0.037608
    84  H    0.031198
    85  H    0.023091
    86  H    0.024812
    87  H    0.032128
    88  H    0.019422
    89  H    0.024999
    90  H    0.016533
    91  H    0.019516
    92  H    0.018356
    93  H    0.022576
    94  H    0.016580
    95  H    0.030953
    96  H    0.031341
    97  H    0.039065
    98  H    0.049022
    99  H    0.029727
   100  H    0.055003
   101  H    0.035562
   102  H    0.032280
   103  H    0.054359
   104  H    0.028128
   105  H    0.038467
   106  H    0.021214
   107  H    0.019313
   108  H    0.028252
   109  H    0.018378
   110  H    0.018092
   111  H    0.026496
   112  H    0.017480
   113  H    0.009688
   114  H    0.022064
   115  H    0.023615
   116  H    0.017588
   117  H    0.018768
   118  H    0.019406
   119  H    0.023326
   120  H    0.014981
   121  H    0.028512
   122  H    0.021880
   123  H    0.014881
   124  H    0.021394
   125  H    0.011118
   126  H    0.016874
   127  H    0.027728
   128  H    0.013831
   129  H    0.027820
   130  H    0.012055
   131  H    0.026495
   132  H    0.017586
   133  H    0.018514
   134  H    0.022551
   135  H    0.021398
   136  H    0.023998
   137  H    0.019275
   138  H    0.006035
   139  H    0.017905
   140  H    0.019195
 Sum of Mulliken charges =  -0.00000

 Dipole moment (field-independent basis, Debye):
    X=             -3.8706    Y=              1.8704    Z=              3.0000  Tot=              5.2421
 N-N= 4.342556765879D+03 E-N= 0.000000000000D+00  KE=-9.360299807604D+03
 Leave Link  601 at Wed May  4 14:11:27 2022, MaxMem=  6710886400 cpu:               0.8 elap:               0.0
 (Enter /sw/apps/gaussian-16.0/g16/l9999.exe)
 1\1\GINC-BP1-COMPUTE069\SP\RZINDO CIS\STO-3G\C55H74Mg1N4O6\OF15641\04-
 May-2022\0\\#p ZINDO=(nstates=5)\\step_1751_chromophore_4 ZINDO\\0,1\M
 g,0,9.223,4.17,28.022\C,0,10.73,2.504,30.685\C,0,7.739,6.196,30.23\C,0
 ,7.673,5.516,25.399\C,0,10.632,1.659,25.838\N,0,9.219,4.309,30.187\C,0
 ,9.988,3.55,31.059\C,0,9.888,4.112,32.459\C,0,8.743,5.217,32.391\C,0,8
 .629,5.294,30.876\C,0,7.38,4.926,33.129\C,0,11.193,4.745,32.815\C,0,11
 .699,4.623,34.229\C,0,10.664,4.26,35.275\O,0,9.695,4.987,35.46\O,0,10.

 Normal termination of Gaussian 16 at Wed May  4 14:11:27 2022.
