 Gaussian 16, Revision A.03,
 Gaussian 16:  ES64L-G16RevA.03 25-Dec-2016

 ------------------------------
 #p blyp/Def2SVP td=(nstates=5)
 ------------------------------

 ---------------------------------------------------
 step_1301_chromophore_20 TDDFT with blyp functional
 ---------------------------------------------------
 Symbolic Z-matrix:
 Charge =  0 Multiplicity = 1

                         Standard orientation:
 ---------------------------------------------------------------------
 Center     Atomic      Atomic             Coordinates (Angstroms)
 Number     Number       Type             X           Y           Z
 ---------------------------------------------------------------------
      1         12           0        4.304346    1.329446   -0.764960
      2          6           0        4.130276   -2.136238   -1.328017
      3          6           0        1.448019    1.728937   -2.545961
      4          6           0        4.147647    4.545691    0.469918
      5          6           0        7.030816    0.642946    1.420940
      6          7           0        2.939724   -0.076994   -1.644898
      7          6           0        3.018448   -1.457676   -1.725125
      8          6           0        1.758943   -1.985645   -2.456648
      9          6           0        1.313371   -0.776490   -3.253555
     10          6           0        1.919240    0.387322   -2.449561
     11          6           0        1.748937   -0.771546   -4.722811
     12          6           0        0.749492   -2.575376   -1.412953
     13          6           0        0.048535   -3.901683   -1.851138
     14          6           0       -0.513980   -4.710124   -0.701068
     15          8           0        0.056657   -5.660310   -0.147083
     16          8           0       -1.765669   -4.258061   -0.447064
     17          7           0        2.931908    2.981739   -0.999638
     18          6           0        1.872914    2.904114   -1.857401
     19          6           0        1.202955    4.161095   -1.753328
     20          6           0        1.907087    4.985801   -0.805467
     21          6           0        3.074382    4.206842   -0.446997
     22          6           0        0.013008    4.509162   -2.651695
     23          6           0        1.507698    6.413373   -0.379767
     24          8           0        0.636479    7.030488   -1.027828
     25          6           0        2.207936    7.192214    0.678394
     26          7           0        5.412015    2.375492    0.751446
     27          6           0        5.257452    3.763180    0.839180
     28          6           0        6.280408    4.367340    1.850641
     29          6           0        7.192653    3.148134    2.061089
     30          6           0        6.526317    1.940901    1.335091
     31          6           0        6.950041    5.626198    1.319998
     32          6           0        7.627008    2.781429    3.543740
     33          6           0        9.024062    2.259105    3.988231
     34          7           0        5.473128   -0.314489   -0.178424
     35          6           0        6.543803   -0.479205    0.720731
     36          6           0        6.965258   -1.858330    0.748064
     37          6           0        6.062169   -2.465320   -0.088440
     38          6           0        5.107163   -1.547771   -0.572158
     39          6           0        8.186542   -2.366192    1.319290
     40          6           0        5.805159   -3.720198   -0.711912
     41          8           0        6.337146   -4.762100   -0.728666
     42          6           0        4.553982   -3.545215   -1.544466
     43          6           0        3.536652   -4.554821   -1.142010
     44          8           0        3.128857   -4.815532    0.016891
     45          8           0        3.259906   -5.401526   -2.236041
     46          6           0        2.477259   -6.593058   -1.951246
     47          6           0       -2.444609   -4.877077    0.675741
     48          6           0       -3.577897   -4.063924    1.201033
     49          6           0       -4.476514   -4.311220    2.180697
     50          6           0       -4.431338   -5.482279    3.169353
     51          6           0       -5.553512   -3.268322    2.538731
     52          6           0       -4.959955   -1.904745    2.980074
     53          6           0       -5.555990   -1.326007    4.205530
     54          6           0       -6.693014   -0.257503    4.075659
     55          6           0       -7.283194    0.022068    5.489877
     56          6           0       -7.763136   -0.616760    3.085919
     57          6           0       -8.410079    0.699264    2.557490
     58          6           0       -7.881691    1.225353    1.162590
     59          6           0       -8.978903    1.170794    0.013643
     60          6           0       -8.951480   -0.259201   -0.629141
     61          6           0       -8.718678    2.260317   -0.993322
     62          6           0       -9.754879    3.401770   -0.866745
     63          6           0      -10.796079    3.381637   -2.022799
     64          6           0      -11.611029    2.074749   -2.212838
     65          6           0      -11.552732    1.540910   -3.716712
     66          6           0      -13.031243    2.184859   -1.589434
     67          1           0        0.540462    1.811317   -3.148383
     68          1           0        4.123958    5.559626    0.874418
     69          1           0        8.013341    0.459684    1.861694
     70          1           0        2.017014   -2.824848   -3.102372
     71          1           0        0.281765   -0.426862   -3.292261
     72          1           0        0.860739   -0.592741   -5.328625
     73          1           0        2.074004   -1.786388   -4.954330
     74          1           0        2.565260   -0.050633   -4.762746
     75          1           0       -0.032773   -1.822629   -1.500754
     76          1           0        1.190110   -2.587212   -0.415753
     77          1           0        0.789645   -4.511083   -2.366702
     78          1           0       -0.769104   -3.736307   -2.553362
     79          1           0       -0.657282    4.988301   -1.937851
     80          1           0       -0.469671    3.657496   -3.129778
     81          1           0        0.297657    5.241690   -3.406960
     82          1           0        2.285626    6.538342    1.547072
     83          1           0        1.543348    8.038750    0.856401
     84          1           0        3.210166    7.486854    0.368262
     85          1           0        5.871916    4.577591    2.838825
     86          1           0        8.144574    3.186833    1.530736
     87          1           0        6.381360    5.877407    0.424939
     88          1           0        7.994934    5.454888    1.059027
     89          1           0        6.965351    6.366874    2.120142
     90          1           0        6.792840    2.332868    4.083135
     91          1           0        7.511651    3.721634    4.081525
     92          1           0        9.628898    2.999711    4.512841
     93          1           0        9.399007    1.846989    3.051886
     94          1           0        8.960436    1.389440    4.641846
     95          1           0        9.036813   -2.208078    0.655901
     96          1           0        8.159794   -3.384088    1.710142
     97          1           0        8.432394   -1.824049    2.231882
     98          1           0        4.759191   -3.666055   -2.608069
     99          1           0        1.880012   -6.729714   -2.853627
    100          1           0        1.875159   -6.584644   -1.043243
    101          1           0        3.177750   -7.428221   -1.940066
    102          1           0       -1.857559   -5.135369    1.557443
    103          1           0       -2.922794   -5.775547    0.286078
    104          1           0       -3.726336   -3.115922    0.683728
    105          1           0       -5.271258   -6.152233    2.986083
    106          1           0       -4.387772   -4.920802    4.102100
    107          1           0       -3.536313   -6.100838    3.102029
    108          1           0       -6.219869   -3.785029    3.230119
    109          1           0       -6.081195   -3.128777    1.594853
    110          1           0       -4.954124   -1.302788    2.071561
    111          1           0       -3.876348   -1.933915    3.097440
    112          1           0       -4.672118   -1.023653    4.767086
    113          1           0       -5.997656   -2.187255    4.705674
    114          1           0       -6.117112    0.622672    3.788867
    115          1           0       -7.067457    1.070555    5.693463
    116          1           0       -6.956793   -0.585397    6.334819
    117          1           0       -8.346420   -0.208470    5.431558
    118          1           0       -8.552330   -1.148273    3.617050
    119          1           0       -7.419684   -1.321888    2.329603
    120          1           0       -8.103942    1.487643    3.244919
    121          1           0       -9.458949    0.480084    2.356795
    122          1           0       -7.045061    0.624083    0.804775
    123          1           0       -7.498248    2.242898    1.246747
    124          1           0       -9.991792    1.335787    0.380297
    125          1           0       -8.509252   -0.218549   -1.624306
    126          1           0       -9.926698   -0.745520   -0.607866
    127          1           0       -8.258062   -0.884943   -0.068296
    128          1           0       -8.815233    1.945324   -2.031783
    129          1           0       -7.695473    2.592533   -0.818380
    130          1           0       -9.250822    4.363456   -0.775311
    131          1           0      -10.456034    3.394408   -0.032099
    132          1           0      -10.222370    3.707603   -2.889227
    133          1           0      -11.498961    4.214454   -1.974559
    134          1           0      -11.105392    1.205205   -1.793997
    135          1           0      -11.150233    0.528134   -3.714068
    136          1           0      -10.920740    2.166256   -4.347285
    137          1           0      -12.593221    1.632085   -4.027016
    138          1           0      -13.826556    2.378153   -2.309298
    139          1           0      -13.112524    2.942050   -0.810347
    140          1           0      -13.144420    1.310325   -0.950173
 ---------------------------------------------------------------------

 SCF Done:  E(RB-LYP) =  -3007.32365871     A.U. after   22 cycles

 Excitation energies and oscillator strengths:

 Excited State   1:      Singlet-A      1.7020 eV  728.44 nm  f=0.0013  <S**2>=0.000
     244 -> 247        0.70393
 This state for optimization and/or second-order correction.
 Total Energy, E(TD-HF/TD-DFT) =  -3007.26110986
 Copying the excited state density for this state as the 1-particle RhoCI density.

 Excited State   2:      Singlet-A      1.8091 eV  685.32 nm  f=0.2330  <S**2>=0.000
     243 -> 247       -0.22291
     245 -> 247        0.13653
     245 -> 248        0.16989
     246 -> 247        0.64189
     246 <- 247       -0.14230

 Excited State   3:      Singlet-A      1.8441 eV  672.34 nm  f=0.0766  <S**2>=0.000
     243 -> 247        0.54240
     245 -> 247       -0.36107
     246 -> 247        0.25606

 Excited State   4:      Singlet-A      1.9835 eV  625.09 nm  f=0.0006  <S**2>=0.000
     242 -> 247        0.70556

 Excited State   5:      Singlet-A      2.0653 eV  600.31 nm  f=0.0591  <S**2>=0.000
     240 -> 247        0.11852
     243 -> 247        0.37784
     245 -> 247        0.51476
     246 -> 248       -0.25137

 The electronic state is 1-A.
 Alpha  occ. eigenvalues --  -46.27499 -18.83199 -18.81254 -18.76841 -18.76228
 Alpha  occ. eigenvalues --  -18.75439 -18.75187 -14.03807 -14.03464 -14.00996
 Alpha  occ. eigenvalues --  -14.00917 -10.04299 -10.03499  -9.99827  -9.98686
 Alpha  occ. eigenvalues --   -9.97961  -9.97115  -9.97027  -9.96904  -9.96742
 Alpha  occ. eigenvalues --   -9.96141  -9.95775  -9.95507  -9.95466  -9.94429
 Alpha  occ. eigenvalues --   -9.94353  -9.94015  -9.93985  -9.93871  -9.93860
 Alpha  occ. eigenvalues --   -9.93743  -9.93533  -9.93454  -9.93402  -9.93363
 Alpha  occ. eigenvalues --   -9.93311  -9.93223  -9.93064  -9.92795  -9.92779
 Alpha  occ. eigenvalues --   -9.92726  -9.92607  -9.92522  -9.92418  -9.92412
 Alpha  occ. eigenvalues --   -9.92342  -9.92210  -9.92033  -9.91831  -9.91750
 Alpha  occ. eigenvalues --   -9.91558  -9.91500  -9.91409  -9.91218  -9.91156
 Alpha  occ. eigenvalues --   -9.91075  -9.91056  -9.90953  -9.90835  -9.90770
 Alpha  occ. eigenvalues --   -9.90745  -9.90715  -9.90649  -9.90578  -9.90572
 Alpha  occ. eigenvalues --   -9.90560  -2.92046  -1.72468  -1.71909  -1.71772
 Alpha  occ. eigenvalues --   -0.98629  -0.95642  -0.94134  -0.90090  -0.89780
 Alpha  occ. eigenvalues --   -0.87726  -0.86843  -0.85964  -0.85868  -0.85124
 Alpha  occ. eigenvalues --   -0.76985  -0.73815  -0.73251  -0.72796  -0.72415
 Alpha  occ. eigenvalues --   -0.72140  -0.71995  -0.71418  -0.70983  -0.70265
 Alpha  occ. eigenvalues --   -0.69807  -0.68759  -0.68393  -0.67832  -0.67550
 Alpha  occ. eigenvalues --   -0.66386  -0.66048  -0.65572  -0.65274  -0.65018
 Alpha  occ. eigenvalues --   -0.63818  -0.63228  -0.62323  -0.61592  -0.60579
 Alpha  occ. eigenvalues --   -0.60453  -0.60175  -0.60016  -0.59511  -0.58799
 Alpha  occ. eigenvalues --   -0.58593  -0.57840  -0.57180  -0.55538  -0.54878
 Alpha  occ. eigenvalues --   -0.54093  -0.53881  -0.52632  -0.52515  -0.51780
 Alpha  occ. eigenvalues --   -0.51672  -0.51190  -0.50940  -0.50639  -0.50601
 Alpha  occ. eigenvalues --   -0.49648  -0.49066  -0.48315  -0.47836  -0.46797
 Alpha  occ. eigenvalues --   -0.46543  -0.46149  -0.45524  -0.45276  -0.44795
 Alpha  occ. eigenvalues --   -0.44280  -0.43346  -0.43251  -0.42845  -0.42661
 Alpha  occ. eigenvalues --   -0.42444  -0.42006  -0.41696  -0.41321  -0.41124
 Alpha  occ. eigenvalues --   -0.41001  -0.40810  -0.40424  -0.40311  -0.39964
 Alpha  occ. eigenvalues --   -0.39818  -0.39520  -0.39425  -0.39401  -0.39185
 Alpha  occ. eigenvalues --   -0.39088  -0.38842  -0.38785  -0.38569  -0.38296
 Alpha  occ. eigenvalues --   -0.38255  -0.37859  -0.37818  -0.37499  -0.37450
 Alpha  occ. eigenvalues --   -0.37182  -0.37050  -0.36852  -0.36581  -0.36492
 Alpha  occ. eigenvalues --   -0.36485  -0.36281  -0.36114  -0.35983  -0.35773
 Alpha  occ. eigenvalues --   -0.35599  -0.35489  -0.35186  -0.34943  -0.34754
 Alpha  occ. eigenvalues --   -0.34704  -0.34608  -0.34286  -0.34156  -0.34080
 Alpha  occ. eigenvalues --   -0.33868  -0.33700  -0.33390  -0.33323  -0.33241
 Alpha  occ. eigenvalues --   -0.33144  -0.32778  -0.32618  -0.32537  -0.32345
 Alpha  occ. eigenvalues --   -0.32045  -0.31767  -0.31729  -0.31662  -0.31403
 Alpha  occ. eigenvalues --   -0.31251  -0.30873  -0.30710  -0.30612  -0.30566
 Alpha  occ. eigenvalues --   -0.30462  -0.30226  -0.29974  -0.29737  -0.29663
 Alpha  occ. eigenvalues --   -0.29423  -0.29325  -0.29206  -0.28986  -0.28788
 Alpha  occ. eigenvalues --   -0.28681  -0.28610  -0.28149  -0.27787  -0.27708
 Alpha  occ. eigenvalues --   -0.27265  -0.27166  -0.26776  -0.26603  -0.26453
 Alpha  occ. eigenvalues --   -0.26257  -0.25809  -0.25700  -0.25346  -0.25101
 Alpha  occ. eigenvalues --   -0.24900  -0.24193  -0.24107  -0.23716  -0.23666
 Alpha  occ. eigenvalues --   -0.23045  -0.22623  -0.21678  -0.20981  -0.20864
 Alpha  occ. eigenvalues --   -0.20085  -0.19320  -0.18837  -0.18194  -0.17824
 Alpha  occ. eigenvalues --   -0.16266
 Alpha virt. eigenvalues --   -0.12030  -0.07417  -0.05990  -0.04525  -0.03484
 Alpha virt. eigenvalues --   -0.03283  -0.02929  -0.01839  -0.01193  -0.00676
 Alpha virt. eigenvalues --    0.01330   0.01588   0.02324   0.02453   0.02796

 Mulliken charges:
               1
     1  Mg   0.672235
     2  C   -0.033812
     3  C   -0.039612
     4  C   -0.041048
     5  C   -0.077190
     6  N   -0.240595
     7  C   -0.096321
     8  C    0.015055
     9  C   -0.025953
    10  C   -0.007506
    11  C    0.163757
    12  C    0.133216
    13  C    0.136768
    14  C    0.096284
    15  O   -0.192493
    16  O   -0.257021
    17  N   -0.267433
    18  C    0.145382
    19  C   -0.156593
    20  C    0.036981
    21  C    0.085253
    22  C    0.180135
    23  C   -0.089503
    24  O   -0.198666
    25  C    0.147963
    26  N   -0.225075
    27  C    0.043131
    28  C   -0.002021
    29  C    0.038158
    30  C    0.055552
    31  C    0.145722
    32  C    0.057809
    33  C    0.085596
    34  N   -0.264161
    35  C    0.075467
    36  C   -0.155439
    37  C    0.095987
    38  C    0.127921
    39  C    0.167365
    40  C   -0.091727
    41  O   -0.064273
    42  C    0.167745
    43  C    0.106663
    44  O   -0.199169
    45  O   -0.300737
    46  C    0.200733
    47  C    0.336778
    48  C   -0.115658
    49  C   -0.204656
    50  C    0.135519
    51  C    0.115679
    52  C    0.062662
    53  C    0.123117
    54  C   -0.087384
    55  C    0.121043
    56  C    0.117755
    57  C    0.107234
    58  C    0.082353
    59  C   -0.121700
    60  C    0.115819
    61  C    0.151880
    62  C    0.059353
    63  C    0.080411
    64  C   -0.116816
    65  C    0.088801
    66  C    0.119950
    67  H   -0.062589
    68  H   -0.069302
    69  H   -0.062615
    70  H   -0.029158
    71  H   -0.034439
    72  H   -0.003398
    73  H   -0.014707
    74  H    0.004055
    75  H   -0.023287
    76  H    0.017421
    77  H   -0.017908
    78  H   -0.010994
    79  H    0.007669
    80  H   -0.022993
    81  H    0.011469
    82  H    0.002244
    83  H    0.000896
    84  H    0.031015
    85  H   -0.015420
    86  H   -0.037002
    87  H   -0.002006
    88  H   -0.017577
    89  H   -0.009052
    90  H   -0.033518
    91  H   -0.047457
    92  H    0.006249
    93  H   -0.000943
    94  H   -0.008731
    95  H    0.012745
    96  H    0.005106
    97  H   -0.023821
    98  H   -0.011187
    99  H   -0.002464
   100  H    0.059918
   101  H    0.002348
   102  H    0.021111
   103  H   -0.001594
   104  H   -0.043571
   105  H    0.009780
   106  H    0.010994
   107  H   -0.020811
   108  H   -0.031895
   109  H   -0.008658
   110  H   -0.038612
   111  H   -0.034580
   112  H   -0.037466
   113  H   -0.047348
   114  H   -0.036012
   115  H   -0.008665
   116  H   -0.016435
   117  H   -0.024968
   118  H   -0.044606
   119  H   -0.027517
   120  H   -0.019009
   121  H   -0.028899
   122  H   -0.035968
   123  H   -0.034779
   124  H   -0.025602
   125  H   -0.022307
   126  H   -0.003004
   127  H   -0.032038
   128  H   -0.036956
   129  H   -0.036252
   130  H   -0.037952
   131  H   -0.031512
   132  H   -0.044088
   133  H   -0.045500
   134  H   -0.025966
   135  H   -0.007134
   136  H   -0.013660
   137  H   -0.018723
   138  H   -0.000119
   139  H   -0.023995
   140  H   -0.022925
 Sum of Mulliken charges =  -0.00000

 Dipole moment (field-independent basis, Debye):
    X=              0.4127    Y=              2.0584    Z=              0.1886  Tot=              2.1078
 Quadrupole moment (field-independent basis, Debye-Ang):
   XX=           -376.0681   YY=           -444.5073   ZZ=           -389.4092
   XY=             49.1983   XZ=              3.9241   YZ=             17.7135

 Normal termination of Gaussian 16 at Wed Apr 27 21:53:10 2022.
