 Gaussian 16, Revision A.03,
 Gaussian 16:  ES64L-G16RevA.03 25-Dec-2016

 -----------------------------------
 #p cam-b3lyp/Def2SVP td=(nstates=5)
 -----------------------------------

 --------------------------------------------------------
 step_1301_chromophore_20 TDDFT with cam-b3lyp functional
 --------------------------------------------------------
 Symbolic Z-matrix:
 Charge =  0 Multiplicity = 1

                         Standard orientation:
 ---------------------------------------------------------------------
 Center     Atomic      Atomic             Coordinates (Angstroms)
 Number     Number       Type             X           Y           Z
 ---------------------------------------------------------------------
      1         12           0        4.304346    1.329446   -0.764960
      2          6           0        4.130276   -2.136238   -1.328017
      3          6           0        1.448019    1.728937   -2.545961
      4          6           0        4.147647    4.545691    0.469918
      5          6           0        7.030816    0.642946    1.420940
      6          7           0        2.939724   -0.076994   -1.644898
      7          6           0        3.018448   -1.457676   -1.725125
      8          6           0        1.758943   -1.985645   -2.456648
      9          6           0        1.313371   -0.776490   -3.253555
     10          6           0        1.919240    0.387322   -2.449561
     11          6           0        1.748937   -0.771546   -4.722811
     12          6           0        0.749492   -2.575376   -1.412953
     13          6           0        0.048535   -3.901683   -1.851138
     14          6           0       -0.513980   -4.710124   -0.701068
     15          8           0        0.056657   -5.660310   -0.147083
     16          8           0       -1.765669   -4.258061   -0.447064
     17          7           0        2.931908    2.981739   -0.999638
     18          6           0        1.872914    2.904114   -1.857401
     19          6           0        1.202955    4.161095   -1.753328
     20          6           0        1.907087    4.985801   -0.805467
     21          6           0        3.074382    4.206842   -0.446997
     22          6           0        0.013008    4.509162   -2.651695
     23          6           0        1.507698    6.413373   -0.379767
     24          8           0        0.636479    7.030488   -1.027828
     25          6           0        2.207936    7.192214    0.678394
     26          7           0        5.412015    2.375492    0.751446
     27          6           0        5.257452    3.763180    0.839180
     28          6           0        6.280408    4.367340    1.850641
     29          6           0        7.192653    3.148134    2.061089
     30          6           0        6.526317    1.940901    1.335091
     31          6           0        6.950041    5.626198    1.319998
     32          6           0        7.627008    2.781429    3.543740
     33          6           0        9.024062    2.259105    3.988231
     34          7           0        5.473128   -0.314489   -0.178424
     35          6           0        6.543803   -0.479205    0.720731
     36          6           0        6.965258   -1.858330    0.748064
     37          6           0        6.062169   -2.465320   -0.088440
     38          6           0        5.107163   -1.547771   -0.572158
     39          6           0        8.186542   -2.366192    1.319290
     40          6           0        5.805159   -3.720198   -0.711912
     41          8           0        6.337146   -4.762100   -0.728666
     42          6           0        4.553982   -3.545215   -1.544466
     43          6           0        3.536652   -4.554821   -1.142010
     44          8           0        3.128857   -4.815532    0.016891
     45          8           0        3.259906   -5.401526   -2.236041
     46          6           0        2.477259   -6.593058   -1.951246
     47          6           0       -2.444609   -4.877077    0.675741
     48          6           0       -3.577897   -4.063924    1.201033
     49          6           0       -4.476514   -4.311220    2.180697
     50          6           0       -4.431338   -5.482279    3.169353
     51          6           0       -5.553512   -3.268322    2.538731
     52          6           0       -4.959955   -1.904745    2.980074
     53          6           0       -5.555990   -1.326007    4.205530
     54          6           0       -6.693014   -0.257503    4.075659
     55          6           0       -7.283194    0.022068    5.489877
     56          6           0       -7.763136   -0.616760    3.085919
     57          6           0       -8.410079    0.699264    2.557490
     58          6           0       -7.881691    1.225353    1.162590
     59          6           0       -8.978903    1.170794    0.013643
     60          6           0       -8.951480   -0.259201   -0.629141
     61          6           0       -8.718678    2.260317   -0.993322
     62          6           0       -9.754879    3.401770   -0.866745
     63          6           0      -10.796079    3.381637   -2.022799
     64          6           0      -11.611029    2.074749   -2.212838
     65          6           0      -11.552732    1.540910   -3.716712
     66          6           0      -13.031243    2.184859   -1.589434
     67          1           0        0.540462    1.811317   -3.148383
     68          1           0        4.123958    5.559626    0.874418
     69          1           0        8.013341    0.459684    1.861694
     70          1           0        2.017014   -2.824848   -3.102372
     71          1           0        0.281765   -0.426862   -3.292261
     72          1           0        0.860739   -0.592741   -5.328625
     73          1           0        2.074004   -1.786388   -4.954330
     74          1           0        2.565260   -0.050633   -4.762746
     75          1           0       -0.032773   -1.822629   -1.500754
     76          1           0        1.190110   -2.587212   -0.415753
     77          1           0        0.789645   -4.511083   -2.366702
     78          1           0       -0.769104   -3.736307   -2.553362
     79          1           0       -0.657282    4.988301   -1.937851
     80          1           0       -0.469671    3.657496   -3.129778
     81          1           0        0.297657    5.241690   -3.406960
     82          1           0        2.285626    6.538342    1.547072
     83          1           0        1.543348    8.038750    0.856401
     84          1           0        3.210166    7.486854    0.368262
     85          1           0        5.871916    4.577591    2.838825
     86          1           0        8.144574    3.186833    1.530736
     87          1           0        6.381360    5.877407    0.424939
     88          1           0        7.994934    5.454888    1.059027
     89          1           0        6.965351    6.366874    2.120142
     90          1           0        6.792840    2.332868    4.083135
     91          1           0        7.511651    3.721634    4.081525
     92          1           0        9.628898    2.999711    4.512841
     93          1           0        9.399007    1.846989    3.051886
     94          1           0        8.960436    1.389440    4.641846
     95          1           0        9.036813   -2.208078    0.655901
     96          1           0        8.159794   -3.384088    1.710142
     97          1           0        8.432394   -1.824049    2.231882
     98          1           0        4.759191   -3.666055   -2.608069
     99          1           0        1.880012   -6.729714   -2.853627
    100          1           0        1.875159   -6.584644   -1.043243
    101          1           0        3.177750   -7.428221   -1.940066
    102          1           0       -1.857559   -5.135369    1.557443
    103          1           0       -2.922794   -5.775547    0.286078
    104          1           0       -3.726336   -3.115922    0.683728
    105          1           0       -5.271258   -6.152233    2.986083
    106          1           0       -4.387772   -4.920802    4.102100
    107          1           0       -3.536313   -6.100838    3.102029
    108          1           0       -6.219869   -3.785029    3.230119
    109          1           0       -6.081195   -3.128777    1.594853
    110          1           0       -4.954124   -1.302788    2.071561
    111          1           0       -3.876348   -1.933915    3.097440
    112          1           0       -4.672118   -1.023653    4.767086
    113          1           0       -5.997656   -2.187255    4.705674
    114          1           0       -6.117112    0.622672    3.788867
    115          1           0       -7.067457    1.070555    5.693463
    116          1           0       -6.956793   -0.585397    6.334819
    117          1           0       -8.346420   -0.208470    5.431558
    118          1           0       -8.552330   -1.148273    3.617050
    119          1           0       -7.419684   -1.321888    2.329603
    120          1           0       -8.103942    1.487643    3.244919
    121          1           0       -9.458949    0.480084    2.356795
    122          1           0       -7.045061    0.624083    0.804775
    123          1           0       -7.498248    2.242898    1.246747
    124          1           0       -9.991792    1.335787    0.380297
    125          1           0       -8.509252   -0.218549   -1.624306
    126          1           0       -9.926698   -0.745520   -0.607866
    127          1           0       -8.258062   -0.884943   -0.068296
    128          1           0       -8.815233    1.945324   -2.031783
    129          1           0       -7.695473    2.592533   -0.818380
    130          1           0       -9.250822    4.363456   -0.775311
    131          1           0      -10.456034    3.394408   -0.032099
    132          1           0      -10.222370    3.707603   -2.889227
    133          1           0      -11.498961    4.214454   -1.974559
    134          1           0      -11.105392    1.205205   -1.793997
    135          1           0      -11.150233    0.528134   -3.714068
    136          1           0      -10.920740    2.166256   -4.347285
    137          1           0      -12.593221    1.632085   -4.027016
    138          1           0      -13.826556    2.378153   -2.309298
    139          1           0      -13.112524    2.942050   -0.810347
    140          1           0      -13.144420    1.310325   -0.950173
 ---------------------------------------------------------------------

 SCF Done:  E(RCAM-B3LYP) =  -3007.12342734     A.U. after   17 cycles

 Excitation energies and oscillator strengths:

 Excited State   1:      Singlet-A      1.6905 eV  733.40 nm  f=0.3732  <S**2>=0.000
     245 -> 248        0.17238
     246 -> 247        0.68758
     245 <- 248        0.10685
 This state for optimization and/or second-order correction.
 Total Energy, E(TD-HF/TD-DFT) =  -3007.06130157
 Copying the excited state density for this state as the 1-particle RhoCI density.

 Excited State   2:      Singlet-A      2.2437 eV  552.58 nm  f=0.0993  <S**2>=0.000
     245 -> 247        0.62983
     246 -> 248       -0.30505

 Excited State   3:      Singlet-A      3.1385 eV  395.04 nm  f=0.0020  <S**2>=0.000
     242 -> 247        0.12324
     244 -> 247        0.67446

 Excited State   4:      Singlet-A      3.3552 eV  369.53 nm  f=0.0486  <S**2>=0.000
     240 -> 247        0.13262
     242 -> 247        0.59135
     246 -> 248       -0.28738

 Excited State   5:      Singlet-A      3.4918 eV  355.07 nm  f=0.0000  <S**2>=0.000
     240 -> 247        0.60867
     240 -> 249       -0.20608
     240 -> 251       -0.14743
     242 -> 247       -0.17775

 The electronic state is 1-A.
 Alpha  occ. eigenvalues --  -46.89127 -19.26085 -19.24263 -19.19829 -19.19522
 Alpha  occ. eigenvalues --  -19.18886 -19.18245 -14.42772 -14.42341 -14.39485
 Alpha  occ. eigenvalues --  -14.39338 -10.39618 -10.39271 -10.34880 -10.34026
 Alpha  occ. eigenvalues --  -10.31928 -10.31630 -10.31502 -10.31476 -10.31347
 Alpha  occ. eigenvalues --  -10.30381 -10.30376 -10.29460 -10.29457 -10.28889
 Alpha  occ. eigenvalues --  -10.28570 -10.28043 -10.28019 -10.27967 -10.27913
 Alpha  occ. eigenvalues --  -10.27901 -10.27892 -10.27668 -10.27643 -10.27623
 Alpha  occ. eigenvalues --  -10.27490 -10.27478 -10.27251 -10.26709 -10.26689
 Alpha  occ. eigenvalues --  -10.26609 -10.26455 -10.26448 -10.26293 -10.26141
 Alpha  occ. eigenvalues --  -10.26106 -10.25997 -10.25786 -10.25563 -10.25426
 Alpha  occ. eigenvalues --  -10.25209 -10.25202 -10.25166 -10.25079 -10.24928
 Alpha  occ. eigenvalues --  -10.24849 -10.24684 -10.24663 -10.24581 -10.24458
 Alpha  occ. eigenvalues --  -10.24401 -10.24313 -10.24312 -10.24259 -10.24238
 Alpha  occ. eigenvalues --  -10.24186  -3.17571  -1.92471  -1.92011  -1.91877
 Alpha  occ. eigenvalues --   -1.17049  -1.14277  -1.12847  -1.08286  -1.07663
 Alpha  occ. eigenvalues --   -1.05750  -1.04746  -1.03658  -1.03467  -1.02648
 Alpha  occ. eigenvalues --   -0.94362  -0.90699  -0.90052  -0.89592  -0.89102
 Alpha  occ. eigenvalues --   -0.88877  -0.88727  -0.88157  -0.87595  -0.86770
 Alpha  occ. eigenvalues --   -0.86217  -0.85105  -0.84677  -0.84141  -0.83781
 Alpha  occ. eigenvalues --   -0.82381  -0.82172  -0.81600  -0.81226  -0.80896
 Alpha  occ. eigenvalues --   -0.79604  -0.78976  -0.77900  -0.77083  -0.76031
 Alpha  occ. eigenvalues --   -0.75819  -0.75520  -0.75356  -0.74793  -0.74007
 Alpha  occ. eigenvalues --   -0.73684  -0.72810  -0.72102  -0.70336  -0.69550
 Alpha  occ. eigenvalues --   -0.68780  -0.68471  -0.67066  -0.66905  -0.66056
 Alpha  occ. eigenvalues --   -0.65753  -0.65417  -0.65039  -0.64682  -0.64471
 Alpha  occ. eigenvalues --   -0.63635  -0.62963  -0.62157  -0.61738  -0.60613
 Alpha  occ. eigenvalues --   -0.60164  -0.59571  -0.58971  -0.58735  -0.58477
 Alpha  occ. eigenvalues --   -0.57657  -0.56588  -0.56540  -0.56112  -0.55908
 Alpha  occ. eigenvalues --   -0.55626  -0.55033  -0.54723  -0.54200  -0.53940
 Alpha  occ. eigenvalues --   -0.53650  -0.53593  -0.53437  -0.53020  -0.52733
 Alpha  occ. eigenvalues --   -0.52617  -0.52349  -0.52117  -0.51932  -0.51857
 Alpha  occ. eigenvalues --   -0.51728  -0.51559  -0.51164  -0.50914  -0.50875
 Alpha  occ. eigenvalues --   -0.50612  -0.50183  -0.50067  -0.49986  -0.49753
 Alpha  occ. eigenvalues --   -0.49644  -0.49623  -0.49412  -0.48976  -0.48769
 Alpha  occ. eigenvalues --   -0.48674  -0.48339  -0.48278  -0.48109  -0.47923
 Alpha  occ. eigenvalues --   -0.47682  -0.47449  -0.47309  -0.47042  -0.47012
 Alpha  occ. eigenvalues --   -0.46731  -0.46456  -0.46453  -0.45986  -0.45859
 Alpha  occ. eigenvalues --   -0.45692  -0.45491  -0.45436  -0.45224  -0.45014
 Alpha  occ. eigenvalues --   -0.44924  -0.44470  -0.44326  -0.44217  -0.44094
 Alpha  occ. eigenvalues --   -0.43724  -0.43371  -0.43158  -0.43037  -0.42979
 Alpha  occ. eigenvalues --   -0.42859  -0.42386  -0.42095  -0.42007  -0.41951
 Alpha  occ. eigenvalues --   -0.41896  -0.41553  -0.41381  -0.41300  -0.41060
 Alpha  occ. eigenvalues --   -0.40836  -0.40531  -0.40409  -0.40153  -0.40056
 Alpha  occ. eigenvalues --   -0.39793  -0.39681  -0.39128  -0.38952  -0.38610
 Alpha  occ. eigenvalues --   -0.38134  -0.38023  -0.37642  -0.37236  -0.37203
 Alpha  occ. eigenvalues --   -0.37125  -0.37020  -0.36943  -0.36347  -0.35656
 Alpha  occ. eigenvalues --   -0.35429  -0.35409  -0.34561  -0.34052  -0.34036
 Alpha  occ. eigenvalues --   -0.33905  -0.33582  -0.33220  -0.31720  -0.31100
 Alpha  occ. eigenvalues --   -0.30776  -0.30498  -0.28966  -0.28915  -0.24791
 Alpha  occ. eigenvalues --   -0.21561
 Alpha virt. eigenvalues --   -0.09244  -0.02266   0.00561   0.01707   0.02571
 Alpha virt. eigenvalues --    0.03956   0.04630   0.05337   0.06192   0.06657
 Alpha virt. eigenvalues --    0.07554   0.08438   0.08512   0.08643   0.09028

 Mulliken charges:
               1
     1  Mg   0.803210
     2  C   -0.070097
     3  C   -0.051392
     4  C   -0.053908
     5  C   -0.083972
     6  N   -0.310446
     7  C   -0.046168
     8  C   -0.035547
     9  C   -0.082308
    10  C    0.009993
    11  C    0.106499
    12  C    0.079828
    13  C    0.072267
    14  C    0.175661
    15  O   -0.236115
    16  O   -0.321101
    17  N   -0.352913
    18  C    0.147444
    19  C   -0.162658
    20  C   -0.034308
    21  C    0.112300
    22  C    0.128797
    23  C   -0.010725
    24  O   -0.238477
    25  C    0.062178
    26  N   -0.297113
    27  C    0.057948
    28  C   -0.060014
    29  C   -0.016978
    30  C    0.083943
    31  C    0.086529
    32  C   -0.005035
    33  C    0.027872
    34  N   -0.352496
    35  C    0.085331
    36  C   -0.148817
    37  C    0.014169
    38  C    0.164702
    39  C    0.111378
    40  C    0.009923
    41  O   -0.101274
    42  C    0.089343
    43  C    0.194060
    44  O   -0.233167
    45  O   -0.363376
    46  C    0.156794
    47  C    0.305613
    48  C   -0.140511
    49  C   -0.217900
    50  C    0.074944
    51  C    0.054279
    52  C    0.003105
    53  C    0.073324
    54  C   -0.141404
    55  C    0.060650
    56  C    0.063487
    57  C    0.049533
    58  C    0.036747
    59  C   -0.173419
    60  C    0.057804
    61  C    0.089074
    62  C    0.009046
    63  C    0.025189
    64  C   -0.177436
    65  C    0.037798
    66  C    0.060200
    67  H   -0.028078
    68  H   -0.035093
    69  H   -0.029080
    70  H    0.005663
    71  H    0.001214
    72  H    0.021206
    73  H    0.009353
    74  H    0.029430
    75  H    0.008702
    76  H    0.049646
    77  H    0.009937
    78  H    0.023578
    79  H    0.033368
    80  H    0.000828
    81  H    0.037579
    82  H    0.029123
    83  H    0.036683
    84  H    0.055688
    85  H    0.018886
    86  H   -0.001834
    87  H    0.022946
    88  H    0.008904
    89  H    0.015603
    90  H   -0.001572
    91  H   -0.017002
    92  H    0.030629
    93  H    0.015910
    94  H    0.015912
    95  H    0.040668
    96  H    0.034830
    97  H    0.002373
    98  H    0.036458
    99  H    0.018755
   100  H    0.087035
   101  H    0.027007
   102  H    0.048046
   103  H    0.026018
   104  H   -0.008689
   105  H    0.033882
   106  H    0.032326
   107  H    0.004243
   108  H   -0.001638
   109  H    0.019996
   110  H   -0.010442
   111  H   -0.001462
   112  H   -0.006601
   113  H   -0.020562
   114  H   -0.005151
   115  H    0.014512
   116  H    0.009434
   117  H   -0.000959
   118  H   -0.013956
   119  H   -0.005113
   120  H    0.009103
   121  H    0.000522
   122  H   -0.009701
   123  H   -0.005974
   124  H    0.003165
   125  H    0.002773
   126  H    0.019261
   127  H   -0.009108
   128  H   -0.008231
   129  H   -0.005480
   130  H   -0.007105
   131  H   -0.005927
   132  H   -0.015361
   133  H   -0.014464
   134  H    0.001871
   135  H    0.014999
   136  H    0.010114
   137  H    0.003706
   138  H    0.022614
   139  H    0.000497
   140  H    0.001699
 Sum of Mulliken charges =  -0.00000

 Dipole moment (field-independent basis, Debye):
    X=              0.7597    Y=              2.0584    Z=              0.2715  Tot=              2.2109
 Quadrupole moment (field-independent basis, Debye-Ang):
   XX=           -372.1889   YY=           -443.4841   ZZ=           -388.1796
   XY=             49.8445   XZ=              5.5539   YZ=             19.5284

 Normal termination of Gaussian 16 at Wed Apr 27 20:31:58 2022.
