 Gaussian 16, Revision A.03,
 Gaussian 16:  ES64L-G16RevA.03 25-Dec-2016

 ---------------------------------
 #p PBE1PBE/Def2SVP td=(nstates=5)
 ---------------------------------

 ------------------------------------------------------
 step_1301_chromophore_20 TDDFT with PBE1PBE functional
 ------------------------------------------------------
 Symbolic Z-matrix:
 Charge =  0 Multiplicity = 1

                         Standard orientation:
 ---------------------------------------------------------------------
 Center     Atomic      Atomic             Coordinates (Angstroms)
 Number     Number       Type             X           Y           Z
 ---------------------------------------------------------------------
      1         12           0        4.304346    1.329446   -0.764960
      2          6           0        4.130276   -2.136238   -1.328017
      3          6           0        1.448019    1.728937   -2.545961
      4          6           0        4.147647    4.545691    0.469918
      5          6           0        7.030816    0.642946    1.420940
      6          7           0        2.939724   -0.076994   -1.644898
      7          6           0        3.018448   -1.457676   -1.725125
      8          6           0        1.758943   -1.985645   -2.456648
      9          6           0        1.313371   -0.776490   -3.253555
     10          6           0        1.919240    0.387322   -2.449561
     11          6           0        1.748937   -0.771546   -4.722811
     12          6           0        0.749492   -2.575376   -1.412953
     13          6           0        0.048535   -3.901683   -1.851138
     14          6           0       -0.513980   -4.710124   -0.701068
     15          8           0        0.056657   -5.660310   -0.147083
     16          8           0       -1.765669   -4.258061   -0.447064
     17          7           0        2.931908    2.981739   -0.999638
     18          6           0        1.872914    2.904114   -1.857401
     19          6           0        1.202955    4.161095   -1.753328
     20          6           0        1.907087    4.985801   -0.805467
     21          6           0        3.074382    4.206842   -0.446997
     22          6           0        0.013008    4.509162   -2.651695
     23          6           0        1.507698    6.413373   -0.379767
     24          8           0        0.636479    7.030488   -1.027828
     25          6           0        2.207936    7.192214    0.678394
     26          7           0        5.412015    2.375492    0.751446
     27          6           0        5.257452    3.763180    0.839180
     28          6           0        6.280408    4.367340    1.850641
     29          6           0        7.192653    3.148134    2.061089
     30          6           0        6.526317    1.940901    1.335091
     31          6           0        6.950041    5.626198    1.319998
     32          6           0        7.627008    2.781429    3.543740
     33          6           0        9.024062    2.259105    3.988231
     34          7           0        5.473128   -0.314489   -0.178424
     35          6           0        6.543803   -0.479205    0.720731
     36          6           0        6.965258   -1.858330    0.748064
     37          6           0        6.062169   -2.465320   -0.088440
     38          6           0        5.107163   -1.547771   -0.572158
     39          6           0        8.186542   -2.366192    1.319290
     40          6           0        5.805159   -3.720198   -0.711912
     41          8           0        6.337146   -4.762100   -0.728666
     42          6           0        4.553982   -3.545215   -1.544466
     43          6           0        3.536652   -4.554821   -1.142010
     44          8           0        3.128857   -4.815532    0.016891
     45          8           0        3.259906   -5.401526   -2.236041
     46          6           0        2.477259   -6.593058   -1.951246
     47          6           0       -2.444609   -4.877077    0.675741
     48          6           0       -3.577897   -4.063924    1.201033
     49          6           0       -4.476514   -4.311220    2.180697
     50          6           0       -4.431338   -5.482279    3.169353
     51          6           0       -5.553512   -3.268322    2.538731
     52          6           0       -4.959955   -1.904745    2.980074
     53          6           0       -5.555990   -1.326007    4.205530
     54          6           0       -6.693014   -0.257503    4.075659
     55          6           0       -7.283194    0.022068    5.489877
     56          6           0       -7.763136   -0.616760    3.085919
     57          6           0       -8.410079    0.699264    2.557490
     58          6           0       -7.881691    1.225353    1.162590
     59          6           0       -8.978903    1.170794    0.013643
     60          6           0       -8.951480   -0.259201   -0.629141
     61          6           0       -8.718678    2.260317   -0.993322
     62          6           0       -9.754879    3.401770   -0.866745
     63          6           0      -10.796079    3.381637   -2.022799
     64          6           0      -11.611029    2.074749   -2.212838
     65          6           0      -11.552732    1.540910   -3.716712
     66          6           0      -13.031243    2.184859   -1.589434
     67          1           0        0.540462    1.811317   -3.148383
     68          1           0        4.123958    5.559626    0.874418
     69          1           0        8.013341    0.459684    1.861694
     70          1           0        2.017014   -2.824848   -3.102372
     71          1           0        0.281765   -0.426862   -3.292261
     72          1           0        0.860739   -0.592741   -5.328625
     73          1           0        2.074004   -1.786388   -4.954330
     74          1           0        2.565260   -0.050633   -4.762746
     75          1           0       -0.032773   -1.822629   -1.500754
     76          1           0        1.190110   -2.587212   -0.415753
     77          1           0        0.789645   -4.511083   -2.366702
     78          1           0       -0.769104   -3.736307   -2.553362
     79          1           0       -0.657282    4.988301   -1.937851
     80          1           0       -0.469671    3.657496   -3.129778
     81          1           0        0.297657    5.241690   -3.406960
     82          1           0        2.285626    6.538342    1.547072
     83          1           0        1.543348    8.038750    0.856401
     84          1           0        3.210166    7.486854    0.368262
     85          1           0        5.871916    4.577591    2.838825
     86          1           0        8.144574    3.186833    1.530736
     87          1           0        6.381360    5.877407    0.424939
     88          1           0        7.994934    5.454888    1.059027
     89          1           0        6.965351    6.366874    2.120142
     90          1           0        6.792840    2.332868    4.083135
     91          1           0        7.511651    3.721634    4.081525
     92          1           0        9.628898    2.999711    4.512841
     93          1           0        9.399007    1.846989    3.051886
     94          1           0        8.960436    1.389440    4.641846
     95          1           0        9.036813   -2.208078    0.655901
     96          1           0        8.159794   -3.384088    1.710142
     97          1           0        8.432394   -1.824049    2.231882
     98          1           0        4.759191   -3.666055   -2.608069
     99          1           0        1.880012   -6.729714   -2.853627
    100          1           0        1.875159   -6.584644   -1.043243
    101          1           0        3.177750   -7.428221   -1.940066
    102          1           0       -1.857559   -5.135369    1.557443
    103          1           0       -2.922794   -5.775547    0.286078
    104          1           0       -3.726336   -3.115922    0.683728
    105          1           0       -5.271258   -6.152233    2.986083
    106          1           0       -4.387772   -4.920802    4.102100
    107          1           0       -3.536313   -6.100838    3.102029
    108          1           0       -6.219869   -3.785029    3.230119
    109          1           0       -6.081195   -3.128777    1.594853
    110          1           0       -4.954124   -1.302788    2.071561
    111          1           0       -3.876348   -1.933915    3.097440
    112          1           0       -4.672118   -1.023653    4.767086
    113          1           0       -5.997656   -2.187255    4.705674
    114          1           0       -6.117112    0.622672    3.788867
    115          1           0       -7.067457    1.070555    5.693463
    116          1           0       -6.956793   -0.585397    6.334819
    117          1           0       -8.346420   -0.208470    5.431558
    118          1           0       -8.552330   -1.148273    3.617050
    119          1           0       -7.419684   -1.321888    2.329603
    120          1           0       -8.103942    1.487643    3.244919
    121          1           0       -9.458949    0.480084    2.356795
    122          1           0       -7.045061    0.624083    0.804775
    123          1           0       -7.498248    2.242898    1.246747
    124          1           0       -9.991792    1.335787    0.380297
    125          1           0       -8.509252   -0.218549   -1.624306
    126          1           0       -9.926698   -0.745520   -0.607866
    127          1           0       -8.258062   -0.884943   -0.068296
    128          1           0       -8.815233    1.945324   -2.031783
    129          1           0       -7.695473    2.592533   -0.818380
    130          1           0       -9.250822    4.363456   -0.775311
    131          1           0      -10.456034    3.394408   -0.032099
    132          1           0      -10.222370    3.707603   -2.889227
    133          1           0      -11.498961    4.214454   -1.974559
    134          1           0      -11.105392    1.205205   -1.793997
    135          1           0      -11.150233    0.528134   -3.714068
    136          1           0      -10.920740    2.166256   -4.347285
    137          1           0      -12.593221    1.632085   -4.027016
    138          1           0      -13.826556    2.378153   -2.309298
    139          1           0      -13.112524    2.942050   -0.810347
    140          1           0      -13.144420    1.310325   -0.950173
 ---------------------------------------------------------------------

 SCF Done:  E(RPBE1PBE) =  -3005.31251538     A.U. after   16 cycles

 Excitation energies and oscillator strengths:

 Excited State   1:      Singlet-A      1.8522 eV  669.38 nm  f=0.3577  <S**2>=0.000
     245 -> 248        0.16705
     246 -> 247        0.69459
     246 <- 247       -0.11305
 This state for optimization and/or second-order correction.
 Total Energy, E(TD-HF/TD-DFT) =  -3005.24444771
 Copying the excited state density for this state as the 1-particle RhoCI density.

 Excited State   2:      Singlet-A      2.2524 eV  550.45 nm  f=0.0975  <S**2>=0.000
     245 -> 247        0.64008
     246 -> 248       -0.27787

 Excited State   3:      Singlet-A      2.7247 eV  455.04 nm  f=0.0047  <S**2>=0.000
     243 -> 247        0.69342

 Excited State   4:      Singlet-A      2.9003 eV  427.48 nm  f=0.0009  <S**2>=0.000
     240 -> 247        0.12501
     241 -> 247       -0.30720
     242 -> 247        0.59088
     246 -> 248       -0.10917

 Excited State   5:      Singlet-A      3.0340 eV  408.65 nm  f=0.0000  <S**2>=0.000
     241 -> 247        0.58953
     242 -> 247        0.32462

 The electronic state is 1-A.
 Alpha  occ. eigenvalues --  -46.92491 -19.26746 -19.24901 -19.20081 -19.19673
 Alpha  occ. eigenvalues --  -19.18914 -19.18587 -14.42299 -14.41861 -14.39087
 Alpha  occ. eigenvalues --  -14.39052 -10.36615 -10.36231 -10.32156 -10.30981
 Alpha  occ. eigenvalues --  -10.29367 -10.29321 -10.29300 -10.29256 -10.28946
 Alpha  occ. eigenvalues --  -10.28194 -10.27919 -10.27337 -10.26707 -10.26395
 Alpha  occ. eigenvalues --  -10.26349 -10.25784 -10.25744 -10.25723 -10.25701
 Alpha  occ. eigenvalues --  -10.25609 -10.25553 -10.25492 -10.25313 -10.25142
 Alpha  occ. eigenvalues --  -10.25088 -10.24944 -10.24825 -10.24616 -10.24357
 Alpha  occ. eigenvalues --  -10.24255 -10.23960 -10.23868 -10.23600 -10.23584
 Alpha  occ. eigenvalues --  -10.23520 -10.23488 -10.23363 -10.23150 -10.23117
 Alpha  occ. eigenvalues --  -10.22927 -10.22732 -10.22728 -10.22630 -10.22442
 Alpha  occ. eigenvalues --  -10.22431 -10.22235 -10.22128 -10.22065 -10.21956
 Alpha  occ. eigenvalues --  -10.21873 -10.21812 -10.21809 -10.21750 -10.21722
 Alpha  occ. eigenvalues --  -10.21716  -3.14518  -1.87359  -1.86877  -1.86746
 Alpha  occ. eigenvalues --   -1.11854  -1.08943  -1.07504  -1.03114  -1.02474
 Alpha  occ. eigenvalues --   -1.00478  -0.99283  -0.98257  -0.98153  -0.97337
 Alpha  occ. eigenvalues --   -0.88657  -0.84804  -0.84272  -0.83697  -0.83430
 Alpha  occ. eigenvalues --   -0.83109  -0.82884  -0.82408  -0.81884  -0.80900
 Alpha  occ. eigenvalues --   -0.80453  -0.79520  -0.78923  -0.78383  -0.78016
 Alpha  occ. eigenvalues --   -0.76600  -0.76402  -0.75837  -0.75432  -0.75245
 Alpha  occ. eigenvalues --   -0.73746  -0.73210  -0.72236  -0.71430  -0.70327
 Alpha  occ. eigenvalues --   -0.69975  -0.69696  -0.69615  -0.68904  -0.68179
 Alpha  occ. eigenvalues --   -0.68119  -0.67170  -0.66550  -0.64645  -0.63861
 Alpha  occ. eigenvalues --   -0.63203  -0.62686  -0.61383  -0.61276  -0.60525
 Alpha  occ. eigenvalues --   -0.60202  -0.59620  -0.59576  -0.59220  -0.58926
 Alpha  occ. eigenvalues --   -0.57769  -0.57102  -0.56368  -0.56237  -0.55044
 Alpha  occ. eigenvalues --   -0.54720  -0.54211  -0.53481  -0.53291  -0.52813
 Alpha  occ. eigenvalues --   -0.52249  -0.51138  -0.50953  -0.50575  -0.50441
 Alpha  occ. eigenvalues --   -0.50228  -0.49509  -0.49204  -0.48630  -0.48479
 Alpha  occ. eigenvalues --   -0.48190  -0.48093  -0.47972  -0.47554  -0.47259
 Alpha  occ. eigenvalues --   -0.47204  -0.46798  -0.46585  -0.46489  -0.46352
 Alpha  occ. eigenvalues --   -0.46178  -0.46088  -0.45699  -0.45522  -0.45384
 Alpha  occ. eigenvalues --   -0.45117  -0.44738  -0.44636  -0.44530  -0.44326
 Alpha  occ. eigenvalues --   -0.44204  -0.44186  -0.44024  -0.43613  -0.43434
 Alpha  occ. eigenvalues --   -0.43324  -0.42951  -0.42942  -0.42806  -0.42525
 Alpha  occ. eigenvalues --   -0.42352  -0.42044  -0.42004  -0.41837  -0.41656
 Alpha  occ. eigenvalues --   -0.41364  -0.41082  -0.41006  -0.40741  -0.40496
 Alpha  occ. eigenvalues --   -0.40367  -0.40165  -0.40105  -0.39913  -0.39772
 Alpha  occ. eigenvalues --   -0.39586  -0.39271  -0.39057  -0.38993  -0.38804
 Alpha  occ. eigenvalues --   -0.38513  -0.38218  -0.37946  -0.37864  -0.37826
 Alpha  occ. eigenvalues --   -0.37669  -0.37122  -0.36966  -0.36752  -0.36695
 Alpha  occ. eigenvalues --   -0.36599  -0.36357  -0.36140  -0.36095  -0.35960
 Alpha  occ. eigenvalues --   -0.35688  -0.35369  -0.35279  -0.35041  -0.35004
 Alpha  occ. eigenvalues --   -0.34642  -0.34534  -0.33900  -0.33834  -0.33411
 Alpha  occ. eigenvalues --   -0.32951  -0.32819  -0.32478  -0.32302  -0.32116
 Alpha  occ. eigenvalues --   -0.32016  -0.31820  -0.31772  -0.31384  -0.30539
 Alpha  occ. eigenvalues --   -0.30351  -0.30270  -0.29479  -0.29299  -0.29084
 Alpha  occ. eigenvalues --   -0.28972  -0.28567  -0.28223  -0.27240  -0.26132
 Alpha  occ. eigenvalues --   -0.25741  -0.25676  -0.24509  -0.24220  -0.21670
 Alpha  occ. eigenvalues --   -0.19220
 Alpha virt. eigenvalues --   -0.11685  -0.05778  -0.03675  -0.01910  -0.01023
 Alpha virt. eigenvalues --   -0.00571   0.00136   0.01039   0.01825   0.02355
 Alpha virt. eigenvalues --    0.04148   0.04366   0.05218   0.05317   0.05780

 Mulliken charges:
               1
     1  Mg   0.945457
     2  C   -0.077053
     3  C   -0.049819
     4  C   -0.049730
     5  C   -0.072863
     6  N   -0.411123
     7  C    0.035101
     8  C   -0.104693
     9  C   -0.165017
    10  C    0.049703
    11  C    0.052370
    12  C    0.035909
    13  C   -0.012067
    14  C    0.241480
    15  O   -0.270582
    16  O   -0.352998
    17  N   -0.468614
    18  C    0.180033
    19  C   -0.193248
    20  C   -0.081098
    21  C    0.147783
    22  C    0.071238
    23  C    0.038886
    24  O   -0.270161
    25  C   -0.015188
    26  N   -0.401618
    27  C    0.087839
    28  C   -0.145330
    29  C   -0.087023
    30  C    0.123760
    31  C    0.031249
    32  C   -0.065606
    33  C   -0.045958
    34  N   -0.475490
    35  C    0.105585
    36  C   -0.163026
    37  C   -0.046347
    38  C    0.209207
    39  C    0.061530
    40  C    0.114527
    41  O   -0.153086
    42  C   -0.028111
    43  C    0.283714
    44  O   -0.268243
    45  O   -0.394256
    46  C    0.099022
    47  C    0.267940
    48  C   -0.153689
    49  C   -0.254571
    50  C    0.008032
    51  C   -0.014274
    52  C   -0.055685
    53  C    0.019430
    54  C   -0.233854
    55  C    0.005193
    56  C    0.005308
    57  C   -0.018355
    58  C   -0.014399
    59  C   -0.255673
    60  C   -0.003638
    61  C    0.029681
    62  C   -0.052035
    63  C   -0.035138
    64  C   -0.270750
    65  C   -0.020187
    66  C   -0.000710
    67  H    0.003742
    68  H   -0.001264
    69  H    0.005407
    70  H    0.043217
    71  H    0.036717
    72  H    0.048121
    73  H    0.037959
    74  H    0.057459
    75  H    0.043538
    76  H    0.080127
    77  H    0.049116
    78  H    0.054929
    79  H    0.061932
    80  H    0.028607
    81  H    0.066039
    82  H    0.056494
    83  H    0.064669
    84  H    0.081462
    85  H    0.055623
    86  H    0.037642
    87  H    0.050631
    88  H    0.036818
    89  H    0.042919
    90  H    0.031450
    91  H    0.017930
    92  H    0.057318
    93  H    0.042705
    94  H    0.044024
    95  H    0.067505
    96  H    0.061118
    97  H    0.028639
    98  H    0.073000
    99  H    0.040590
   100  H    0.110916
   101  H    0.051193
   102  H    0.072836
   103  H    0.054063
   104  H    0.022320
   105  H    0.061533
   106  H    0.060860
   107  H    0.031976
   108  H    0.029321
   109  H    0.052465
   110  H    0.022010
   111  H    0.031090
   112  H    0.025954
   113  H    0.014288
   114  H    0.034129
   115  H    0.041172
   116  H    0.035763
   117  H    0.025991
   118  H    0.019507
   119  H    0.031974
   120  H    0.041974
   121  H    0.033715
   122  H    0.023567
   123  H    0.026392
   124  H    0.039120
   125  H    0.030366
   126  H    0.044821
   127  H    0.020668
   128  H    0.025947
   129  H    0.027070
   130  H    0.025624
   131  H    0.027095
   132  H    0.017453
   133  H    0.018887
   134  H    0.048978
   135  H    0.040855
   136  H    0.036554
   137  H    0.031238
   138  H    0.048332
   139  H    0.027941
   140  H    0.029185
 Sum of Mulliken charges =  -0.00000

 Dipole moment (field-independent basis, Debye):
    X=              0.6680    Y=              2.3296    Z=              0.2198  Tot=              2.4334
 Quadrupole moment (field-independent basis, Debye-Ang):
   XX=           -369.3497   YY=           -439.8089   ZZ=           -384.5126
   XY=             50.8781   XZ=              6.4320   YZ=             19.6603

 Normal termination of Gaussian 16 at Wed Apr 27 20:53:44 2022.
