 Gaussian 16, Revision A.03,
 Gaussian 16:  ES64L-G16RevA.03 25-Dec-2016

 --------------------------------
 #p wB97XD/Def2SVP td=(nstates=5)
 --------------------------------

 -----------------------------------------------------
 step_1301_chromophore_20 TDDFT with wB97XD functional
 -----------------------------------------------------
 Symbolic Z-matrix:
 Charge =  0 Multiplicity = 1

                         Standard orientation:
 ---------------------------------------------------------------------
 Center     Atomic      Atomic             Coordinates (Angstroms)
 Number     Number       Type             X           Y           Z
 ---------------------------------------------------------------------
      1         12           0        4.304346    1.329446   -0.764960
      2          6           0        4.130276   -2.136238   -1.328017
      3          6           0        1.448019    1.728937   -2.545961
      4          6           0        4.147647    4.545691    0.469918
      5          6           0        7.030816    0.642946    1.420940
      6          7           0        2.939724   -0.076994   -1.644898
      7          6           0        3.018448   -1.457676   -1.725125
      8          6           0        1.758943   -1.985645   -2.456648
      9          6           0        1.313371   -0.776490   -3.253555
     10          6           0        1.919240    0.387322   -2.449561
     11          6           0        1.748937   -0.771546   -4.722811
     12          6           0        0.749492   -2.575376   -1.412953
     13          6           0        0.048535   -3.901683   -1.851138
     14          6           0       -0.513980   -4.710124   -0.701068
     15          8           0        0.056657   -5.660310   -0.147083
     16          8           0       -1.765669   -4.258061   -0.447064
     17          7           0        2.931908    2.981739   -0.999638
     18          6           0        1.872914    2.904114   -1.857401
     19          6           0        1.202955    4.161095   -1.753328
     20          6           0        1.907087    4.985801   -0.805467
     21          6           0        3.074382    4.206842   -0.446997
     22          6           0        0.013008    4.509162   -2.651695
     23          6           0        1.507698    6.413373   -0.379767
     24          8           0        0.636479    7.030488   -1.027828
     25          6           0        2.207936    7.192214    0.678394
     26          7           0        5.412015    2.375492    0.751446
     27          6           0        5.257452    3.763180    0.839180
     28          6           0        6.280408    4.367340    1.850641
     29          6           0        7.192653    3.148134    2.061089
     30          6           0        6.526317    1.940901    1.335091
     31          6           0        6.950041    5.626198    1.319998
     32          6           0        7.627008    2.781429    3.543740
     33          6           0        9.024062    2.259105    3.988231
     34          7           0        5.473128   -0.314489   -0.178424
     35          6           0        6.543803   -0.479205    0.720731
     36          6           0        6.965258   -1.858330    0.748064
     37          6           0        6.062169   -2.465320   -0.088440
     38          6           0        5.107163   -1.547771   -0.572158
     39          6           0        8.186542   -2.366192    1.319290
     40          6           0        5.805159   -3.720198   -0.711912
     41          8           0        6.337146   -4.762100   -0.728666
     42          6           0        4.553982   -3.545215   -1.544466
     43          6           0        3.536652   -4.554821   -1.142010
     44          8           0        3.128857   -4.815532    0.016891
     45          8           0        3.259906   -5.401526   -2.236041
     46          6           0        2.477259   -6.593058   -1.951246
     47          6           0       -2.444609   -4.877077    0.675741
     48          6           0       -3.577897   -4.063924    1.201033
     49          6           0       -4.476514   -4.311220    2.180697
     50          6           0       -4.431338   -5.482279    3.169353
     51          6           0       -5.553512   -3.268322    2.538731
     52          6           0       -4.959955   -1.904745    2.980074
     53          6           0       -5.555990   -1.326007    4.205530
     54          6           0       -6.693014   -0.257503    4.075659
     55          6           0       -7.283194    0.022068    5.489877
     56          6           0       -7.763136   -0.616760    3.085919
     57          6           0       -8.410079    0.699264    2.557490
     58          6           0       -7.881691    1.225353    1.162590
     59          6           0       -8.978903    1.170794    0.013643
     60          6           0       -8.951480   -0.259201   -0.629141
     61          6           0       -8.718678    2.260317   -0.993322
     62          6           0       -9.754879    3.401770   -0.866745
     63          6           0      -10.796079    3.381637   -2.022799
     64          6           0      -11.611029    2.074749   -2.212838
     65          6           0      -11.552732    1.540910   -3.716712
     66          6           0      -13.031243    2.184859   -1.589434
     67          1           0        0.540462    1.811317   -3.148383
     68          1           0        4.123958    5.559626    0.874418
     69          1           0        8.013341    0.459684    1.861694
     70          1           0        2.017014   -2.824848   -3.102372
     71          1           0        0.281765   -0.426862   -3.292261
     72          1           0        0.860739   -0.592741   -5.328625
     73          1           0        2.074004   -1.786388   -4.954330
     74          1           0        2.565260   -0.050633   -4.762746
     75          1           0       -0.032773   -1.822629   -1.500754
     76          1           0        1.190110   -2.587212   -0.415753
     77          1           0        0.789645   -4.511083   -2.366702
     78          1           0       -0.769104   -3.736307   -2.553362
     79          1           0       -0.657282    4.988301   -1.937851
     80          1           0       -0.469671    3.657496   -3.129778
     81          1           0        0.297657    5.241690   -3.406960
     82          1           0        2.285626    6.538342    1.547072
     83          1           0        1.543348    8.038750    0.856401
     84          1           0        3.210166    7.486854    0.368262
     85          1           0        5.871916    4.577591    2.838825
     86          1           0        8.144574    3.186833    1.530736
     87          1           0        6.381360    5.877407    0.424939
     88          1           0        7.994934    5.454888    1.059027
     89          1           0        6.965351    6.366874    2.120142
     90          1           0        6.792840    2.332868    4.083135
     91          1           0        7.511651    3.721634    4.081525
     92          1           0        9.628898    2.999711    4.512841
     93          1           0        9.399007    1.846989    3.051886
     94          1           0        8.960436    1.389440    4.641846
     95          1           0        9.036813   -2.208078    0.655901
     96          1           0        8.159794   -3.384088    1.710142
     97          1           0        8.432394   -1.824049    2.231882
     98          1           0        4.759191   -3.666055   -2.608069
     99          1           0        1.880012   -6.729714   -2.853627
    100          1           0        1.875159   -6.584644   -1.043243
    101          1           0        3.177750   -7.428221   -1.940066
    102          1           0       -1.857559   -5.135369    1.557443
    103          1           0       -2.922794   -5.775547    0.286078
    104          1           0       -3.726336   -3.115922    0.683728
    105          1           0       -5.271258   -6.152233    2.986083
    106          1           0       -4.387772   -4.920802    4.102100
    107          1           0       -3.536313   -6.100838    3.102029
    108          1           0       -6.219869   -3.785029    3.230119
    109          1           0       -6.081195   -3.128777    1.594853
    110          1           0       -4.954124   -1.302788    2.071561
    111          1           0       -3.876348   -1.933915    3.097440
    112          1           0       -4.672118   -1.023653    4.767086
    113          1           0       -5.997656   -2.187255    4.705674
    114          1           0       -6.117112    0.622672    3.788867
    115          1           0       -7.067457    1.070555    5.693463
    116          1           0       -6.956793   -0.585397    6.334819
    117          1           0       -8.346420   -0.208470    5.431558
    118          1           0       -8.552330   -1.148273    3.617050
    119          1           0       -7.419684   -1.321888    2.329603
    120          1           0       -8.103942    1.487643    3.244919
    121          1           0       -9.458949    0.480084    2.356795
    122          1           0       -7.045061    0.624083    0.804775
    123          1           0       -7.498248    2.242898    1.246747
    124          1           0       -9.991792    1.335787    0.380297
    125          1           0       -8.509252   -0.218549   -1.624306
    126          1           0       -9.926698   -0.745520   -0.607866
    127          1           0       -8.258062   -0.884943   -0.068296
    128          1           0       -8.815233    1.945324   -2.031783
    129          1           0       -7.695473    2.592533   -0.818380
    130          1           0       -9.250822    4.363456   -0.775311
    131          1           0      -10.456034    3.394408   -0.032099
    132          1           0      -10.222370    3.707603   -2.889227
    133          1           0      -11.498961    4.214454   -1.974559
    134          1           0      -11.105392    1.205205   -1.793997
    135          1           0      -11.150233    0.528134   -3.714068
    136          1           0      -10.920740    2.166256   -4.347285
    137          1           0      -12.593221    1.632085   -4.027016
    138          1           0      -13.826556    2.378153   -2.309298
    139          1           0      -13.112524    2.942050   -0.810347
    140          1           0      -13.144420    1.310325   -0.950173
 ---------------------------------------------------------------------

 SCF Done:  E(RwB97XD) =  -3007.82387795     A.U. after   19 cycles

 Excitation energies and oscillator strengths:

 Excited State   1:      Singlet-A      1.6327 eV  759.40 nm  f=0.3726  <S**2>=0.000
     245 -> 248       -0.17793
     246 -> 247        0.68545
     245 <- 248       -0.11618
 This state for optimization and/or second-order correction.
 Total Energy, E(TD-HF/TD-DFT) =  -3007.76387903
 Copying the excited state density for this state as the 1-particle RhoCI density.

 Excited State   2:      Singlet-A      2.1865 eV  567.05 nm  f=0.0970  <S**2>=0.000
     245 -> 247        0.62825
     246 -> 248        0.30699

 Excited State   3:      Singlet-A      3.1866 eV  389.08 nm  f=0.0018  <S**2>=0.000
     242 -> 247        0.18810
     243 -> 247        0.65178
     243 -> 249       -0.11184

 Excited State   4:      Singlet-A      3.3587 eV  369.15 nm  f=0.0569  <S**2>=0.000
     241 -> 247       -0.37817
     242 -> 247        0.44831
     243 -> 247       -0.12151
     246 -> 248        0.30824

 Excited State   5:      Singlet-A      3.5139 eV  352.83 nm  f=0.0005  <S**2>=0.000
     240 -> 247        0.61798
     240 -> 249        0.22970
     240 -> 250       -0.14753

 The electronic state is 1-A.
 Alpha  occ. eigenvalues --  -46.95475 -19.31325 -19.29533 -19.24768 -19.24500
 Alpha  occ. eigenvalues --  -19.23951 -19.23229 -14.47396 -14.46936 -14.44120
 Alpha  occ. eigenvalues --  -14.43900 -10.43427 -10.43177 -10.38814 -10.38027
 Alpha  occ. eigenvalues --  -10.35799 -10.35694 -10.35519 -10.35515 -10.35371
 Alpha  occ. eigenvalues --  -10.34467 -10.34371 -10.33436 -10.33257 -10.32914
 Alpha  occ. eigenvalues --  -10.32648 -10.32188 -10.32090 -10.31997 -10.31962
 Alpha  occ. eigenvalues --  -10.31945 -10.31940 -10.31755 -10.31733 -10.31692
 Alpha  occ. eigenvalues --  -10.31476 -10.31410 -10.31304 -10.30767 -10.30687
 Alpha  occ. eigenvalues --  -10.30576 -10.30304 -10.30294 -10.30188 -10.29982
 Alpha  occ. eigenvalues --  -10.29967 -10.29813 -10.29751 -10.29517 -10.29399
 Alpha  occ. eigenvalues --  -10.29187 -10.29129 -10.29049 -10.29002 -10.29001
 Alpha  occ. eigenvalues --  -10.28785 -10.28604 -10.28506 -10.28475 -10.28297
 Alpha  occ. eigenvalues --  -10.28275 -10.28177 -10.28153 -10.28141 -10.28140
 Alpha  occ. eigenvalues --  -10.28096  -3.21362  -1.94951  -1.94470  -1.94336
 Alpha  occ. eigenvalues --   -1.19245  -1.16469  -1.15116  -1.10452  -1.09841
 Alpha  occ. eigenvalues --   -1.07967  -1.06779  -1.05658  -1.05491  -1.04679
 Alpha  occ. eigenvalues --   -0.96389  -0.92476  -0.91903  -0.91359  -0.90998
 Alpha  occ. eigenvalues --   -0.90769  -0.90542  -0.90081  -0.89531  -0.88552
 Alpha  occ. eigenvalues --   -0.88087  -0.87020  -0.86557  -0.86059  -0.85664
 Alpha  occ. eigenvalues --   -0.84243  -0.84068  -0.83494  -0.83101  -0.82882
 Alpha  occ. eigenvalues --   -0.81418  -0.80887  -0.79826  -0.79004  -0.77994
 Alpha  occ. eigenvalues --   -0.77656  -0.77308  -0.77302  -0.76588  -0.75834
 Alpha  occ. eigenvalues --   -0.75656  -0.74758  -0.74082  -0.72255  -0.71466
 Alpha  occ. eigenvalues --   -0.70776  -0.70332  -0.68923  -0.68864  -0.68045
 Alpha  occ. eigenvalues --   -0.67691  -0.67261  -0.67024  -0.66690  -0.66426
 Alpha  occ. eigenvalues --   -0.65433  -0.64764  -0.63980  -0.63765  -0.62581
 Alpha  occ. eigenvalues --   -0.62163  -0.61562  -0.60911  -0.60710  -0.60443
 Alpha  occ. eigenvalues --   -0.59649  -0.58524  -0.58468  -0.58034  -0.57868
 Alpha  occ. eigenvalues --   -0.57582  -0.56945  -0.56658  -0.56074  -0.55875
 Alpha  occ. eigenvalues --   -0.55548  -0.55494  -0.55368  -0.54928  -0.54649
 Alpha  occ. eigenvalues --   -0.54602  -0.54212  -0.54058  -0.53849  -0.53745
 Alpha  occ. eigenvalues --   -0.53630  -0.53483  -0.53039  -0.52849  -0.52753
 Alpha  occ. eigenvalues --   -0.52465  -0.52066  -0.51991  -0.51914  -0.51657
 Alpha  occ. eigenvalues --   -0.51564  -0.51503  -0.51344  -0.50916  -0.50692
 Alpha  occ. eigenvalues --   -0.50580  -0.50220  -0.50188  -0.50031  -0.49786
 Alpha  occ. eigenvalues --   -0.49606  -0.49313  -0.49260  -0.48975  -0.48945
 Alpha  occ. eigenvalues --   -0.48622  -0.48403  -0.48277  -0.47932  -0.47722
 Alpha  occ. eigenvalues --   -0.47587  -0.47410  -0.47350  -0.47184  -0.46960
 Alpha  occ. eigenvalues --   -0.46783  -0.46390  -0.46254  -0.46187  -0.45957
 Alpha  occ. eigenvalues --   -0.45630  -0.45281  -0.45026  -0.44955  -0.44918
 Alpha  occ. eigenvalues --   -0.44780  -0.44256  -0.44046  -0.43868  -0.43821
 Alpha  occ. eigenvalues --   -0.43745  -0.43481  -0.43224  -0.43193  -0.43065
 Alpha  occ. eigenvalues --   -0.42763  -0.42380  -0.42312  -0.42067  -0.41973
 Alpha  occ. eigenvalues --   -0.41677  -0.41585  -0.40970  -0.40863  -0.40453
 Alpha  occ. eigenvalues --   -0.39987  -0.39865  -0.39545  -0.39346  -0.39095
 Alpha  occ. eigenvalues --   -0.39049  -0.38861  -0.38831  -0.38270  -0.37490
 Alpha  occ. eigenvalues --   -0.37417  -0.37261  -0.36409  -0.36113  -0.35890
 Alpha  occ. eigenvalues --   -0.35875  -0.35618  -0.35271  -0.33916  -0.33144
 Alpha  occ. eigenvalues --   -0.32694  -0.32652  -0.31029  -0.30988  -0.26714
 Alpha  occ. eigenvalues --   -0.23364
 Alpha virt. eigenvalues --   -0.07597  -0.00348   0.02646   0.04584   0.04901
 Alpha virt. eigenvalues --    0.06079   0.06880   0.07788   0.08532   0.09149
 Alpha virt. eigenvalues --    0.10400   0.11149   0.11882   0.12000   0.12530

 Mulliken charges:
               1
     1  Mg   0.937227
     2  C   -0.084421
     3  C   -0.062498
     4  C   -0.061370
     5  C   -0.090286
     6  N   -0.380349
     7  C   -0.000475
     8  C   -0.074424
     9  C   -0.133280
    10  C    0.032765
    11  C    0.058761
    12  C    0.040075
    13  C    0.017141
    14  C    0.228797
    15  O   -0.266223
    16  O   -0.351817
    17  N   -0.433498
    18  C    0.165861
    19  C   -0.183021
    20  C   -0.076963
    21  C    0.137890
    22  C    0.083207
    23  C    0.034026
    24  O   -0.266668
    25  C   -0.002053
    26  N   -0.368889
    27  C    0.079166
    28  C   -0.117191
    29  C   -0.062365
    30  C    0.112725
    31  C    0.040602
    32  C   -0.052074
    33  C   -0.027062
    34  N   -0.440142
    35  C    0.101085
    36  C   -0.159230
    37  C   -0.037392
    38  C    0.197431
    39  C    0.069517
    40  C    0.095551
    41  O   -0.141931
    42  C    0.016317
    43  C    0.255122
    44  O   -0.259560
    45  O   -0.390925
    46  C    0.113151
    47  C    0.280207
    48  C   -0.163650
    49  C   -0.240645
    50  C    0.023803
    51  C    0.005124
    52  C   -0.039847
    53  C    0.036783
    54  C   -0.201230
    55  C    0.013215
    56  C    0.027603
    57  C    0.001025
    58  C    0.002162
    59  C   -0.226692
    60  C    0.010209
    61  C    0.048819
    62  C   -0.035291
    63  C   -0.017264
    64  C   -0.236961
    65  C   -0.006592
    66  C    0.011235
    67  H   -0.003711
    68  H   -0.014162
    69  H   -0.006104
    70  H    0.026528
    71  H    0.026358
    72  H    0.043973
    73  H    0.031614
    74  H    0.051219
    75  H    0.034798
    76  H    0.074555
    77  H    0.031066
    78  H    0.050765
    79  H    0.055470
    80  H    0.023110
    81  H    0.061426
    82  H    0.050186
    83  H    0.063117
    84  H    0.076719
    85  H    0.045537
    86  H    0.023612
    87  H    0.042978
    88  H    0.031595
    89  H    0.038266
    90  H    0.023454
    91  H    0.007732
    92  H    0.053471
    93  H    0.033426
    94  H    0.038336
    95  H    0.064179
    96  H    0.059009
    97  H    0.023407
    98  H    0.068318
    99  H    0.037562
   100  H    0.105155
   101  H    0.048233
   102  H    0.067666
   103  H    0.048800
   104  H    0.018590
   105  H    0.056554
   106  H    0.052783
   107  H    0.026874
   108  H    0.020695
   109  H    0.043900
   110  H    0.012424
   111  H    0.022187
   112  H    0.019877
   113  H    0.000635
   114  H    0.020601
   115  H    0.036252
   116  H    0.031310
   117  H    0.018862
   118  H    0.010190
   119  H    0.011961
   120  H    0.032418
   121  H    0.025551
   122  H    0.011094
   123  H    0.017814
   124  H    0.022564
   125  H    0.024381
   126  H    0.040812
   127  H    0.011757
   128  H    0.012136
   129  H    0.019109
   130  H    0.019991
   131  H    0.015372
   132  H    0.007296
   133  H    0.010942
   134  H    0.024252
   135  H    0.036284
   136  H    0.030429
   137  H    0.024005
   138  H    0.043079
   139  H    0.021185
   140  H    0.023850
 Sum of Mulliken charges =  -0.00000

 Dipole moment (field-independent basis, Debye):
    X=              0.8607    Y=              2.0474    Z=              0.2706  Tot=              2.2374
 Quadrupole moment (field-independent basis, Debye-Ang):
   XX=           -367.2624   YY=           -439.5800   ZZ=           -384.3093
   XY=             49.7194   XZ=              6.2717   YZ=             19.9981

 Normal termination of Gaussian 16 at Wed Apr 27 21:28:03 2022.
