 Gaussian 16, Revision A.03,
 Gaussian 16:  ES64L-G16RevA.03 25-Dec-2016

 --------------------
 #p ZINDO=(nstates=5)
 --------------------

 ------------------------------
 step_1301_chromophore_20 ZINDO
 ------------------------------
 Symbolic Z-matrix:
 Charge =  0 Multiplicity = 1

                         Standard orientation:
 ---------------------------------------------------------------------
 Center     Atomic      Atomic             Coordinates (Angstroms)
 Number     Number       Type             X           Y           Z
 ---------------------------------------------------------------------
      1         12           0        4.304346    1.329446   -0.764960
      2          6           0        4.130276   -2.136238   -1.328017
      3          6           0        1.448019    1.728937   -2.545961
      4          6           0        4.147647    4.545691    0.469918
      5          6           0        7.030816    0.642946    1.420940
      6          7           0        2.939724   -0.076994   -1.644898
      7          6           0        3.018448   -1.457676   -1.725125
      8          6           0        1.758943   -1.985645   -2.456648
      9          6           0        1.313371   -0.776490   -3.253555
     10          6           0        1.919240    0.387322   -2.449561
     11          6           0        1.748937   -0.771546   -4.722811
     12          6           0        0.749492   -2.575376   -1.412953
     13          6           0        0.048535   -3.901683   -1.851138
     14          6           0       -0.513980   -4.710124   -0.701068
     15          8           0        0.056657   -5.660310   -0.147083
     16          8           0       -1.765669   -4.258061   -0.447064
     17          7           0        2.931908    2.981739   -0.999638
     18          6           0        1.872914    2.904114   -1.857401
     19          6           0        1.202955    4.161095   -1.753328
     20          6           0        1.907087    4.985801   -0.805467
     21          6           0        3.074382    4.206842   -0.446997
     22          6           0        0.013008    4.509162   -2.651695
     23          6           0        1.507698    6.413373   -0.379767
     24          8           0        0.636479    7.030488   -1.027828
     25          6           0        2.207936    7.192214    0.678394
     26          7           0        5.412015    2.375492    0.751446
     27          6           0        5.257452    3.763180    0.839180
     28          6           0        6.280408    4.367340    1.850641
     29          6           0        7.192653    3.148134    2.061089
     30          6           0        6.526317    1.940901    1.335091
     31          6           0        6.950041    5.626198    1.319998
     32          6           0        7.627008    2.781429    3.543740
     33          6           0        9.024062    2.259105    3.988231
     34          7           0        5.473128   -0.314489   -0.178424
     35          6           0        6.543803   -0.479205    0.720731
     36          6           0        6.965258   -1.858330    0.748064
     37          6           0        6.062169   -2.465320   -0.088440
     38          6           0        5.107163   -1.547771   -0.572158
     39          6           0        8.186542   -2.366192    1.319290
     40          6           0        5.805159   -3.720198   -0.711912
     41          8           0        6.337146   -4.762100   -0.728666
     42          6           0        4.553982   -3.545215   -1.544466
     43          6           0        3.536652   -4.554821   -1.142010
     44          8           0        3.128857   -4.815532    0.016891
     45          8           0        3.259906   -5.401526   -2.236041
     46          6           0        2.477259   -6.593058   -1.951246
     47          6           0       -2.444609   -4.877077    0.675741
     48          6           0       -3.577897   -4.063924    1.201033
     49          6           0       -4.476514   -4.311220    2.180697
     50          6           0       -4.431338   -5.482279    3.169353
     51          6           0       -5.553512   -3.268322    2.538731
     52          6           0       -4.959955   -1.904745    2.980074
     53          6           0       -5.555990   -1.326007    4.205530
     54          6           0       -6.693014   -0.257503    4.075659
     55          6           0       -7.283194    0.022068    5.489877
     56          6           0       -7.763136   -0.616760    3.085919
     57          6           0       -8.410079    0.699264    2.557490
     58          6           0       -7.881691    1.225353    1.162590
     59          6           0       -8.978903    1.170794    0.013643
     60          6           0       -8.951480   -0.259201   -0.629141
     61          6           0       -8.718678    2.260317   -0.993322
     62          6           0       -9.754879    3.401770   -0.866745
     63          6           0      -10.796079    3.381637   -2.022799
     64          6           0      -11.611029    2.074749   -2.212838
     65          6           0      -11.552732    1.540910   -3.716712
     66          6           0      -13.031243    2.184859   -1.589434
     67          1           0        0.540462    1.811317   -3.148383
     68          1           0        4.123958    5.559626    0.874418
     69          1           0        8.013341    0.459684    1.861694
     70          1           0        2.017014   -2.824848   -3.102372
     71          1           0        0.281765   -0.426862   -3.292261
     72          1           0        0.860739   -0.592741   -5.328625
     73          1           0        2.074004   -1.786388   -4.954330
     74          1           0        2.565260   -0.050633   -4.762746
     75          1           0       -0.032773   -1.822629   -1.500754
     76          1           0        1.190110   -2.587212   -0.415753
     77          1           0        0.789645   -4.511083   -2.366702
     78          1           0       -0.769104   -3.736307   -2.553362
     79          1           0       -0.657282    4.988301   -1.937851
     80          1           0       -0.469671    3.657496   -3.129778
     81          1           0        0.297657    5.241690   -3.406960
     82          1           0        2.285626    6.538342    1.547072
     83          1           0        1.543348    8.038750    0.856401
     84          1           0        3.210166    7.486854    0.368262
     85          1           0        5.871916    4.577591    2.838825
     86          1           0        8.144574    3.186833    1.530736
     87          1           0        6.381360    5.877407    0.424939
     88          1           0        7.994934    5.454888    1.059027
     89          1           0        6.965351    6.366874    2.120142
     90          1           0        6.792840    2.332868    4.083135
     91          1           0        7.511651    3.721634    4.081525
     92          1           0        9.628898    2.999711    4.512841
     93          1           0        9.399007    1.846989    3.051886
     94          1           0        8.960436    1.389440    4.641846
     95          1           0        9.036813   -2.208078    0.655901
     96          1           0        8.159794   -3.384088    1.710142
     97          1           0        8.432394   -1.824049    2.231882
     98          1           0        4.759191   -3.666055   -2.608069
     99          1           0        1.880012   -6.729714   -2.853627
    100          1           0        1.875159   -6.584644   -1.043243
    101          1           0        3.177750   -7.428221   -1.940066
    102          1           0       -1.857559   -5.135369    1.557443
    103          1           0       -2.922794   -5.775547    0.286078
    104          1           0       -3.726336   -3.115922    0.683728
    105          1           0       -5.271258   -6.152233    2.986083
    106          1           0       -4.387772   -4.920802    4.102100
    107          1           0       -3.536313   -6.100838    3.102029
    108          1           0       -6.219869   -3.785029    3.230119
    109          1           0       -6.081195   -3.128777    1.594853
    110          1           0       -4.954124   -1.302788    2.071561
    111          1           0       -3.876348   -1.933915    3.097440
    112          1           0       -4.672118   -1.023653    4.767086
    113          1           0       -5.997656   -2.187255    4.705674
    114          1           0       -6.117112    0.622672    3.788867
    115          1           0       -7.067457    1.070555    5.693463
    116          1           0       -6.956793   -0.585397    6.334819
    117          1           0       -8.346420   -0.208470    5.431558
    118          1           0       -8.552330   -1.148273    3.617050
    119          1           0       -7.419684   -1.321888    2.329603
    120          1           0       -8.103942    1.487643    3.244919
    121          1           0       -9.458949    0.480084    2.356795
    122          1           0       -7.045061    0.624083    0.804775
    123          1           0       -7.498248    2.242898    1.246747
    124          1           0       -9.991792    1.335787    0.380297
    125          1           0       -8.509252   -0.218549   -1.624306
    126          1           0       -9.926698   -0.745520   -0.607866
    127          1           0       -8.258062   -0.884943   -0.068296
    128          1           0       -8.815233    1.945324   -2.031783
    129          1           0       -7.695473    2.592533   -0.818380
    130          1           0       -9.250822    4.363456   -0.775311
    131          1           0      -10.456034    3.394408   -0.032099
    132          1           0      -10.222370    3.707603   -2.889227
    133          1           0      -11.498961    4.214454   -1.974559
    134          1           0      -11.105392    1.205205   -1.793997
    135          1           0      -11.150233    0.528134   -3.714068
    136          1           0      -10.920740    2.166256   -4.347285
    137          1           0      -12.593221    1.632085   -4.027016
    138          1           0      -13.826556    2.378153   -2.309298
    139          1           0      -13.112524    2.942050   -0.810347
    140          1           0      -13.144420    1.310325   -0.950173
 ---------------------------------------------------------------------

 SCF Done:  E(RZINDO/S) =  -474.451076821     A.U. after   19 cycles

 Excitation energies and oscillator strengths:

 Excited State   1:      Singlet-A      1.2616 eV  982.76 nm  f=0.5986  <S**2>=0.000
     175 ->178        -0.18560
     176 ->177         0.66525
 This state for optimization and/or second-order correction.
 Total Energy, E(CIS/TDA) =  -474.404714270
 Copying the excited state density for this state as the 1-particle RhoCI density.

 Excited State   2:      Singlet-A      1.9199 eV  645.77 nm  f=0.0285  <S**2>=0.000
     175 ->177         0.53209
     176 ->178         0.44113

 Excited State   3:      Singlet-A      2.8255 eV  438.80 nm  f=0.0302  <S**2>=0.000
     168 ->177         0.29950
     168 ->179        -0.30255
     168 ->180        -0.10482
     168 ->182         0.13812
     168 ->185        -0.14108
     168 ->187         0.14294
     169 ->177         0.19365
     169 ->179        -0.19686
     171 ->177        -0.17451
     171 ->179         0.10546
     176 ->178         0.10057

 Excited State   4:      Singlet-A      2.9539 eV  419.73 nm  f=0.0054  <S**2>=0.000
     169 ->180        -0.10013
     170 ->177         0.16829
     170 ->178        -0.14876
     170 ->179         0.24983
     170 ->180        -0.26819
     170 ->182         0.23238
     170 ->184        -0.11278
     170 ->185         0.23514
     173 ->177        -0.19064

 Excited State   5:      Singlet-A      3.0197 eV  410.58 nm  f=1.1079  <S**2>=0.000
     168 ->177        -0.10212
     171 ->177        -0.17609
     175 ->177        -0.38874
     176 ->178         0.49515

 The electronic state is 1-A.
 Alpha  occ. eigenvalues --   -1.87432  -1.80835  -1.79991  -1.73375  -1.72906
 Alpha  occ. eigenvalues --   -1.70934  -1.66459  -1.62626  -1.62486  -1.57410
 Alpha  occ. eigenvalues --   -1.54018  -1.51312  -1.49802  -1.47471  -1.45914
 Alpha  occ. eigenvalues --   -1.44131  -1.42943  -1.41910  -1.38901  -1.37600
 Alpha  occ. eigenvalues --   -1.36785  -1.35489  -1.32956  -1.30973  -1.27863
 Alpha  occ. eigenvalues --   -1.26737  -1.26185  -1.22908  -1.22342  -1.19463
 Alpha  occ. eigenvalues --   -1.18576  -1.16042  -1.15090  -1.14404  -1.13515
 Alpha  occ. eigenvalues --   -1.12617  -1.09805  -1.09225  -1.04969  -1.04363
 Alpha  occ. eigenvalues --   -1.01888  -1.00247  -0.99039  -0.98353  -0.98164
 Alpha  occ. eigenvalues --   -0.95775  -0.94518  -0.93541  -0.93203  -0.92184
 Alpha  occ. eigenvalues --   -0.91555  -0.90747  -0.89559  -0.87875  -0.86325
 Alpha  occ. eigenvalues --   -0.85528  -0.85133  -0.83597  -0.82320  -0.80049
 Alpha  occ. eigenvalues --   -0.79234  -0.78899  -0.77304  -0.76712  -0.76506
 Alpha  occ. eigenvalues --   -0.75937  -0.74993  -0.74071  -0.73720  -0.73032
 Alpha  occ. eigenvalues --   -0.72274  -0.71955  -0.71602  -0.70944  -0.70879
 Alpha  occ. eigenvalues --   -0.70242  -0.69145  -0.68764  -0.68317  -0.68043
 Alpha  occ. eigenvalues --   -0.67576  -0.67092  -0.66705  -0.65802  -0.65321
 Alpha  occ. eigenvalues --   -0.65031  -0.64784  -0.64614  -0.63888  -0.63785
 Alpha  occ. eigenvalues --   -0.63640  -0.63101  -0.62748  -0.62506  -0.62431
 Alpha  occ. eigenvalues --   -0.62074  -0.61483  -0.61064  -0.60782  -0.60678
 Alpha  occ. eigenvalues --   -0.59799  -0.59482  -0.59243  -0.58924  -0.58377
 Alpha  occ. eigenvalues --   -0.58058  -0.57857  -0.57246  -0.56822  -0.55925
 Alpha  occ. eigenvalues --   -0.55816  -0.55543  -0.55164  -0.54986  -0.54504
 Alpha  occ. eigenvalues --   -0.53999  -0.53534  -0.52994  -0.52476  -0.52225
 Alpha  occ. eigenvalues --   -0.52116  -0.51845  -0.51819  -0.51562  -0.51536
 Alpha  occ. eigenvalues --   -0.51283  -0.51131  -0.50552  -0.50096  -0.49760
 Alpha  occ. eigenvalues --   -0.49732  -0.49213  -0.49136  -0.48919  -0.48769
 Alpha  occ. eigenvalues --   -0.48582  -0.48404  -0.47932  -0.47605  -0.47442
 Alpha  occ. eigenvalues --   -0.47235  -0.47080  -0.46954  -0.46444  -0.46107
 Alpha  occ. eigenvalues --   -0.45843  -0.45629  -0.45463  -0.45343  -0.45076
 Alpha  occ. eigenvalues --   -0.44862  -0.44427  -0.44189  -0.43849  -0.43733
 Alpha  occ. eigenvalues --   -0.43337  -0.43310  -0.42134  -0.42053  -0.41768
 Alpha  occ. eigenvalues --   -0.41493  -0.41312  -0.40906  -0.39295  -0.38199
 Alpha  occ. eigenvalues --   -0.37942  -0.36949  -0.35089  -0.34918  -0.34707
 Alpha  occ. eigenvalues --   -0.33762  -0.32989  -0.31489  -0.30920  -0.27160
 Alpha  occ. eigenvalues --   -0.22000
 Alpha virt. eigenvalues --   -0.08769  -0.02415  -0.00430   0.01158   0.01458
 Alpha virt. eigenvalues --    0.02073   0.02125   0.02834   0.04478   0.05518
 Alpha virt. eigenvalues --    0.06079   0.07139   0.07614   0.07947   0.08002

 Mulliken charges:
               1
     1  Mg   0.422249
     2  C   -0.032746
     3  C   -0.072227
     4  C   -0.067831
     5  C   -0.076013
     6  N   -0.296323
     7  C    0.140371
     8  C    0.012790
     9  C   -0.000323
    10  C    0.101883
    11  C   -0.054463
    12  C   -0.020936
    13  C    0.004543
    14  C    0.472192
    15  O   -0.516068
    16  O   -0.257752
    17  N   -0.313722
    18  C    0.084585
    19  C    0.020147
    20  C   -0.062775
    21  C    0.106735
    22  C   -0.044774
    23  C    0.321464
    24  O   -0.537996
    25  C   -0.026078
    26  N   -0.262428
    27  C    0.085808
    28  C    0.003650
    29  C    0.003491
    30  C    0.160939
    31  C   -0.054152
    32  C   -0.049188
    33  C   -0.053533
    34  N   -0.344404
    35  C    0.112038
    36  C    0.058486
    37  C   -0.040920
    38  C    0.135206
    39  C   -0.029536
    40  C    0.347621
    41  O   -0.493965
    42  C    0.062793
    43  C    0.476094
    44  O   -0.513289
    45  O   -0.282849
    46  C    0.069237
    47  C    0.109722
    48  C   -0.090511
    49  C   -0.027269
    50  C   -0.048774
    51  C   -0.024850
    52  C   -0.026345
    53  C   -0.036965
    54  C   -0.003681
    55  C   -0.063040
    56  C   -0.028191
    57  C   -0.047264
    58  C   -0.043036
    59  C   -0.014795
    60  C   -0.064404
    61  C   -0.027568
    62  C   -0.039419
    63  C   -0.033369
    64  C   -0.019928
    65  C   -0.066746
    66  C   -0.057727
    67  H    0.027932
    68  H    0.032902
    69  H    0.030731
    70  H    0.023830
    71  H    0.030962
    72  H    0.026543
    73  H    0.017375
    74  H    0.036745
    75  H    0.021482
    76  H    0.051933
    77  H    0.037358
    78  H    0.035454
    79  H    0.036185
    80  H    0.021951
    81  H    0.037848
    82  H    0.028861
    83  H    0.043223
    84  H    0.045879
    85  H    0.036221
    86  H    0.026640
    87  H    0.031481
    88  H    0.019056
    89  H    0.021716
    90  H    0.024022
    91  H   -0.000015
    92  H    0.033879
    93  H    0.021903
    94  H    0.019390
    95  H    0.040926
    96  H    0.037608
    97  H    0.013914
    98  H    0.055317
    99  H    0.021745
   100  H    0.077585
   101  H    0.034654
   102  H    0.062856
   103  H    0.043351
   104  H    0.021667
   105  H    0.034443
   106  H    0.034317
   107  H    0.017782
   108  H    0.024654
   109  H    0.020054
   110  H    0.014841
   111  H    0.014371
   112  H    0.017884
   113  H    0.011979
   114  H    0.019185
   115  H    0.019582
   116  H    0.022244
   117  H    0.017370
   118  H    0.012358
   119  H    0.026235
   120  H    0.033073
   121  H    0.027539
   122  H    0.019599
   123  H    0.016169
   124  H    0.024956
   125  H    0.020568
   126  H    0.021453
   127  H    0.013134
   128  H    0.020781
   129  H    0.019993
   130  H    0.014144
   131  H    0.017672
   132  H    0.008274
   133  H    0.010072
   134  H    0.022000
   135  H    0.023517
   136  H    0.022015
   137  H    0.021956
   138  H    0.030509
   139  H    0.013665
   140  H    0.016632
 Sum of Mulliken charges =  -0.00000

 Dipole moment (field-independent basis, Debye):
    X=              2.7666    Y=              1.7206    Z=             -0.5992  Tot=              3.3126
 N-N= 4.435306424936D+03 E-N= 0.000000000000D+00  KE=-9.545306680988D+03
 Leave Link  601 at Wed Apr 27 21:53:16 2022, MaxMem=  6710886400 cpu:               0.7 elap:               0.0
 (Enter /sw/apps/gaussian-16.0/g16/l9999.exe)
 1\1\GINC-BP1-COMPUTE142\SP\RZINDO CIS\STO-3G\C55H74Mg1N4O6\OF15641\27-
 Apr-2022\0\\#p ZINDO=(nstates=5)\\step_1301_chromophore_20 ZINDO\\0,1\
 Mg,0,5.184,57.097,41.926\C,0,5.249,53.612,41.469\C,0,8.132,57.336,40.2
 7\C,0,4.652,60.5,41.752\C,0,1.902,56.67,43.241\N,0,6.384,55.646,40.892
 \C,0,6.215,54.276,40.776\C,0,7.365,53.705,39.909\C,0,8.445,54.756,40.0
 66\C,0,7.631,56.011,40.427\C,0,9.522,54.429,41.106\C,0,6.842,53.417,38
 .46\C,0,7.358,52.085,37.826\C,0,6.501,51.572,36.688\O,0,5.612,50.715,3

 Normal termination of Gaussian 16 at Wed Apr 27 21:53:16 2022.
