 Gaussian 16, Revision A.03,
 Gaussian 16:  ES64L-G16RevA.03 25-Dec-2016

 ------------------------------
 #p blyp/Def2SVP td=(nstates=5)
 ------------------------------

 --------------------------------------------------
 step_1501_chromophore_5 TDDFT with blyp functional
 --------------------------------------------------
 Symbolic Z-matrix:
 Charge =  0 Multiplicity = 1

                         Standard orientation:
 ---------------------------------------------------------------------
 Center     Atomic      Atomic             Coordinates (Angstroms)
 Number     Number       Type             X           Y           Z
 ---------------------------------------------------------------------
      1         12           0        5.338017    0.537161   -0.342544
      2          6           0        3.835611   -2.772940   -0.457350
      3          6           0        2.709491    1.579682   -2.419313
      4          6           0        6.332792    3.621048    0.158121
      5          6           0        7.198710   -0.584154    2.339530
      6          7           0        3.552377   -0.476792   -1.338062
      7          6           0        3.077168   -1.819447   -1.164463
      8          6           0        1.755536   -1.982937   -1.815478
      9          6           0        1.726848   -0.709924   -2.730125
     10          6           0        2.732255    0.238388   -2.175548
     11          6           0        1.838095   -0.889112   -4.288839
     12          6           0        0.554004   -2.221592   -0.827077
     13          6           0       -0.346785   -3.469312   -0.997348
     14          6           0       -1.863143   -3.220442   -1.015829
     15          8           0       -2.536222   -3.262821   -2.091482
     16          8           0       -2.413533   -3.028934    0.228580
     17          7           0        4.867806    2.284515   -1.330605
     18          6           0        3.754852    2.515541   -2.098593
     19          6           0        3.809182    3.924360   -2.484182
     20          6           0        4.888564    4.563003   -1.763916
     21          6           0        5.438649    3.483132   -0.892399
     22          6           0        2.778921    4.592076   -3.415441
     23          6           0        5.218899    5.977732   -1.837821
     24          8           0        4.642171    6.670992   -2.648613
     25          6           0        6.324970    6.546799   -0.992911
     26          7           0        6.617430    1.424102    1.118402
     27          6           0        6.926237    2.688052    1.036537
     28          6           0        8.099823    3.052967    2.117914
     29          6           0        8.233981    1.706835    2.829949
     30          6           0        7.318473    0.783864    2.064031
     31          6           0        9.476813    3.554716    1.505232
     32          6           0        8.075041    1.621735    4.340987
     33          6           0        9.132130    0.770942    5.134011
     34          7           0        5.657634   -1.390203    0.603008
     35          6           0        6.482233   -1.608446    1.639364
     36          6           0        6.527299   -3.037394    1.862431
     37          6           0        5.462624   -3.512640    1.096242
     38          6           0        4.954689   -2.448973    0.321326
     39          6           0        7.375340   -3.642773    2.948687
     40          6           0        4.650613   -4.698033    0.672360
     41          8           0        4.698450   -5.854792    1.034008
     42          6           0        3.496121   -4.164950   -0.159637
     43          6           0        3.612505   -4.866719   -1.516644
     44          8           0        2.730700   -5.598775   -2.011517
     45          8           0        4.676663   -4.354425   -2.201839
     46          6           0        4.909468   -4.881921   -3.497171
     47          6           0       -3.805252   -2.497183   -0.003933
     48          6           0       -3.879585   -1.114159    0.558372
     49          6           0       -4.807331   -0.653568    1.456141
     50          6           0       -6.119544   -1.230808    1.929230
     51          6           0       -4.409012    0.681080    2.165281
     52          6           0       -4.684232    1.963485    1.404304
     53          6           0       -6.042615    2.636497    1.739541
     54          6           0       -7.025888    2.539184    0.541629
     55          6           0       -6.804088    3.574758   -0.594983
     56          6           0       -8.513883    2.352955    0.946889
     57          6           0       -9.255808    1.139885    0.337484
     58          6           0      -10.017813    0.144696    1.369093
     59          6           0      -11.361342   -0.329171    0.761871
     60          6           0      -11.074915   -1.447039   -0.343857
     61          6           0      -12.447338   -0.812762    1.844979
     62          6           0      -13.724515    0.075019    1.845192
     63          6           0      -14.591418   -0.183575    0.631394
     64          6           0      -14.879803    1.085715   -0.177850
     65          6           0      -16.339856    1.736498    0.042504
     66          6           0      -14.760935    0.749121   -1.721667
     67          1           0        1.835060    1.935313   -2.969536
     68          1           0        6.749194    4.626512    0.256266
     69          1           0        7.876518   -0.984825    3.096293
     70          1           0        1.869465   -2.892434   -2.405054
     71          1           0        0.737140   -0.254158   -2.693731
     72          1           0        2.706079   -0.385717   -4.714972
     73          1           0        0.899391   -0.567282   -4.739421
     74          1           0        1.951103   -1.970259   -4.357289
     75          1           0       -0.118781   -1.365934   -0.766060
     76          1           0        1.021834   -2.300858    0.153216
     77          1           0       -0.066150   -4.109411   -0.160954
     78          1           0       -0.061657   -3.922342   -1.947110
     79          1           0        2.576914    5.608786   -3.079797
     80          1           0        1.896058    3.957976   -3.498869
     81          1           0        3.312107    4.667983   -4.363386
     82          1           0        7.258232    5.998437   -1.121554
     83          1           0        6.034265    6.648392    0.052099
     84          1           0        6.448416    7.564770   -1.360974
     85          1           0        7.854972    3.737557    2.929548
     86          1           0        9.237784    1.351388    2.597640
     87          1           0       10.267709    3.791863    2.216035
     88          1           0        9.346846    4.415955    0.849012
     89          1           0        9.744898    2.707889    0.874090
     90          1           0        7.076547    1.253121    4.575385
     91          1           0        8.128446    2.626184    4.759576
     92          1           0        9.977901    0.586585    4.472872
     93          1           0        8.674563   -0.182962    5.399691
     94          1           0        9.494075    1.311123    6.009059
     95          1           0        7.443542   -4.723821    2.823128
     96          1           0        7.007164   -3.347584    3.931459
     97          1           0        8.382604   -3.281259    2.743661
     98          1           0        2.486814   -4.290069    0.233544
     99          1           0        5.400312   -5.836316   -3.304392
    100          1           0        5.555494   -4.330662   -4.179292
    101          1           0        4.073369   -5.065734   -4.172222
    102          1           0       -4.528317   -3.154962    0.480148
    103          1           0       -4.253014   -2.234387   -0.962806
    104          1           0       -3.065437   -0.412730    0.376019
    105          1           0       -6.312784   -2.256529    1.613502
    106          1           0       -6.923772   -0.563784    1.617617
    107          1           0       -5.958715   -1.257450    3.006718
    108          1           0       -3.358455    0.855294    2.396917
    109          1           0       -4.814089    0.693363    3.177906
    110          1           0       -4.659882    1.674975    0.354170
    111          1           0       -3.868790    2.678265    1.522734
    112          1           0       -5.775688    3.674681    1.934721
    113          1           0       -6.401391    2.236383    2.687710
    114          1           0       -6.758499    1.601593    0.053846
    115          1           0       -5.838986    4.061697   -0.449457
    116          1           0       -7.555648    4.360202   -0.520543
    117          1           0       -7.002755    3.208604   -1.601627
    118          1           0       -9.124997    3.215685    0.682538
    119          1           0       -8.534141    2.234621    2.029482
    120          1           0       -8.537235    0.588444   -0.268158
    121          1           0       -9.970216    1.625111   -0.327956
    122          1           0      -10.202761    0.691032    2.293321
    123          1           0       -9.273171   -0.635946    1.522926
    124          1           0      -11.807109    0.455583    0.151859
    125          1           0      -11.846597   -2.207253   -0.226935
    126          1           0      -10.141012   -1.968522   -0.135023
    127          1           0      -11.224649   -1.097089   -1.365533
    128          1           0      -11.874863   -0.725300    2.768523
    129          1           0      -12.926703   -1.781888    1.704928
    130          1           0      -13.327276    1.071392    2.039603
    131          1           0      -14.278905   -0.197094    2.743150
    132          1           0      -15.525424   -0.573055    1.034845
    133          1           0      -14.115342   -0.984890    0.066447
    134          1           0      -14.141102    1.839357    0.095045
    135          1           0      -16.311324    2.156924    1.047966
    136          1           0      -17.109872    0.983975   -0.125815
    137          1           0      -16.618954    2.624045   -0.524666
    138          1           0      -13.843255    0.172228   -1.836961
    139          1           0      -14.618127    1.612301   -2.371597
    140          1           0      -15.674752    0.250932   -2.044800
 ---------------------------------------------------------------------

 SCF Done:  E(RB-LYP) =  -3007.32803779     A.U. after   21 cycles

 Excitation energies and oscillator strengths:

 Excited State   1:      Singlet-A      1.8163 eV  682.63 nm  f=0.2787  <S**2>=0.000
     245 -> 248       -0.19958
     246 -> 247        0.67566
     246 <- 247       -0.14210
 This state for optimization and/or second-order correction.
 Total Energy, E(TD-HF/TD-DFT) =  -3007.26129054
 Copying the excited state density for this state as the 1-particle RhoCI density.

 Excited State   2:      Singlet-A      1.8970 eV  653.58 nm  f=0.0237  <S**2>=0.000
     242 -> 247        0.45169
     243 -> 247       -0.20499
     244 -> 247       -0.17162
     245 -> 247       -0.44714
     246 -> 248       -0.11863

 Excited State   3:      Singlet-A      1.9210 eV  645.42 nm  f=0.0069  <S**2>=0.000
     242 -> 247        0.12778
     243 -> 247        0.66754
     244 -> 247       -0.14376

 Excited State   4:      Singlet-A      1.9262 eV  643.68 nm  f=0.0012  <S**2>=0.000
     242 -> 247        0.18466
     244 -> 247        0.66688
     245 -> 247       -0.10492

 Excited State   5:      Singlet-A      2.0703 eV  598.87 nm  f=0.0371  <S**2>=0.000
     242 -> 247        0.48029
     245 -> 247        0.43812
     246 -> 248        0.23707

 The electronic state is 1-A.
 Alpha  occ. eigenvalues --  -46.27955 -18.83771 -18.83634 -18.77363 -18.76455
 Alpha  occ. eigenvalues --  -18.75894 -18.75234 -14.04004 -14.03200 -14.01683
 Alpha  occ. eigenvalues --  -14.00647 -10.05066 -10.04447  -9.99911  -9.99241
 Alpha  occ. eigenvalues --   -9.98176  -9.97686  -9.97668  -9.96769  -9.96761
 Alpha  occ. eigenvalues --   -9.96752  -9.96482  -9.96247  -9.95370  -9.95085
 Alpha  occ. eigenvalues --   -9.94429  -9.94416  -9.94141  -9.94113  -9.93887
 Alpha  occ. eigenvalues --   -9.93824  -9.93712  -9.93608  -9.93596  -9.93508
 Alpha  occ. eigenvalues --   -9.93341  -9.93306  -9.93238  -9.93216  -9.93134
 Alpha  occ. eigenvalues --   -9.93121  -9.92809  -9.92736  -9.92708  -9.92551
 Alpha  occ. eigenvalues --   -9.92529  -9.92441  -9.92371  -9.92030  -9.91987
 Alpha  occ. eigenvalues --   -9.91913  -9.91877  -9.91817  -9.91529  -9.91294
 Alpha  occ. eigenvalues --   -9.91188  -9.91136  -9.91134  -9.91074  -9.91065
 Alpha  occ. eigenvalues --   -9.91046  -9.91046  -9.90767  -9.90762  -9.90713
 Alpha  occ. eigenvalues --   -9.90692  -2.92443  -1.72886  -1.72329  -1.72146
 Alpha  occ. eigenvalues --   -0.99466  -0.97399  -0.92172  -0.92101  -0.89871
 Alpha  occ. eigenvalues --   -0.88570  -0.87938  -0.87704  -0.85230  -0.84399
 Alpha  occ. eigenvalues --   -0.77289  -0.73714  -0.73447  -0.72711  -0.72492
 Alpha  occ. eigenvalues --   -0.72041  -0.71644  -0.70959  -0.70290  -0.70032
 Alpha  occ. eigenvalues --   -0.69276  -0.69073  -0.68388  -0.67840  -0.67676
 Alpha  occ. eigenvalues --   -0.66663  -0.66357  -0.65602  -0.65477  -0.64987
 Alpha  occ. eigenvalues --   -0.63786  -0.62922  -0.62772  -0.61883  -0.61520
 Alpha  occ. eigenvalues --   -0.60529  -0.60018  -0.59617  -0.59282  -0.58881
 Alpha  occ. eigenvalues --   -0.58308  -0.57661  -0.57306  -0.55804  -0.55379
 Alpha  occ. eigenvalues --   -0.54312  -0.53715  -0.53557  -0.52364  -0.52021
 Alpha  occ. eigenvalues --   -0.51960  -0.51226  -0.50972  -0.50577  -0.50414
 Alpha  occ. eigenvalues --   -0.49976  -0.49432  -0.49391  -0.48837  -0.47252
 Alpha  occ. eigenvalues --   -0.46412  -0.46204  -0.46156  -0.45805  -0.44548
 Alpha  occ. eigenvalues --   -0.44227  -0.43883  -0.43434  -0.43234  -0.42858
 Alpha  occ. eigenvalues --   -0.42720  -0.42408  -0.41625  -0.41553  -0.41325
 Alpha  occ. eigenvalues --   -0.41070  -0.40821  -0.40607  -0.40283  -0.40133
 Alpha  occ. eigenvalues --   -0.40030  -0.39891  -0.39768  -0.39620  -0.39360
 Alpha  occ. eigenvalues --   -0.39058  -0.38931  -0.38740  -0.38486  -0.38353
 Alpha  occ. eigenvalues --   -0.38271  -0.38181  -0.37859  -0.37722  -0.37516
 Alpha  occ. eigenvalues --   -0.37242  -0.37155  -0.36976  -0.36794  -0.36560
 Alpha  occ. eigenvalues --   -0.36234  -0.36064  -0.35956  -0.35913  -0.35660
 Alpha  occ. eigenvalues --   -0.35629  -0.35223  -0.35137  -0.34999  -0.34931
 Alpha  occ. eigenvalues --   -0.34811  -0.34674  -0.34507  -0.34427  -0.34348
 Alpha  occ. eigenvalues --   -0.33950  -0.33718  -0.33668  -0.33438  -0.33259
 Alpha  occ. eigenvalues --   -0.33001  -0.32733  -0.32660  -0.32516  -0.32434
 Alpha  occ. eigenvalues --   -0.32231  -0.31985  -0.31850  -0.31591  -0.31473
 Alpha  occ. eigenvalues --   -0.31331  -0.31274  -0.31046  -0.30810  -0.30722
 Alpha  occ. eigenvalues --   -0.30579  -0.30503  -0.30393  -0.30337  -0.30129
 Alpha  occ. eigenvalues --   -0.29949  -0.29634  -0.29451  -0.29200  -0.29034
 Alpha  occ. eigenvalues --   -0.28786  -0.28753  -0.28531  -0.28315  -0.28281
 Alpha  occ. eigenvalues --   -0.28204  -0.27627  -0.27480  -0.26760  -0.26312
 Alpha  occ. eigenvalues --   -0.26095  -0.25793  -0.25720  -0.25713  -0.25437
 Alpha  occ. eigenvalues --   -0.25123  -0.24918  -0.24898  -0.24158  -0.24046
 Alpha  occ. eigenvalues --   -0.23443  -0.22846  -0.21673  -0.21476  -0.20708
 Alpha  occ. eigenvalues --   -0.20276  -0.18905  -0.18826  -0.18765  -0.17605
 Alpha  occ. eigenvalues --   -0.16133
 Alpha virt. eigenvalues --   -0.11778  -0.07651  -0.06204  -0.04815  -0.04238
 Alpha virt. eigenvalues --   -0.03644  -0.02305  -0.02099  -0.01930  -0.00144
 Alpha virt. eigenvalues --    0.00585   0.01057   0.02132   0.02302   0.02735

 Mulliken charges:
               1
     1  Mg   0.671545
     2  C    0.000581
     3  C   -0.073045
     4  C   -0.031038
     5  C   -0.063836
     6  N   -0.235355
     7  C   -0.111096
     8  C    0.050270
     9  C   -0.037621
    10  C    0.086068
    11  C    0.135305
    12  C    0.109041
    13  C    0.164781
    14  C    0.078249
    15  O   -0.232862
    16  O   -0.258337
    17  N   -0.330028
    18  C    0.142972
    19  C   -0.172413
    20  C    0.071027
    21  C    0.149083
    22  C    0.199056
    23  C   -0.135841
    24  O   -0.158354
    25  C    0.148045
    26  N   -0.178811
    27  C   -0.012398
    28  C    0.022827
    29  C    0.052013
    30  C   -0.005611
    31  C    0.093249
    32  C    0.094335
    33  C    0.057560
    34  N   -0.167123
    35  C    0.063213
    36  C   -0.216823
    37  C    0.077218
    38  C    0.044184
    39  C    0.184905
    40  C   -0.043317
    41  O   -0.115704
    42  C    0.100454
    43  C    0.115051
    44  O   -0.191076
    45  O   -0.242726
    46  C    0.221068
    47  C    0.333375
    48  C   -0.091824
    49  C   -0.167054
    50  C    0.152894
    51  C    0.101170
    52  C    0.047662
    53  C    0.124351
    54  C   -0.084219
    55  C    0.119403
    56  C    0.110005
    57  C    0.024414
    58  C    0.106446
    59  C   -0.093860
    60  C    0.086705
    61  C    0.092425
    62  C    0.030654
    63  C    0.147360
    64  C   -0.069683
    65  C    0.073391
    66  C    0.076398
    67  H   -0.055442
    68  H   -0.090180
    69  H   -0.075570
    70  H   -0.011715
    71  H   -0.036223
    72  H    0.000865
    73  H    0.003004
    74  H   -0.014402
    75  H   -0.012555
    76  H   -0.020515
    77  H    0.004295
    78  H    0.006627
    79  H    0.014649
    80  H   -0.017052
    81  H    0.004682
    82  H    0.018725
    83  H    0.016580
    84  H   -0.020074
    85  H   -0.028806
    86  H   -0.033192
    87  H    0.005322
    88  H   -0.003970
    89  H   -0.006349
    90  H   -0.016663
    91  H   -0.027976
    92  H   -0.011349
    93  H    0.011008
    94  H   -0.003386
    95  H    0.001077
    96  H    0.017944
    97  H   -0.007903
    98  H   -0.001475
    99  H    0.007127
   100  H    0.007902
   101  H    0.011599
   102  H   -0.010172
   103  H    0.029806
   104  H   -0.039711
   105  H   -0.016479
   106  H    0.028127
   107  H    0.001163
   108  H   -0.036026
   109  H   -0.043148
   110  H   -0.030781
   111  H   -0.039096
   112  H   -0.040735
   113  H   -0.036780
   114  H   -0.025958
   115  H   -0.014147
   116  H   -0.031594
   117  H   -0.013030
   118  H   -0.034023
   119  H   -0.043902
   120  H   -0.024276
   121  H   -0.032934
   122  H   -0.025386
   123  H   -0.014015
   124  H   -0.022874
   125  H   -0.029834
   126  H   -0.015784
   127  H   -0.003783
   128  H   -0.040308
   129  H   -0.023933
   130  H   -0.027023
   131  H   -0.038555
   132  H   -0.036673
   133  H   -0.028336
   134  H   -0.026015
   135  H   -0.019855
   136  H   -0.003934
   137  H   -0.015145
   138  H   -0.016853
   139  H   -0.023165
   140  H   -0.010142
 Sum of Mulliken charges =  -0.00000

 Dipole moment (field-independent basis, Debye):
    X=              2.9649    Y=              3.8452    Z=              2.7723  Tot=              5.5912
 Quadrupole moment (field-independent basis, Debye-Ang):
   XX=           -347.5559   YY=           -464.9838   ZZ=           -397.7009
   XY=              9.0760   XZ=              5.1879   YZ=             18.9495

 Normal termination of Gaussian 16 at Thu Apr 28 09:11:40 2022.
