 Gaussian 16, Revision A.03,
 Gaussian 16:  ES64L-G16RevA.03 25-Dec-2016

 -----------------------------------
 #p cam-b3lyp/Def2SVP td=(nstates=5)
 -----------------------------------

 -------------------------------------------------------
 step_1501_chromophore_5 TDDFT with cam-b3lyp functional
 -------------------------------------------------------
 Symbolic Z-matrix:
 Charge =  0 Multiplicity = 1

                         Standard orientation:
 ---------------------------------------------------------------------
 Center     Atomic      Atomic             Coordinates (Angstroms)
 Number     Number       Type             X           Y           Z
 ---------------------------------------------------------------------
      1         12           0        5.338017    0.537161   -0.342544
      2          6           0        3.835611   -2.772940   -0.457350
      3          6           0        2.709491    1.579682   -2.419313
      4          6           0        6.332792    3.621048    0.158121
      5          6           0        7.198710   -0.584154    2.339530
      6          7           0        3.552377   -0.476792   -1.338062
      7          6           0        3.077168   -1.819447   -1.164463
      8          6           0        1.755536   -1.982937   -1.815478
      9          6           0        1.726848   -0.709924   -2.730125
     10          6           0        2.732255    0.238388   -2.175548
     11          6           0        1.838095   -0.889112   -4.288839
     12          6           0        0.554004   -2.221592   -0.827077
     13          6           0       -0.346785   -3.469312   -0.997348
     14          6           0       -1.863143   -3.220442   -1.015829
     15          8           0       -2.536222   -3.262821   -2.091482
     16          8           0       -2.413533   -3.028934    0.228580
     17          7           0        4.867806    2.284515   -1.330605
     18          6           0        3.754852    2.515541   -2.098593
     19          6           0        3.809182    3.924360   -2.484182
     20          6           0        4.888564    4.563003   -1.763916
     21          6           0        5.438649    3.483132   -0.892399
     22          6           0        2.778921    4.592076   -3.415441
     23          6           0        5.218899    5.977732   -1.837821
     24          8           0        4.642171    6.670992   -2.648613
     25          6           0        6.324970    6.546799   -0.992911
     26          7           0        6.617430    1.424102    1.118402
     27          6           0        6.926237    2.688052    1.036537
     28          6           0        8.099823    3.052967    2.117914
     29          6           0        8.233981    1.706835    2.829949
     30          6           0        7.318473    0.783864    2.064031
     31          6           0        9.476813    3.554716    1.505232
     32          6           0        8.075041    1.621735    4.340987
     33          6           0        9.132130    0.770942    5.134011
     34          7           0        5.657634   -1.390203    0.603008
     35          6           0        6.482233   -1.608446    1.639364
     36          6           0        6.527299   -3.037394    1.862431
     37          6           0        5.462624   -3.512640    1.096242
     38          6           0        4.954689   -2.448973    0.321326
     39          6           0        7.375340   -3.642773    2.948687
     40          6           0        4.650613   -4.698033    0.672360
     41          8           0        4.698450   -5.854792    1.034008
     42          6           0        3.496121   -4.164950   -0.159637
     43          6           0        3.612505   -4.866719   -1.516644
     44          8           0        2.730700   -5.598775   -2.011517
     45          8           0        4.676663   -4.354425   -2.201839
     46          6           0        4.909468   -4.881921   -3.497171
     47          6           0       -3.805252   -2.497183   -0.003933
     48          6           0       -3.879585   -1.114159    0.558372
     49          6           0       -4.807331   -0.653568    1.456141
     50          6           0       -6.119544   -1.230808    1.929230
     51          6           0       -4.409012    0.681080    2.165281
     52          6           0       -4.684232    1.963485    1.404304
     53          6           0       -6.042615    2.636497    1.739541
     54          6           0       -7.025888    2.539184    0.541629
     55          6           0       -6.804088    3.574758   -0.594983
     56          6           0       -8.513883    2.352955    0.946889
     57          6           0       -9.255808    1.139885    0.337484
     58          6           0      -10.017813    0.144696    1.369093
     59          6           0      -11.361342   -0.329171    0.761871
     60          6           0      -11.074915   -1.447039   -0.343857
     61          6           0      -12.447338   -0.812762    1.844979
     62          6           0      -13.724515    0.075019    1.845192
     63          6           0      -14.591418   -0.183575    0.631394
     64          6           0      -14.879803    1.085715   -0.177850
     65          6           0      -16.339856    1.736498    0.042504
     66          6           0      -14.760935    0.749121   -1.721667
     67          1           0        1.835060    1.935313   -2.969536
     68          1           0        6.749194    4.626512    0.256266
     69          1           0        7.876518   -0.984825    3.096293
     70          1           0        1.869465   -2.892434   -2.405054
     71          1           0        0.737140   -0.254158   -2.693731
     72          1           0        2.706079   -0.385717   -4.714972
     73          1           0        0.899391   -0.567282   -4.739421
     74          1           0        1.951103   -1.970259   -4.357289
     75          1           0       -0.118781   -1.365934   -0.766060
     76          1           0        1.021834   -2.300858    0.153216
     77          1           0       -0.066150   -4.109411   -0.160954
     78          1           0       -0.061657   -3.922342   -1.947110
     79          1           0        2.576914    5.608786   -3.079797
     80          1           0        1.896058    3.957976   -3.498869
     81          1           0        3.312107    4.667983   -4.363386
     82          1           0        7.258232    5.998437   -1.121554
     83          1           0        6.034265    6.648392    0.052099
     84          1           0        6.448416    7.564770   -1.360974
     85          1           0        7.854972    3.737557    2.929548
     86          1           0        9.237784    1.351388    2.597640
     87          1           0       10.267709    3.791863    2.216035
     88          1           0        9.346846    4.415955    0.849012
     89          1           0        9.744898    2.707889    0.874090
     90          1           0        7.076547    1.253121    4.575385
     91          1           0        8.128446    2.626184    4.759576
     92          1           0        9.977901    0.586585    4.472872
     93          1           0        8.674563   -0.182962    5.399691
     94          1           0        9.494075    1.311123    6.009059
     95          1           0        7.443542   -4.723821    2.823128
     96          1           0        7.007164   -3.347584    3.931459
     97          1           0        8.382604   -3.281259    2.743661
     98          1           0        2.486814   -4.290069    0.233544
     99          1           0        5.400312   -5.836316   -3.304392
    100          1           0        5.555494   -4.330662   -4.179292
    101          1           0        4.073369   -5.065734   -4.172222
    102          1           0       -4.528317   -3.154962    0.480148
    103          1           0       -4.253014   -2.234387   -0.962806
    104          1           0       -3.065437   -0.412730    0.376019
    105          1           0       -6.312784   -2.256529    1.613502
    106          1           0       -6.923772   -0.563784    1.617617
    107          1           0       -5.958715   -1.257450    3.006718
    108          1           0       -3.358455    0.855294    2.396917
    109          1           0       -4.814089    0.693363    3.177906
    110          1           0       -4.659882    1.674975    0.354170
    111          1           0       -3.868790    2.678265    1.522734
    112          1           0       -5.775688    3.674681    1.934721
    113          1           0       -6.401391    2.236383    2.687710
    114          1           0       -6.758499    1.601593    0.053846
    115          1           0       -5.838986    4.061697   -0.449457
    116          1           0       -7.555648    4.360202   -0.520543
    117          1           0       -7.002755    3.208604   -1.601627
    118          1           0       -9.124997    3.215685    0.682538
    119          1           0       -8.534141    2.234621    2.029482
    120          1           0       -8.537235    0.588444   -0.268158
    121          1           0       -9.970216    1.625111   -0.327956
    122          1           0      -10.202761    0.691032    2.293321
    123          1           0       -9.273171   -0.635946    1.522926
    124          1           0      -11.807109    0.455583    0.151859
    125          1           0      -11.846597   -2.207253   -0.226935
    126          1           0      -10.141012   -1.968522   -0.135023
    127          1           0      -11.224649   -1.097089   -1.365533
    128          1           0      -11.874863   -0.725300    2.768523
    129          1           0      -12.926703   -1.781888    1.704928
    130          1           0      -13.327276    1.071392    2.039603
    131          1           0      -14.278905   -0.197094    2.743150
    132          1           0      -15.525424   -0.573055    1.034845
    133          1           0      -14.115342   -0.984890    0.066447
    134          1           0      -14.141102    1.839357    0.095045
    135          1           0      -16.311324    2.156924    1.047966
    136          1           0      -17.109872    0.983975   -0.125815
    137          1           0      -16.618954    2.624045   -0.524666
    138          1           0      -13.843255    0.172228   -1.836961
    139          1           0      -14.618127    1.612301   -2.371597
    140          1           0      -15.674752    0.250932   -2.044800
 ---------------------------------------------------------------------

 SCF Done:  E(RCAM-B3LYP) =  -3007.11643018     A.U. after   19 cycles

 Excitation energies and oscillator strengths:

 Excited State   1:      Singlet-A      1.7355 eV  714.40 nm  f=0.3683  <S**2>=0.000
     245 -> 248        0.17973
     246 -> 247        0.68432
     245 <- 248        0.10406
 This state for optimization and/or second-order correction.
 Total Energy, E(TD-HF/TD-DFT) =  -3007.05265129
 Copying the excited state density for this state as the 1-particle RhoCI density.

 Excited State   2:      Singlet-A      2.2579 eV  549.11 nm  f=0.0710  <S**2>=0.000
     245 -> 247        0.61926
     246 -> 248       -0.32509

 Excited State   3:      Singlet-A      3.3263 eV  372.74 nm  f=0.0379  <S**2>=0.000
     242 -> 247        0.59352
     243 -> 247       -0.26714
     246 -> 248        0.22573

 Excited State   4:      Singlet-A      3.4141 eV  363.16 nm  f=0.3299  <S**2>=0.000
     241 -> 247       -0.11306
     243 -> 247        0.44901
     245 -> 247        0.22970
     246 -> 248        0.45903

 Excited State   5:      Singlet-A      3.5651 eV  347.77 nm  f=0.3621  <S**2>=0.000
     239 -> 247        0.14837
     240 -> 247        0.10209
     240 -> 249       -0.10612
     241 -> 247        0.26447
     241 -> 249        0.15533
     241 -> 250        0.12487
     242 -> 247       -0.28976
     243 -> 247       -0.29729
     245 -> 247        0.20774
     246 -> 248        0.30971

 The electronic state is 1-A.
 Alpha  occ. eigenvalues --  -46.89622 -19.26529 -19.26515 -19.20314 -19.19357
 Alpha  occ. eigenvalues --  -19.18998 -19.18740 -14.42993 -14.42050 -14.40382
 Alpha  occ. eigenvalues --  -14.38862 -10.40433 -10.39777 -10.35048 -10.34642
 Alpha  occ. eigenvalues --  -10.32539 -10.31920 -10.31712 -10.31676 -10.31332
 Alpha  occ. eigenvalues --  -10.31067 -10.30922 -10.30874 -10.29296 -10.29244
 Alpha  occ. eigenvalues --  -10.29183 -10.28639 -10.28366 -10.28030 -10.27897
 Alpha  occ. eigenvalues --  -10.27747 -10.27657 -10.27515 -10.27509 -10.27460
 Alpha  occ. eigenvalues --  -10.27457 -10.27386 -10.27364 -10.27360 -10.27301
 Alpha  occ. eigenvalues --  -10.27111 -10.26923 -10.26464 -10.26407 -10.26392
 Alpha  occ. eigenvalues --  -10.26324 -10.26307 -10.26193 -10.26075 -10.25992
 Alpha  occ. eigenvalues --  -10.25793 -10.25732 -10.25620 -10.25250 -10.25020
 Alpha  occ. eigenvalues --  -10.24922 -10.24854 -10.24825 -10.24819 -10.24732
 Alpha  occ. eigenvalues --  -10.24671 -10.24657 -10.24447 -10.24379 -10.24350
 Alpha  occ. eigenvalues --  -10.24312  -3.18007  -1.92929  -1.92459  -1.92299
 Alpha  occ. eigenvalues --   -1.17772  -1.15727  -1.10895  -1.10429  -1.07707
 Alpha  occ. eigenvalues --   -1.06419  -1.05698  -1.05162  -1.03057  -1.02042
 Alpha  occ. eigenvalues --   -0.94366  -0.90506  -0.90315  -0.89447  -0.89262
 Alpha  occ. eigenvalues --   -0.88815  -0.88310  -0.87517  -0.86688  -0.86537
 Alpha  occ. eigenvalues --   -0.86070  -0.85559  -0.84658  -0.83966  -0.83889
 Alpha  occ. eigenvalues --   -0.82798  -0.82459  -0.81618  -0.81302  -0.80825
 Alpha  occ. eigenvalues --   -0.79560  -0.78454  -0.78299  -0.77667  -0.76974
 Alpha  occ. eigenvalues --   -0.75893  -0.75374  -0.74922  -0.74561  -0.74112
 Alpha  occ. eigenvalues --   -0.73338  -0.72616  -0.72252  -0.70626  -0.70028
 Alpha  occ. eigenvalues --   -0.68901  -0.68316  -0.68239  -0.66534  -0.66306
 Alpha  occ. eigenvalues --   -0.65915  -0.65259  -0.65032  -0.64654  -0.64242
 Alpha  occ. eigenvalues --   -0.63801  -0.63423  -0.63366  -0.62770  -0.60964
 Alpha  occ. eigenvalues --   -0.59955  -0.59705  -0.59668  -0.59356  -0.58096
 Alpha  occ. eigenvalues --   -0.57753  -0.57187  -0.56764  -0.56502  -0.55979
 Alpha  occ. eigenvalues --   -0.55898  -0.55545  -0.54605  -0.54281  -0.54240
 Alpha  occ. eigenvalues --   -0.54069  -0.53472  -0.53428  -0.53219  -0.52970
 Alpha  occ. eigenvalues --   -0.52628  -0.52559  -0.52386  -0.52171  -0.52061
 Alpha  occ. eigenvalues --   -0.51480  -0.51387  -0.51184  -0.50916  -0.50682
 Alpha  occ. eigenvalues --   -0.50563  -0.50507  -0.50160  -0.50100  -0.49813
 Alpha  occ. eigenvalues --   -0.49701  -0.49595  -0.49346  -0.49131  -0.49001
 Alpha  occ. eigenvalues --   -0.48837  -0.48670  -0.48082  -0.48025  -0.47618
 Alpha  occ. eigenvalues --   -0.47606  -0.47441  -0.47339  -0.47076  -0.46986
 Alpha  occ. eigenvalues --   -0.46736  -0.46652  -0.46410  -0.46297  -0.46229
 Alpha  occ. eigenvalues --   -0.45741  -0.45524  -0.45381  -0.45249  -0.44940
 Alpha  occ. eigenvalues --   -0.44730  -0.44380  -0.44269  -0.44205  -0.43916
 Alpha  occ. eigenvalues --   -0.43857  -0.43691  -0.43369  -0.43278  -0.43121
 Alpha  occ. eigenvalues --   -0.42973  -0.42851  -0.42513  -0.42389  -0.42135
 Alpha  occ. eigenvalues --   -0.42057  -0.41925  -0.41826  -0.41650  -0.41564
 Alpha  occ. eigenvalues --   -0.41146  -0.40734  -0.40502  -0.40231  -0.40130
 Alpha  occ. eigenvalues --   -0.40010  -0.39738  -0.39580  -0.39285  -0.39246
 Alpha  occ. eigenvalues --   -0.39132  -0.38507  -0.38392  -0.37597  -0.37508
 Alpha  occ. eigenvalues --   -0.37046  -0.36783  -0.36743  -0.36402  -0.36201
 Alpha  occ. eigenvalues --   -0.35968  -0.35681  -0.35422  -0.34881  -0.34415
 Alpha  occ. eigenvalues --   -0.34312  -0.33569  -0.33261  -0.31552  -0.31310
 Alpha  occ. eigenvalues --   -0.30792  -0.30019  -0.29782  -0.28552  -0.24542
 Alpha  occ. eigenvalues --   -0.21429
 Alpha virt. eigenvalues --   -0.08832  -0.02641   0.00369   0.02086   0.02601
 Alpha virt. eigenvalues --    0.03469   0.04072   0.04779   0.05446   0.06567
 Alpha virt. eigenvalues --    0.07471   0.08048   0.08328   0.08623   0.08923

 Mulliken charges:
               1
     1  Mg   0.804228
     2  C   -0.027608
     3  C   -0.088913
     4  C   -0.058702
     5  C   -0.066133
     6  N   -0.303837
     7  C   -0.059094
     8  C   -0.004001
     9  C   -0.093415
    10  C    0.103987
    11  C    0.081414
    12  C    0.057870
    13  C    0.095705
    14  C    0.158824
    15  O   -0.276512
    16  O   -0.320452
    17  N   -0.418891
    18  C    0.155955
    19  C   -0.171064
    20  C   -0.002717
    21  C    0.182462
    22  C    0.146372
    23  C   -0.053625
    24  O   -0.198724
    25  C    0.056628
    26  N   -0.253603
    27  C    0.010485
    28  C   -0.025486
    29  C   -0.005321
    30  C    0.013982
    31  C    0.042060
    32  C    0.031386
    33  C   -0.002000
    34  N   -0.258029
    35  C    0.064457
    36  C   -0.210298
    37  C    0.000614
    38  C    0.079434
    39  C    0.127242
    40  C    0.057053
    41  O   -0.154002
    42  C    0.015438
    43  C    0.206375
    44  O   -0.230932
    45  O   -0.303790
    46  C    0.177851
    47  C    0.287584
    48  C   -0.104087
    49  C   -0.191318
    50  C    0.101110
    51  C    0.038733
    52  C   -0.003282
    53  C    0.068664
    54  C   -0.141879
    55  C    0.064092
    56  C    0.058289
    57  C   -0.024578
    58  C    0.056017
    59  C   -0.146806
    60  C    0.032530
    61  C    0.042050
    62  C   -0.019808
    63  C    0.084679
    64  C   -0.131545
    65  C    0.018699
    66  C    0.024197
    67  H   -0.019556
    68  H   -0.052960
    69  H   -0.039932
    70  H    0.020235
    71  H    0.000472
    72  H    0.026369
    73  H    0.026546
    74  H    0.009303
    75  H    0.015349
    76  H    0.012239
    77  H    0.035842
    78  H    0.040396
    79  H    0.044194
    80  H    0.008496
    81  H    0.033517
    82  H    0.045714
    83  H    0.046307
    84  H    0.019285
    85  H    0.005710
    86  H    0.002429
    87  H    0.030427
    88  H    0.017822
    89  H    0.016319
    90  H    0.014724
    91  H    0.000589
    92  H    0.010899
    93  H    0.031513
    94  H    0.021584
    95  H    0.028594
    96  H    0.041592
    97  H    0.015671
    98  H    0.039279
    99  H    0.029692
   100  H    0.031024
   101  H    0.035061
   102  H    0.019640
   103  H    0.063738
   104  H   -0.007664
   105  H    0.008432
   106  H    0.040515
   107  H    0.024915
   108  H   -0.002891
   109  H   -0.012766
   110  H   -0.003670
   111  H   -0.007913
   112  H   -0.010504
   113  H   -0.007793
   114  H    0.001258
   115  H    0.008957
   116  H   -0.007471
   117  H    0.011685
   118  H   -0.005356
   119  H   -0.015297
   120  H    0.001576
   121  H   -0.004647
   122  H    0.001846
   123  H    0.009393
   124  H    0.003715
   125  H   -0.006234
   126  H    0.007646
   127  H    0.018517
   128  H   -0.010000
   129  H    0.002916
   130  H   -0.001100
   131  H   -0.007656
   132  H   -0.005563
   133  H   -0.000141
   134  H    0.003621
   135  H    0.003737
   136  H    0.017257
   137  H    0.009562
   138  H    0.002622
   139  H    0.002265
   140  H    0.012097
 Sum of Mulliken charges =  -0.00000

 Dipole moment (field-independent basis, Debye):
    X=              3.2142    Y=              5.0189    Z=              2.6557  Tot=              6.5249
 Quadrupole moment (field-independent basis, Debye-Ang):
   XX=           -344.3058   YY=           -462.6837   ZZ=           -396.8370
   XY=             14.6205   XZ=              4.9407   YZ=             18.6145

 Normal termination of Gaussian 16 at Thu Apr 28 08:07:17 2022.
