 Gaussian 16, Revision A.03,
 Gaussian 16:  ES64L-G16RevA.03 25-Dec-2016

 ---------------------------------
 #p PBE1PBE/Def2SVP td=(nstates=5)
 ---------------------------------

 -----------------------------------------------------
 step_1501_chromophore_5 TDDFT with PBE1PBE functional
 -----------------------------------------------------
 Symbolic Z-matrix:
 Charge =  0 Multiplicity = 1

                         Standard orientation:
 ---------------------------------------------------------------------
 Center     Atomic      Atomic             Coordinates (Angstroms)
 Number     Number       Type             X           Y           Z
 ---------------------------------------------------------------------
      1         12           0        5.338017    0.537161   -0.342544
      2          6           0        3.835611   -2.772940   -0.457350
      3          6           0        2.709491    1.579682   -2.419313
      4          6           0        6.332792    3.621048    0.158121
      5          6           0        7.198710   -0.584154    2.339530
      6          7           0        3.552377   -0.476792   -1.338062
      7          6           0        3.077168   -1.819447   -1.164463
      8          6           0        1.755536   -1.982937   -1.815478
      9          6           0        1.726848   -0.709924   -2.730125
     10          6           0        2.732255    0.238388   -2.175548
     11          6           0        1.838095   -0.889112   -4.288839
     12          6           0        0.554004   -2.221592   -0.827077
     13          6           0       -0.346785   -3.469312   -0.997348
     14          6           0       -1.863143   -3.220442   -1.015829
     15          8           0       -2.536222   -3.262821   -2.091482
     16          8           0       -2.413533   -3.028934    0.228580
     17          7           0        4.867806    2.284515   -1.330605
     18          6           0        3.754852    2.515541   -2.098593
     19          6           0        3.809182    3.924360   -2.484182
     20          6           0        4.888564    4.563003   -1.763916
     21          6           0        5.438649    3.483132   -0.892399
     22          6           0        2.778921    4.592076   -3.415441
     23          6           0        5.218899    5.977732   -1.837821
     24          8           0        4.642171    6.670992   -2.648613
     25          6           0        6.324970    6.546799   -0.992911
     26          7           0        6.617430    1.424102    1.118402
     27          6           0        6.926237    2.688052    1.036537
     28          6           0        8.099823    3.052967    2.117914
     29          6           0        8.233981    1.706835    2.829949
     30          6           0        7.318473    0.783864    2.064031
     31          6           0        9.476813    3.554716    1.505232
     32          6           0        8.075041    1.621735    4.340987
     33          6           0        9.132130    0.770942    5.134011
     34          7           0        5.657634   -1.390203    0.603008
     35          6           0        6.482233   -1.608446    1.639364
     36          6           0        6.527299   -3.037394    1.862431
     37          6           0        5.462624   -3.512640    1.096242
     38          6           0        4.954689   -2.448973    0.321326
     39          6           0        7.375340   -3.642773    2.948687
     40          6           0        4.650613   -4.698033    0.672360
     41          8           0        4.698450   -5.854792    1.034008
     42          6           0        3.496121   -4.164950   -0.159637
     43          6           0        3.612505   -4.866719   -1.516644
     44          8           0        2.730700   -5.598775   -2.011517
     45          8           0        4.676663   -4.354425   -2.201839
     46          6           0        4.909468   -4.881921   -3.497171
     47          6           0       -3.805252   -2.497183   -0.003933
     48          6           0       -3.879585   -1.114159    0.558372
     49          6           0       -4.807331   -0.653568    1.456141
     50          6           0       -6.119544   -1.230808    1.929230
     51          6           0       -4.409012    0.681080    2.165281
     52          6           0       -4.684232    1.963485    1.404304
     53          6           0       -6.042615    2.636497    1.739541
     54          6           0       -7.025888    2.539184    0.541629
     55          6           0       -6.804088    3.574758   -0.594983
     56          6           0       -8.513883    2.352955    0.946889
     57          6           0       -9.255808    1.139885    0.337484
     58          6           0      -10.017813    0.144696    1.369093
     59          6           0      -11.361342   -0.329171    0.761871
     60          6           0      -11.074915   -1.447039   -0.343857
     61          6           0      -12.447338   -0.812762    1.844979
     62          6           0      -13.724515    0.075019    1.845192
     63          6           0      -14.591418   -0.183575    0.631394
     64          6           0      -14.879803    1.085715   -0.177850
     65          6           0      -16.339856    1.736498    0.042504
     66          6           0      -14.760935    0.749121   -1.721667
     67          1           0        1.835060    1.935313   -2.969536
     68          1           0        6.749194    4.626512    0.256266
     69          1           0        7.876518   -0.984825    3.096293
     70          1           0        1.869465   -2.892434   -2.405054
     71          1           0        0.737140   -0.254158   -2.693731
     72          1           0        2.706079   -0.385717   -4.714972
     73          1           0        0.899391   -0.567282   -4.739421
     74          1           0        1.951103   -1.970259   -4.357289
     75          1           0       -0.118781   -1.365934   -0.766060
     76          1           0        1.021834   -2.300858    0.153216
     77          1           0       -0.066150   -4.109411   -0.160954
     78          1           0       -0.061657   -3.922342   -1.947110
     79          1           0        2.576914    5.608786   -3.079797
     80          1           0        1.896058    3.957976   -3.498869
     81          1           0        3.312107    4.667983   -4.363386
     82          1           0        7.258232    5.998437   -1.121554
     83          1           0        6.034265    6.648392    0.052099
     84          1           0        6.448416    7.564770   -1.360974
     85          1           0        7.854972    3.737557    2.929548
     86          1           0        9.237784    1.351388    2.597640
     87          1           0       10.267709    3.791863    2.216035
     88          1           0        9.346846    4.415955    0.849012
     89          1           0        9.744898    2.707889    0.874090
     90          1           0        7.076547    1.253121    4.575385
     91          1           0        8.128446    2.626184    4.759576
     92          1           0        9.977901    0.586585    4.472872
     93          1           0        8.674563   -0.182962    5.399691
     94          1           0        9.494075    1.311123    6.009059
     95          1           0        7.443542   -4.723821    2.823128
     96          1           0        7.007164   -3.347584    3.931459
     97          1           0        8.382604   -3.281259    2.743661
     98          1           0        2.486814   -4.290069    0.233544
     99          1           0        5.400312   -5.836316   -3.304392
    100          1           0        5.555494   -4.330662   -4.179292
    101          1           0        4.073369   -5.065734   -4.172222
    102          1           0       -4.528317   -3.154962    0.480148
    103          1           0       -4.253014   -2.234387   -0.962806
    104          1           0       -3.065437   -0.412730    0.376019
    105          1           0       -6.312784   -2.256529    1.613502
    106          1           0       -6.923772   -0.563784    1.617617
    107          1           0       -5.958715   -1.257450    3.006718
    108          1           0       -3.358455    0.855294    2.396917
    109          1           0       -4.814089    0.693363    3.177906
    110          1           0       -4.659882    1.674975    0.354170
    111          1           0       -3.868790    2.678265    1.522734
    112          1           0       -5.775688    3.674681    1.934721
    113          1           0       -6.401391    2.236383    2.687710
    114          1           0       -6.758499    1.601593    0.053846
    115          1           0       -5.838986    4.061697   -0.449457
    116          1           0       -7.555648    4.360202   -0.520543
    117          1           0       -7.002755    3.208604   -1.601627
    118          1           0       -9.124997    3.215685    0.682538
    119          1           0       -8.534141    2.234621    2.029482
    120          1           0       -8.537235    0.588444   -0.268158
    121          1           0       -9.970216    1.625111   -0.327956
    122          1           0      -10.202761    0.691032    2.293321
    123          1           0       -9.273171   -0.635946    1.522926
    124          1           0      -11.807109    0.455583    0.151859
    125          1           0      -11.846597   -2.207253   -0.226935
    126          1           0      -10.141012   -1.968522   -0.135023
    127          1           0      -11.224649   -1.097089   -1.365533
    128          1           0      -11.874863   -0.725300    2.768523
    129          1           0      -12.926703   -1.781888    1.704928
    130          1           0      -13.327276    1.071392    2.039603
    131          1           0      -14.278905   -0.197094    2.743150
    132          1           0      -15.525424   -0.573055    1.034845
    133          1           0      -14.115342   -0.984890    0.066447
    134          1           0      -14.141102    1.839357    0.095045
    135          1           0      -16.311324    2.156924    1.047966
    136          1           0      -17.109872    0.983975   -0.125815
    137          1           0      -16.618954    2.624045   -0.524666
    138          1           0      -13.843255    0.172228   -1.836961
    139          1           0      -14.618127    1.612301   -2.371597
    140          1           0      -15.674752    0.250932   -2.044800
 ---------------------------------------------------------------------

 SCF Done:  E(RPBE1PBE) =  -3005.30634188     A.U. after   15 cycles

 Excitation energies and oscillator strengths:

 Excited State   1:      Singlet-A      1.8736 eV  661.74 nm  f=0.3554  <S**2>=0.000
     245 -> 248        0.17763
     246 -> 247        0.69010
     246 <- 247       -0.10272
 This state for optimization and/or second-order correction.
 Total Energy, E(TD-HF/TD-DFT) =  -3005.23748812
 Copying the excited state density for this state as the 1-particle RhoCI density.

 Excited State   2:      Singlet-A      2.2534 eV  550.21 nm  f=0.0738  <S**2>=0.000
     245 -> 247        0.63512
     246 -> 248       -0.29261

 Excited State   3:      Singlet-A      2.9896 eV  414.72 nm  f=0.0027  <S**2>=0.000
     241 -> 247        0.23100
     242 -> 247        0.30232
     243 -> 247        0.56988

 Excited State   4:      Singlet-A      3.0096 eV  411.96 nm  f=0.0029  <S**2>=0.000
     240 -> 247       -0.22356
     241 -> 247        0.10310
     242 -> 247        0.49969
     243 -> 247       -0.35795
     246 -> 248       -0.18699

 Excited State   5:      Singlet-A      3.0334 eV  408.72 nm  f=0.0001  <S**2>=0.000
     244 -> 247        0.70210

 The electronic state is 1-A.
 Alpha  occ. eigenvalues --  -46.92967 -19.27268 -19.27241 -19.20661 -19.19768
 Alpha  occ. eigenvalues --  -19.19355 -19.18771 -14.42383 -14.41653 -14.39919
 Alpha  occ. eigenvalues --  -14.38578 -10.37592 -10.36915 -10.32359 -10.31565
 Alpha  occ. eigenvalues --  -10.30076 -10.29179 -10.29178 -10.29108 -10.29019
 Alpha  occ. eigenvalues --  -10.28808 -10.28729 -10.28399 -10.27198 -10.27062
 Alpha  occ. eigenvalues --  -10.26650 -10.26345 -10.26242 -10.25918 -10.25826
 Alpha  occ. eigenvalues --  -10.25452 -10.25433 -10.25308 -10.25305 -10.25104
 Alpha  occ. eigenvalues --  -10.25053 -10.25032 -10.25007 -10.24984 -10.24819
 Alpha  occ. eigenvalues --  -10.24611 -10.24602 -10.23996 -10.23924 -10.23880
 Alpha  occ. eigenvalues --  -10.23875 -10.23843 -10.23656 -10.23507 -10.23357
 Alpha  occ. eigenvalues --  -10.23326 -10.23322 -10.23269 -10.22889 -10.22840
 Alpha  occ. eigenvalues --  -10.22589 -10.22451 -10.22393 -10.22291 -10.22223
 Alpha  occ. eigenvalues --  -10.22210 -10.22032 -10.22005 -10.21923 -10.21761
 Alpha  occ. eigenvalues --  -10.21702  -3.14938  -1.87800  -1.87308  -1.87151
 Alpha  occ. eigenvalues --   -1.12622  -1.10598  -1.05453  -1.05314  -1.02598
 Alpha  occ. eigenvalues --   -1.01047  -1.00608  -1.00063  -0.97535  -0.96596
 Alpha  occ. eigenvalues --   -0.88852  -0.84811  -0.84434  -0.83700  -0.83345
 Alpha  occ. eigenvalues --   -0.83062  -0.82440  -0.81854  -0.81119  -0.80652
 Alpha  occ. eigenvalues --   -0.80167  -0.79847  -0.78912  -0.78253  -0.78097
 Alpha  occ. eigenvalues --   -0.77000  -0.76593  -0.75845  -0.75617  -0.75105
 Alpha  occ. eigenvalues --   -0.73704  -0.72806  -0.72699  -0.71855  -0.71293
 Alpha  occ. eigenvalues --   -0.70065  -0.69704  -0.68992  -0.68675  -0.68283
 Alpha  occ. eigenvalues --   -0.67801  -0.66983  -0.66698  -0.64946  -0.64378
 Alpha  occ. eigenvalues --   -0.63377  -0.62707  -0.62484  -0.60937  -0.60546
 Alpha  occ. eigenvalues --   -0.60474  -0.59735  -0.59627  -0.58969  -0.58820
 Alpha  occ. eigenvalues --   -0.58294  -0.57576  -0.57498  -0.56948  -0.55492
 Alpha  occ. eigenvalues --   -0.54533  -0.54295  -0.54027  -0.53893  -0.52595
 Alpha  occ. eigenvalues --   -0.52334  -0.51683  -0.51243  -0.51034  -0.50580
 Alpha  occ. eigenvalues --   -0.50429  -0.50127  -0.49242  -0.48898  -0.48690
 Alpha  occ. eigenvalues --   -0.48572  -0.48067  -0.47993  -0.47815  -0.47430
 Alpha  occ. eigenvalues --   -0.47094  -0.46959  -0.46924  -0.46736  -0.46625
 Alpha  occ. eigenvalues --   -0.45989  -0.45893  -0.45806  -0.45523  -0.45344
 Alpha  occ. eigenvalues --   -0.45195  -0.45066  -0.44775  -0.44755  -0.44344
 Alpha  occ. eigenvalues --   -0.44192  -0.44096  -0.43935  -0.43698  -0.43624
 Alpha  occ. eigenvalues --   -0.43451  -0.43340  -0.42697  -0.42636  -0.42308
 Alpha  occ. eigenvalues --   -0.42184  -0.42176  -0.41957  -0.41796  -0.41645
 Alpha  occ. eigenvalues --   -0.41362  -0.41280  -0.41156  -0.41038  -0.40827
 Alpha  occ. eigenvalues --   -0.40470  -0.40239  -0.40042  -0.39931  -0.39721
 Alpha  occ. eigenvalues --   -0.39512  -0.39094  -0.39080  -0.38895  -0.38695
 Alpha  occ. eigenvalues --   -0.38597  -0.38546  -0.38161  -0.38067  -0.37852
 Alpha  occ. eigenvalues --   -0.37746  -0.37655  -0.37272  -0.37203  -0.36921
 Alpha  occ. eigenvalues --   -0.36887  -0.36786  -0.36722  -0.36506  -0.36310
 Alpha  occ. eigenvalues --   -0.35879  -0.35618  -0.35344  -0.35127  -0.35065
 Alpha  occ. eigenvalues --   -0.34930  -0.34494  -0.34321  -0.34227  -0.34101
 Alpha  occ. eigenvalues --   -0.33891  -0.33270  -0.33193  -0.32617  -0.32520
 Alpha  occ. eigenvalues --   -0.32047  -0.31841  -0.31615  -0.31287  -0.31180
 Alpha  occ. eigenvalues --   -0.30867  -0.30532  -0.30336  -0.29934  -0.29502
 Alpha  occ. eigenvalues --   -0.29395  -0.28802  -0.28418  -0.27074  -0.25965
 Alpha  occ. eigenvalues --   -0.25905  -0.25516  -0.25354  -0.23843  -0.21429
 Alpha  occ. eigenvalues --   -0.19081
 Alpha virt. eigenvalues --   -0.11361  -0.06104  -0.03898  -0.02291  -0.01174
 Alpha virt. eigenvalues --   -0.00433  -0.00023   0.00607   0.01081   0.02888
 Alpha virt. eigenvalues --    0.03083   0.04102   0.05045   0.05154   0.05630

 Mulliken charges:
               1
     1  Mg   0.945867
     2  C   -0.039658
     3  C   -0.074582
     4  C   -0.062377
     5  C   -0.058364
     6  N   -0.400462
     7  C    0.026996
     8  C   -0.077570
     9  C   -0.168821
    10  C    0.135816
    11  C    0.024902
    12  C    0.010465
    13  C    0.018496
    14  C    0.219829
    15  O   -0.305357
    16  O   -0.344558
    17  N   -0.530251
    18  C    0.177420
    19  C   -0.194698
    20  C   -0.048826
    21  C    0.203343
    22  C    0.085026
    23  C   -0.001441
    24  O   -0.236413
    25  C   -0.024471
    26  N   -0.366184
    27  C    0.053292
    28  C   -0.100672
    29  C   -0.076129
    30  C    0.056250
    31  C   -0.018646
    32  C   -0.032261
    33  C   -0.074553
    34  N   -0.395248
    35  C    0.093581
    36  C   -0.221969
    37  C   -0.052364
    38  C    0.136240
    39  C    0.066217
    40  C    0.165509
    41  O   -0.199051
    42  C   -0.119245
    43  C    0.300166
    44  O   -0.267343
    45  O   -0.332658
    46  C    0.123571
    47  C    0.232868
    48  C   -0.113240
    49  C   -0.231020
    50  C    0.025876
    51  C   -0.020935
    52  C   -0.065465
    53  C    0.015023
    54  C   -0.231411
    55  C    0.006226
    56  C    0.007789
    57  C   -0.083755
    58  C   -0.007031
    59  C   -0.227417
    60  C   -0.024015
    61  C   -0.019030
    62  C   -0.082529
    63  C    0.030812
    64  C   -0.224043
    65  C   -0.042207
    66  C   -0.040327
    67  H    0.011402
    68  H   -0.016142
    69  H   -0.004788
    70  H    0.063267
    71  H    0.038557
    72  H    0.053936
    73  H    0.052717
    74  H    0.037542
    75  H    0.048715
    76  H    0.045879
    77  H    0.067918
    78  H    0.071954
    79  H    0.070416
    80  H    0.035405
    81  H    0.061855
    82  H    0.072085
    83  H    0.072786
    84  H    0.047637
    85  H    0.042508
    86  H    0.041830
    87  H    0.057355
    88  H    0.046482
    89  H    0.044134
    90  H    0.048179
    91  H    0.034521
    92  H    0.038175
    93  H    0.057399
    94  H    0.049624
    95  H    0.058018
    96  H    0.069605
    97  H    0.044287
    98  H    0.078238
    99  H    0.052865
   100  H    0.053507
   101  H    0.055983
   102  H    0.047990
   103  H    0.092453
   104  H    0.022175
   105  H    0.035263
   106  H    0.076667
   107  H    0.052593
   108  H    0.029796
   109  H    0.018999
   110  H    0.029562
   111  H    0.024187
   112  H    0.023330
   113  H    0.022668
   114  H    0.041320
   115  H    0.036311
   116  H    0.020367
   117  H    0.038749
   118  H    0.026847
   119  H    0.017290
   120  H    0.032766
   121  H    0.027380
   122  H    0.034046
   123  H    0.043628
   124  H    0.045046
   125  H    0.020725
   126  H    0.034613
   127  H    0.044996
   128  H    0.023568
   129  H    0.035078
   130  H    0.031184
   131  H    0.026381
   132  H    0.027457
   133  H    0.032304
   134  H    0.039804
   135  H    0.032648
   136  H    0.043719
   137  H    0.037022
   138  H    0.031948
   139  H    0.030633
   140  H    0.039655
 Sum of Mulliken charges =  -0.00000

 Dipole moment (field-independent basis, Debye):
    X=              3.2658    Y=              4.6106    Z=              2.8676  Tot=              6.3361
 Quadrupole moment (field-independent basis, Debye-Ang):
   XX=           -338.9091   YY=           -460.7461   ZZ=           -393.2085
   XY=             12.5368   XZ=              7.0471   YZ=             19.1198

 Normal termination of Gaussian 16 at Thu Apr 28 08:27:37 2022.
