 Gaussian 16, Revision A.03,
 Gaussian 16:  ES64L-G16RevA.03 25-Dec-2016

 --------------------------------
 #p wB97XD/Def2SVP td=(nstates=5)
 --------------------------------

 ----------------------------------------------------
 step_1501_chromophore_5 TDDFT with wB97XD functional
 ----------------------------------------------------
 Symbolic Z-matrix:
 Charge =  0 Multiplicity = 1

                         Standard orientation:
 ---------------------------------------------------------------------
 Center     Atomic      Atomic             Coordinates (Angstroms)
 Number     Number       Type             X           Y           Z
 ---------------------------------------------------------------------
      1         12           0        5.338017    0.537161   -0.342544
      2          6           0        3.835611   -2.772940   -0.457350
      3          6           0        2.709491    1.579682   -2.419313
      4          6           0        6.332792    3.621048    0.158121
      5          6           0        7.198710   -0.584154    2.339530
      6          7           0        3.552377   -0.476792   -1.338062
      7          6           0        3.077168   -1.819447   -1.164463
      8          6           0        1.755536   -1.982937   -1.815478
      9          6           0        1.726848   -0.709924   -2.730125
     10          6           0        2.732255    0.238388   -2.175548
     11          6           0        1.838095   -0.889112   -4.288839
     12          6           0        0.554004   -2.221592   -0.827077
     13          6           0       -0.346785   -3.469312   -0.997348
     14          6           0       -1.863143   -3.220442   -1.015829
     15          8           0       -2.536222   -3.262821   -2.091482
     16          8           0       -2.413533   -3.028934    0.228580
     17          7           0        4.867806    2.284515   -1.330605
     18          6           0        3.754852    2.515541   -2.098593
     19          6           0        3.809182    3.924360   -2.484182
     20          6           0        4.888564    4.563003   -1.763916
     21          6           0        5.438649    3.483132   -0.892399
     22          6           0        2.778921    4.592076   -3.415441
     23          6           0        5.218899    5.977732   -1.837821
     24          8           0        4.642171    6.670992   -2.648613
     25          6           0        6.324970    6.546799   -0.992911
     26          7           0        6.617430    1.424102    1.118402
     27          6           0        6.926237    2.688052    1.036537
     28          6           0        8.099823    3.052967    2.117914
     29          6           0        8.233981    1.706835    2.829949
     30          6           0        7.318473    0.783864    2.064031
     31          6           0        9.476813    3.554716    1.505232
     32          6           0        8.075041    1.621735    4.340987
     33          6           0        9.132130    0.770942    5.134011
     34          7           0        5.657634   -1.390203    0.603008
     35          6           0        6.482233   -1.608446    1.639364
     36          6           0        6.527299   -3.037394    1.862431
     37          6           0        5.462624   -3.512640    1.096242
     38          6           0        4.954689   -2.448973    0.321326
     39          6           0        7.375340   -3.642773    2.948687
     40          6           0        4.650613   -4.698033    0.672360
     41          8           0        4.698450   -5.854792    1.034008
     42          6           0        3.496121   -4.164950   -0.159637
     43          6           0        3.612505   -4.866719   -1.516644
     44          8           0        2.730700   -5.598775   -2.011517
     45          8           0        4.676663   -4.354425   -2.201839
     46          6           0        4.909468   -4.881921   -3.497171
     47          6           0       -3.805252   -2.497183   -0.003933
     48          6           0       -3.879585   -1.114159    0.558372
     49          6           0       -4.807331   -0.653568    1.456141
     50          6           0       -6.119544   -1.230808    1.929230
     51          6           0       -4.409012    0.681080    2.165281
     52          6           0       -4.684232    1.963485    1.404304
     53          6           0       -6.042615    2.636497    1.739541
     54          6           0       -7.025888    2.539184    0.541629
     55          6           0       -6.804088    3.574758   -0.594983
     56          6           0       -8.513883    2.352955    0.946889
     57          6           0       -9.255808    1.139885    0.337484
     58          6           0      -10.017813    0.144696    1.369093
     59          6           0      -11.361342   -0.329171    0.761871
     60          6           0      -11.074915   -1.447039   -0.343857
     61          6           0      -12.447338   -0.812762    1.844979
     62          6           0      -13.724515    0.075019    1.845192
     63          6           0      -14.591418   -0.183575    0.631394
     64          6           0      -14.879803    1.085715   -0.177850
     65          6           0      -16.339856    1.736498    0.042504
     66          6           0      -14.760935    0.749121   -1.721667
     67          1           0        1.835060    1.935313   -2.969536
     68          1           0        6.749194    4.626512    0.256266
     69          1           0        7.876518   -0.984825    3.096293
     70          1           0        1.869465   -2.892434   -2.405054
     71          1           0        0.737140   -0.254158   -2.693731
     72          1           0        2.706079   -0.385717   -4.714972
     73          1           0        0.899391   -0.567282   -4.739421
     74          1           0        1.951103   -1.970259   -4.357289
     75          1           0       -0.118781   -1.365934   -0.766060
     76          1           0        1.021834   -2.300858    0.153216
     77          1           0       -0.066150   -4.109411   -0.160954
     78          1           0       -0.061657   -3.922342   -1.947110
     79          1           0        2.576914    5.608786   -3.079797
     80          1           0        1.896058    3.957976   -3.498869
     81          1           0        3.312107    4.667983   -4.363386
     82          1           0        7.258232    5.998437   -1.121554
     83          1           0        6.034265    6.648392    0.052099
     84          1           0        6.448416    7.564770   -1.360974
     85          1           0        7.854972    3.737557    2.929548
     86          1           0        9.237784    1.351388    2.597640
     87          1           0       10.267709    3.791863    2.216035
     88          1           0        9.346846    4.415955    0.849012
     89          1           0        9.744898    2.707889    0.874090
     90          1           0        7.076547    1.253121    4.575385
     91          1           0        8.128446    2.626184    4.759576
     92          1           0        9.977901    0.586585    4.472872
     93          1           0        8.674563   -0.182962    5.399691
     94          1           0        9.494075    1.311123    6.009059
     95          1           0        7.443542   -4.723821    2.823128
     96          1           0        7.007164   -3.347584    3.931459
     97          1           0        8.382604   -3.281259    2.743661
     98          1           0        2.486814   -4.290069    0.233544
     99          1           0        5.400312   -5.836316   -3.304392
    100          1           0        5.555494   -4.330662   -4.179292
    101          1           0        4.073369   -5.065734   -4.172222
    102          1           0       -4.528317   -3.154962    0.480148
    103          1           0       -4.253014   -2.234387   -0.962806
    104          1           0       -3.065437   -0.412730    0.376019
    105          1           0       -6.312784   -2.256529    1.613502
    106          1           0       -6.923772   -0.563784    1.617617
    107          1           0       -5.958715   -1.257450    3.006718
    108          1           0       -3.358455    0.855294    2.396917
    109          1           0       -4.814089    0.693363    3.177906
    110          1           0       -4.659882    1.674975    0.354170
    111          1           0       -3.868790    2.678265    1.522734
    112          1           0       -5.775688    3.674681    1.934721
    113          1           0       -6.401391    2.236383    2.687710
    114          1           0       -6.758499    1.601593    0.053846
    115          1           0       -5.838986    4.061697   -0.449457
    116          1           0       -7.555648    4.360202   -0.520543
    117          1           0       -7.002755    3.208604   -1.601627
    118          1           0       -9.124997    3.215685    0.682538
    119          1           0       -8.534141    2.234621    2.029482
    120          1           0       -8.537235    0.588444   -0.268158
    121          1           0       -9.970216    1.625111   -0.327956
    122          1           0      -10.202761    0.691032    2.293321
    123          1           0       -9.273171   -0.635946    1.522926
    124          1           0      -11.807109    0.455583    0.151859
    125          1           0      -11.846597   -2.207253   -0.226935
    126          1           0      -10.141012   -1.968522   -0.135023
    127          1           0      -11.224649   -1.097089   -1.365533
    128          1           0      -11.874863   -0.725300    2.768523
    129          1           0      -12.926703   -1.781888    1.704928
    130          1           0      -13.327276    1.071392    2.039603
    131          1           0      -14.278905   -0.197094    2.743150
    132          1           0      -15.525424   -0.573055    1.034845
    133          1           0      -14.115342   -0.984890    0.066447
    134          1           0      -14.141102    1.839357    0.095045
    135          1           0      -16.311324    2.156924    1.047966
    136          1           0      -17.109872    0.983975   -0.125815
    137          1           0      -16.618954    2.624045   -0.524666
    138          1           0      -13.843255    0.172228   -1.836961
    139          1           0      -14.618127    1.612301   -2.371597
    140          1           0      -15.674752    0.250932   -2.044800
 ---------------------------------------------------------------------

 SCF Done:  E(RwB97XD) =  -3007.81678020     A.U. after   20 cycles

 Excitation energies and oscillator strengths:

 Excited State   1:      Singlet-A      1.6880 eV  734.52 nm  f=0.3671  <S**2>=0.000
     245 -> 248        0.18359
     246 -> 247        0.68242
     245 <- 248        0.11246
 This state for optimization and/or second-order correction.
 Total Energy, E(TD-HF/TD-DFT) =  -3007.75474856
 Copying the excited state density for this state as the 1-particle RhoCI density.

 Excited State   2:      Singlet-A      2.2077 eV  561.61 nm  f=0.0693  <S**2>=0.000
     245 -> 247        0.61749
     246 -> 248       -0.32607

 Excited State   3:      Singlet-A      3.3350 eV  371.77 nm  f=0.0489  <S**2>=0.000
     242 -> 247        0.61662
     243 -> 247       -0.15973
     246 -> 248        0.24521

 Excited State   4:      Singlet-A      3.4426 eV  360.15 nm  f=0.3448  <S**2>=0.000
     243 -> 247        0.44619
     245 -> 247        0.23402
     246 -> 248        0.45264

 Excited State   5:      Singlet-A      3.5764 eV  346.67 nm  f=0.0010  <S**2>=0.000
     239 -> 247        0.17678
     240 -> 247        0.49801
     240 -> 248       -0.20143
     240 -> 249       -0.26744
     240 -> 250        0.21679

 The electronic state is 1-A.
 Alpha  occ. eigenvalues --  -46.95968 -19.31785 -19.31689 -19.25259 -19.24357
 Alpha  occ. eigenvalues --  -19.23993 -19.23806 -14.47572 -14.46680 -14.45043
 Alpha  occ. eigenvalues --  -14.43385 -10.44299 -10.43635 -10.39019 -10.38627
 Alpha  occ. eigenvalues --  -10.36621 -10.35825 -10.35628 -10.35607 -10.35480
 Alpha  occ. eigenvalues --  -10.35066 -10.34937 -10.34879 -10.33500 -10.33361
 Alpha  occ. eigenvalues --  -10.33117 -10.32647 -10.32426 -10.31982 -10.31927
 Alpha  occ. eigenvalues --  -10.31712 -10.31708 -10.31602 -10.31555 -10.31473
 Alpha  occ. eigenvalues --  -10.31411 -10.31407 -10.31403 -10.31326 -10.31285
 Alpha  occ. eigenvalues --  -10.31269 -10.30848 -10.30298 -10.30280 -10.30273
 Alpha  occ. eigenvalues --  -10.30236 -10.30219 -10.30196 -10.29985 -10.29909
 Alpha  occ. eigenvalues --  -10.29723 -10.29683 -10.29612 -10.29193 -10.28949
 Alpha  occ. eigenvalues --  -10.28910 -10.28788 -10.28762 -10.28650 -10.28649
 Alpha  occ. eigenvalues --  -10.28580 -10.28481 -10.28370 -10.28273 -10.28185
 Alpha  occ. eigenvalues --  -10.28132  -3.21804  -1.95413  -1.94923  -1.94762
 Alpha  occ. eigenvalues --   -1.19919  -1.17939  -1.13152  -1.12617  -1.09880
 Alpha  occ. eigenvalues --   -1.08427  -1.07918  -1.07154  -1.05132  -1.04080
 Alpha  occ. eigenvalues --   -0.96316  -0.92378  -0.92103  -0.91320  -0.91021
 Alpha  occ. eigenvalues --   -0.90741  -0.90100  -0.89457  -0.88585  -0.88320
 Alpha  occ. eigenvalues --   -0.88109  -0.87453  -0.86554  -0.85838  -0.85741
 Alpha  occ. eigenvalues --   -0.84727  -0.84286  -0.83542  -0.83230  -0.82729
 Alpha  occ. eigenvalues --   -0.81373  -0.80370  -0.80209  -0.79647  -0.78877
 Alpha  occ. eigenvalues --   -0.77734  -0.77341  -0.76705  -0.76368  -0.75948
 Alpha  occ. eigenvalues --   -0.75313  -0.74554  -0.74249  -0.72552  -0.71935
 Alpha  occ. eigenvalues --   -0.70895  -0.70322  -0.70131  -0.68459  -0.68175
 Alpha  occ. eigenvalues --   -0.67900  -0.67226  -0.67023  -0.66539  -0.66201
 Alpha  occ. eigenvalues --   -0.65768  -0.65240  -0.65168  -0.64599  -0.62935
 Alpha  occ. eigenvalues --   -0.61936  -0.61742  -0.61555  -0.61307  -0.59990
 Alpha  occ. eigenvalues --   -0.59751  -0.59093  -0.58764  -0.58415  -0.57911
 Alpha  occ. eigenvalues --   -0.57834  -0.57493  -0.56567  -0.56227  -0.56125
 Alpha  occ. eigenvalues --   -0.55971  -0.55405  -0.55325  -0.55189  -0.54917
 Alpha  occ. eigenvalues --   -0.54533  -0.54485  -0.54275  -0.54061  -0.53989
 Alpha  occ. eigenvalues --   -0.53351  -0.53254  -0.53089  -0.52827  -0.52594
 Alpha  occ. eigenvalues --   -0.52458  -0.52415  -0.52100  -0.52027  -0.51788
 Alpha  occ. eigenvalues --   -0.51681  -0.51467  -0.51294  -0.51003  -0.50923
 Alpha  occ. eigenvalues --   -0.50771  -0.50593  -0.49982  -0.49906  -0.49570
 Alpha  occ. eigenvalues --   -0.49479  -0.49378  -0.49276  -0.48998  -0.48920
 Alpha  occ. eigenvalues --   -0.48675  -0.48554  -0.48311  -0.48223  -0.48090
 Alpha  occ. eigenvalues --   -0.47711  -0.47430  -0.47210  -0.47192  -0.46861
 Alpha  occ. eigenvalues --   -0.46637  -0.46269  -0.46164  -0.46068  -0.45865
 Alpha  occ. eigenvalues --   -0.45726  -0.45613  -0.45291  -0.45219  -0.45140
 Alpha  occ. eigenvalues --   -0.44870  -0.44781  -0.44463  -0.44305  -0.44040
 Alpha  occ. eigenvalues --   -0.43950  -0.43805  -0.43740  -0.43548  -0.43414
 Alpha  occ. eigenvalues --   -0.42997  -0.42644  -0.42379  -0.42114  -0.42049
 Alpha  occ. eigenvalues --   -0.41910  -0.41574  -0.41433  -0.41201  -0.41132
 Alpha  occ. eigenvalues --   -0.40968  -0.40337  -0.40261  -0.39653  -0.39445
 Alpha  occ. eigenvalues --   -0.38987  -0.38849  -0.38585  -0.38294  -0.38138
 Alpha  occ. eigenvalues --   -0.37829  -0.37527  -0.37268  -0.36889  -0.36290
 Alpha  occ. eigenvalues --   -0.36256  -0.35504  -0.35467  -0.33691  -0.33340
 Alpha  occ. eigenvalues --   -0.32733  -0.32259  -0.31893  -0.30559  -0.26481
 Alpha  occ. eigenvalues --   -0.23245
 Alpha virt. eigenvalues --   -0.07173  -0.00742   0.02414   0.04204   0.05584
 Alpha virt. eigenvalues --    0.05815   0.06447   0.07230   0.07816   0.09215
 Alpha virt. eigenvalues --    0.09825   0.10921   0.11693   0.11825   0.12349

 Mulliken charges:
               1
     1  Mg   0.939787
     2  C   -0.032648
     3  C   -0.098372
     4  C   -0.071116
     5  C   -0.068912
     6  N   -0.370185
     7  C   -0.010750
     8  C   -0.044568
     9  C   -0.143641
    10  C    0.125871
    11  C    0.034499
    12  C    0.018687
    13  C    0.034911
    14  C    0.211978
    15  O   -0.305111
    16  O   -0.346724
    17  N   -0.502115
    18  C    0.173791
    19  C   -0.185403
    20  C   -0.044632
    21  C    0.203695
    22  C    0.099021
    23  C   -0.005995
    24  O   -0.230240
    25  C   -0.008972
    26  N   -0.327759
    27  C    0.035687
    28  C   -0.075809
    29  C   -0.048933
    30  C    0.039562
    31  C   -0.005651
    32  C   -0.018077
    33  C   -0.057676
    34  N   -0.350593
    35  C    0.077761
    36  C   -0.219459
    37  C   -0.047275
    38  C    0.110436
    39  C    0.079087
    40  C    0.140986
    41  O   -0.191480
    42  C   -0.074461
    43  C    0.276772
    44  O   -0.261231
    45  O   -0.333129
    46  C    0.137863
    47  C    0.251993
    48  C   -0.122718
    49  C   -0.219405
    50  C    0.055940
    51  C   -0.005189
    52  C   -0.045382
    53  C    0.026141
    54  C   -0.193291
    55  C    0.017211
    56  C    0.021895
    57  C   -0.067280
    58  C    0.014704
    59  C   -0.197492
    60  C   -0.012384
    61  C    0.001177
    62  C   -0.065070
    63  C    0.044039
    64  C   -0.196765
    65  C   -0.028673
    66  C   -0.022628
    67  H    0.006252
    68  H   -0.029637
    69  H   -0.016387
    70  H    0.041447
    71  H    0.027962
    72  H    0.048209
    73  H    0.048542
    74  H    0.031512
    75  H    0.039876
    76  H    0.037241
    77  H    0.062692
    78  H    0.067561
    79  H    0.067167
    80  H    0.031333
    81  H    0.058155
    82  H    0.065975
    83  H    0.068678
    84  H    0.046754
    85  H    0.032847
    86  H    0.025417
    87  H    0.053274
    88  H    0.040056
    89  H    0.036299
    90  H    0.039781
    91  H    0.025323
    92  H    0.031184
    93  H    0.051648
    94  H    0.045050
    95  H    0.053735
    96  H    0.063922
    97  H    0.036707
    98  H    0.070407
    99  H    0.048237
   100  H    0.049608
   101  H    0.051626
   102  H    0.043153
   103  H    0.086599
   104  H    0.018243
   105  H    0.030319
   106  H    0.055074
   107  H    0.046139
   108  H    0.022879
   109  H    0.010384
   110  H    0.015878
   111  H    0.018474
   112  H    0.015411
   113  H    0.013832
   114  H    0.018898
   115  H    0.030138
   116  H    0.013227
   117  H    0.034189
   118  H    0.018934
   119  H    0.006116
   120  H    0.023518
   121  H    0.018974
   122  H    0.024272
   123  H    0.031122
   124  H    0.024177
   125  H    0.013240
   126  H    0.028750
   127  H    0.040139
   128  H    0.015517
   129  H    0.024999
   130  H    0.020628
   131  H    0.019472
   132  H    0.020370
   133  H    0.018549
   134  H    0.028557
   135  H    0.025614
   136  H    0.036853
   137  H    0.031711
   138  H    0.022845
   139  H    0.025230
   140  H    0.032825
 Sum of Mulliken charges =  -0.00000

 Dipole moment (field-independent basis, Debye):
    X=              3.2392    Y=              5.2763    Z=              2.5783  Tot=              6.7067
 Quadrupole moment (field-independent basis, Debye-Ang):
   XX=           -339.3359   YY=           -459.0369   ZZ=           -393.0038
   XY=             15.6339   XZ=              5.2898   YZ=             18.3231

 Normal termination of Gaussian 16 at Thu Apr 28 08:58:29 2022.
