 Gaussian 16, Revision A.03,
 Gaussian 16:  ES64L-G16RevA.03 25-Dec-2016

 --------------------
 #p ZINDO=(nstates=5)
 --------------------

 -----------------------------
 step_1501_chromophore_5 ZINDO
 -----------------------------
 Symbolic Z-matrix:
 Charge =  0 Multiplicity = 1

                         Standard orientation:
 ---------------------------------------------------------------------
 Center     Atomic      Atomic             Coordinates (Angstroms)
 Number     Number       Type             X           Y           Z
 ---------------------------------------------------------------------
      1         12           0        5.338017    0.537161   -0.342544
      2          6           0        3.835611   -2.772940   -0.457350
      3          6           0        2.709491    1.579682   -2.419313
      4          6           0        6.332792    3.621048    0.158121
      5          6           0        7.198710   -0.584154    2.339530
      6          7           0        3.552377   -0.476792   -1.338062
      7          6           0        3.077168   -1.819447   -1.164463
      8          6           0        1.755536   -1.982937   -1.815478
      9          6           0        1.726848   -0.709924   -2.730125
     10          6           0        2.732255    0.238388   -2.175548
     11          6           0        1.838095   -0.889112   -4.288839
     12          6           0        0.554004   -2.221592   -0.827077
     13          6           0       -0.346785   -3.469312   -0.997348
     14          6           0       -1.863143   -3.220442   -1.015829
     15          8           0       -2.536222   -3.262821   -2.091482
     16          8           0       -2.413533   -3.028934    0.228580
     17          7           0        4.867806    2.284515   -1.330605
     18          6           0        3.754852    2.515541   -2.098593
     19          6           0        3.809182    3.924360   -2.484182
     20          6           0        4.888564    4.563003   -1.763916
     21          6           0        5.438649    3.483132   -0.892399
     22          6           0        2.778921    4.592076   -3.415441
     23          6           0        5.218899    5.977732   -1.837821
     24          8           0        4.642171    6.670992   -2.648613
     25          6           0        6.324970    6.546799   -0.992911
     26          7           0        6.617430    1.424102    1.118402
     27          6           0        6.926237    2.688052    1.036537
     28          6           0        8.099823    3.052967    2.117914
     29          6           0        8.233981    1.706835    2.829949
     30          6           0        7.318473    0.783864    2.064031
     31          6           0        9.476813    3.554716    1.505232
     32          6           0        8.075041    1.621735    4.340987
     33          6           0        9.132130    0.770942    5.134011
     34          7           0        5.657634   -1.390203    0.603008
     35          6           0        6.482233   -1.608446    1.639364
     36          6           0        6.527299   -3.037394    1.862431
     37          6           0        5.462624   -3.512640    1.096242
     38          6           0        4.954689   -2.448973    0.321326
     39          6           0        7.375340   -3.642773    2.948687
     40          6           0        4.650613   -4.698033    0.672360
     41          8           0        4.698450   -5.854792    1.034008
     42          6           0        3.496121   -4.164950   -0.159637
     43          6           0        3.612505   -4.866719   -1.516644
     44          8           0        2.730700   -5.598775   -2.011517
     45          8           0        4.676663   -4.354425   -2.201839
     46          6           0        4.909468   -4.881921   -3.497171
     47          6           0       -3.805252   -2.497183   -0.003933
     48          6           0       -3.879585   -1.114159    0.558372
     49          6           0       -4.807331   -0.653568    1.456141
     50          6           0       -6.119544   -1.230808    1.929230
     51          6           0       -4.409012    0.681080    2.165281
     52          6           0       -4.684232    1.963485    1.404304
     53          6           0       -6.042615    2.636497    1.739541
     54          6           0       -7.025888    2.539184    0.541629
     55          6           0       -6.804088    3.574758   -0.594983
     56          6           0       -8.513883    2.352955    0.946889
     57          6           0       -9.255808    1.139885    0.337484
     58          6           0      -10.017813    0.144696    1.369093
     59          6           0      -11.361342   -0.329171    0.761871
     60          6           0      -11.074915   -1.447039   -0.343857
     61          6           0      -12.447338   -0.812762    1.844979
     62          6           0      -13.724515    0.075019    1.845192
     63          6           0      -14.591418   -0.183575    0.631394
     64          6           0      -14.879803    1.085715   -0.177850
     65          6           0      -16.339856    1.736498    0.042504
     66          6           0      -14.760935    0.749121   -1.721667
     67          1           0        1.835060    1.935313   -2.969536
     68          1           0        6.749194    4.626512    0.256266
     69          1           0        7.876518   -0.984825    3.096293
     70          1           0        1.869465   -2.892434   -2.405054
     71          1           0        0.737140   -0.254158   -2.693731
     72          1           0        2.706079   -0.385717   -4.714972
     73          1           0        0.899391   -0.567282   -4.739421
     74          1           0        1.951103   -1.970259   -4.357289
     75          1           0       -0.118781   -1.365934   -0.766060
     76          1           0        1.021834   -2.300858    0.153216
     77          1           0       -0.066150   -4.109411   -0.160954
     78          1           0       -0.061657   -3.922342   -1.947110
     79          1           0        2.576914    5.608786   -3.079797
     80          1           0        1.896058    3.957976   -3.498869
     81          1           0        3.312107    4.667983   -4.363386
     82          1           0        7.258232    5.998437   -1.121554
     83          1           0        6.034265    6.648392    0.052099
     84          1           0        6.448416    7.564770   -1.360974
     85          1           0        7.854972    3.737557    2.929548
     86          1           0        9.237784    1.351388    2.597640
     87          1           0       10.267709    3.791863    2.216035
     88          1           0        9.346846    4.415955    0.849012
     89          1           0        9.744898    2.707889    0.874090
     90          1           0        7.076547    1.253121    4.575385
     91          1           0        8.128446    2.626184    4.759576
     92          1           0        9.977901    0.586585    4.472872
     93          1           0        8.674563   -0.182962    5.399691
     94          1           0        9.494075    1.311123    6.009059
     95          1           0        7.443542   -4.723821    2.823128
     96          1           0        7.007164   -3.347584    3.931459
     97          1           0        8.382604   -3.281259    2.743661
     98          1           0        2.486814   -4.290069    0.233544
     99          1           0        5.400312   -5.836316   -3.304392
    100          1           0        5.555494   -4.330662   -4.179292
    101          1           0        4.073369   -5.065734   -4.172222
    102          1           0       -4.528317   -3.154962    0.480148
    103          1           0       -4.253014   -2.234387   -0.962806
    104          1           0       -3.065437   -0.412730    0.376019
    105          1           0       -6.312784   -2.256529    1.613502
    106          1           0       -6.923772   -0.563784    1.617617
    107          1           0       -5.958715   -1.257450    3.006718
    108          1           0       -3.358455    0.855294    2.396917
    109          1           0       -4.814089    0.693363    3.177906
    110          1           0       -4.659882    1.674975    0.354170
    111          1           0       -3.868790    2.678265    1.522734
    112          1           0       -5.775688    3.674681    1.934721
    113          1           0       -6.401391    2.236383    2.687710
    114          1           0       -6.758499    1.601593    0.053846
    115          1           0       -5.838986    4.061697   -0.449457
    116          1           0       -7.555648    4.360202   -0.520543
    117          1           0       -7.002755    3.208604   -1.601627
    118          1           0       -9.124997    3.215685    0.682538
    119          1           0       -8.534141    2.234621    2.029482
    120          1           0       -8.537235    0.588444   -0.268158
    121          1           0       -9.970216    1.625111   -0.327956
    122          1           0      -10.202761    0.691032    2.293321
    123          1           0       -9.273171   -0.635946    1.522926
    124          1           0      -11.807109    0.455583    0.151859
    125          1           0      -11.846597   -2.207253   -0.226935
    126          1           0      -10.141012   -1.968522   -0.135023
    127          1           0      -11.224649   -1.097089   -1.365533
    128          1           0      -11.874863   -0.725300    2.768523
    129          1           0      -12.926703   -1.781888    1.704928
    130          1           0      -13.327276    1.071392    2.039603
    131          1           0      -14.278905   -0.197094    2.743150
    132          1           0      -15.525424   -0.573055    1.034845
    133          1           0      -14.115342   -0.984890    0.066447
    134          1           0      -14.141102    1.839357    0.095045
    135          1           0      -16.311324    2.156924    1.047966
    136          1           0      -17.109872    0.983975   -0.125815
    137          1           0      -16.618954    2.624045   -0.524666
    138          1           0      -13.843255    0.172228   -1.836961
    139          1           0      -14.618127    1.612301   -2.371597
    140          1           0      -15.674752    0.250932   -2.044800
 ---------------------------------------------------------------------

 SCF Done:  E(RZINDO/S) =  -474.207093488     A.U. after   19 cycles

 Excitation energies and oscillator strengths:

 Excited State   1:      Singlet-A      1.2928 eV  959.04 nm  f=0.5797  <S**2>=0.000
     175 ->178         0.16450
     176 ->177         0.66840
 This state for optimization and/or second-order correction.
 Total Energy, E(CIS/TDA) =  -474.159584023
 Copying the excited state density for this state as the 1-particle RhoCI density.

 Excited State   2:      Singlet-A      1.9160 eV  647.09 nm  f=0.0110  <S**2>=0.000
     175 ->177         0.50616
     176 ->178        -0.45830

 Excited State   3:      Singlet-A      2.8722 eV  431.67 nm  f=0.3330  <S**2>=0.000
     168 ->177         0.26295
     168 ->178         0.18248
     168 ->179        -0.24042
     168 ->180         0.22254
     168 ->185        -0.15669
     171 ->177        -0.14998
     175 ->177         0.23515
     176 ->178         0.30828
     176 ->179        -0.14256

 Excited State   4:      Singlet-A      2.9087 eV  426.25 nm  f=0.5188  <S**2>=0.000
     168 ->177        -0.22222
     168 ->178        -0.15057
     168 ->179         0.19568
     168 ->180        -0.19106
     168 ->185         0.12492
     175 ->177         0.29128
     176 ->178         0.36796
     176 ->179        -0.22832

 Excited State   5:      Singlet-A      3.0182 eV  410.79 nm  f=0.0228  <S**2>=0.000
     170 ->177         0.26598
     170 ->179         0.35796
     170 ->180         0.26134
     170 ->181        -0.11911
     170 ->183        -0.18199
     170 ->185         0.22685
     170 ->187        -0.13095

 The electronic state is 1-A.
 Alpha  occ. eigenvalues --   -1.87030  -1.82537  -1.80226  -1.74227  -1.72526
 Alpha  occ. eigenvalues --   -1.71025  -1.63869  -1.62008  -1.61244  -1.59483
 Alpha  occ. eigenvalues --   -1.52556  -1.49817  -1.48769  -1.48205  -1.46600
 Alpha  occ. eigenvalues --   -1.44648  -1.42180  -1.40179  -1.38602  -1.38236
 Alpha  occ. eigenvalues --   -1.36673  -1.34013  -1.33081  -1.31900  -1.29392
 Alpha  occ. eigenvalues --   -1.27969  -1.25978  -1.23092  -1.21497  -1.18371
 Alpha  occ. eigenvalues --   -1.16822  -1.15034  -1.14571  -1.13900  -1.13283
 Alpha  occ. eigenvalues --   -1.12866  -1.10692  -1.10285  -1.06116  -1.03651
 Alpha  occ. eigenvalues --   -1.01651  -1.01335  -0.99016  -0.98209  -0.97365
 Alpha  occ. eigenvalues --   -0.96114  -0.94572  -0.93714  -0.92855  -0.91704
 Alpha  occ. eigenvalues --   -0.91326  -0.91077  -0.89144  -0.88486  -0.86329
 Alpha  occ. eigenvalues --   -0.86147  -0.85470  -0.83893  -0.83696  -0.81841
 Alpha  occ. eigenvalues --   -0.79987  -0.79429  -0.77777  -0.77766  -0.77038
 Alpha  occ. eigenvalues --   -0.75901  -0.75106  -0.74411  -0.73980  -0.73309
 Alpha  occ. eigenvalues --   -0.72949  -0.72082  -0.71822  -0.71759  -0.70776
 Alpha  occ. eigenvalues --   -0.69615  -0.69400  -0.69173  -0.68403  -0.68163
 Alpha  occ. eigenvalues --   -0.68021  -0.67385  -0.66367  -0.66023  -0.65752
 Alpha  occ. eigenvalues --   -0.65544  -0.65280  -0.64633  -0.64238  -0.64101
 Alpha  occ. eigenvalues --   -0.63170  -0.62981  -0.62710  -0.62561  -0.62181
 Alpha  occ. eigenvalues --   -0.62110  -0.61898  -0.61310  -0.60816  -0.60377
 Alpha  occ. eigenvalues --   -0.60112  -0.59810  -0.59553  -0.58038  -0.57951
 Alpha  occ. eigenvalues --   -0.57552  -0.57242  -0.56769  -0.56368  -0.56268
 Alpha  occ. eigenvalues --   -0.56073  -0.55840  -0.55591  -0.55465  -0.55445
 Alpha  occ. eigenvalues --   -0.54720  -0.54201  -0.53875  -0.53572  -0.53227
 Alpha  occ. eigenvalues --   -0.53085  -0.52612  -0.52236  -0.52029  -0.51770
 Alpha  occ. eigenvalues --   -0.51415  -0.51094  -0.50568  -0.50481  -0.49827
 Alpha  occ. eigenvalues --   -0.49574  -0.49415  -0.49290  -0.48974  -0.48932
 Alpha  occ. eigenvalues --   -0.48612  -0.48459  -0.48257  -0.47975  -0.47872
 Alpha  occ. eigenvalues --   -0.47754  -0.47622  -0.47523  -0.47452  -0.46985
 Alpha  occ. eigenvalues --   -0.46872  -0.46432  -0.46147  -0.45976  -0.45790
 Alpha  occ. eigenvalues --   -0.45223  -0.44804  -0.44715  -0.44644  -0.44050
 Alpha  occ. eigenvalues --   -0.43861  -0.43616  -0.43150  -0.42731  -0.42517
 Alpha  occ. eigenvalues --   -0.41850  -0.41551  -0.41411  -0.39457  -0.38485
 Alpha  occ. eigenvalues --   -0.38209  -0.37009  -0.36078  -0.34878  -0.34593
 Alpha  occ. eigenvalues --   -0.33641  -0.32950  -0.32256  -0.30693  -0.27306
 Alpha  occ. eigenvalues --   -0.22092
 Alpha virt. eigenvalues --   -0.08701  -0.02981  -0.00910   0.00916   0.00973
 Alpha virt. eigenvalues --    0.01863   0.02440   0.02531   0.04346   0.04516
 Alpha virt. eigenvalues --    0.05620   0.06073   0.06437   0.07415   0.07788

 Mulliken charges:
               1
     1  Mg   0.418785
     2  C   -0.022101
     3  C   -0.088673
     4  C   -0.088858
     5  C   -0.066417
     6  N   -0.326413
     7  C    0.088501
     8  C    0.011946
     9  C    0.003088
    10  C    0.180777
    11  C   -0.051309
    12  C   -0.019441
    13  C    0.006567
    14  C    0.468923
    15  O   -0.534962
    16  O   -0.243505
    17  N   -0.332197
    18  C    0.147142
    19  C    0.051969
    20  C   -0.049260
    21  C    0.137811
    22  C   -0.038732
    23  C    0.334739
    24  O   -0.520477
    25  C   -0.031689
    26  N   -0.232869
    27  C    0.152879
    28  C   -0.007554
    29  C    0.005891
    30  C    0.090908
    31  C   -0.054381
    32  C   -0.028138
    33  C   -0.059069
    34  N   -0.297633
    35  C    0.062827
    36  C    0.009275
    37  C   -0.069860
    38  C    0.101654
    39  C   -0.039742
    40  C    0.330269
    41  O   -0.515760
    42  C    0.066610
    43  C    0.481523
    44  O   -0.535789
    45  O   -0.250428
    46  C    0.073574
    47  C    0.102519
    48  C   -0.089462
    49  C   -0.022755
    50  C   -0.039102
    51  C   -0.030320
    52  C   -0.032517
    53  C   -0.031864
    54  C   -0.010810
    55  C   -0.057018
    56  C   -0.038093
    57  C   -0.051579
    58  C   -0.032019
    59  C   -0.018626
    60  C   -0.069172
    61  C   -0.048102
    62  C   -0.038444
    63  C   -0.021258
    64  C   -0.013915
    65  C   -0.064905
    66  C   -0.064262
    67  H    0.034269
    68  H    0.025005
    69  H    0.023715
    70  H    0.037274
    71  H    0.019649
    72  H    0.029543
    73  H    0.028893
    74  H    0.026635
    75  H    0.025858
    76  H    0.019882
    77  H    0.043314
    78  H    0.047827
    79  H    0.049836
    80  H    0.028086
    81  H    0.041805
    82  H    0.040849
    83  H    0.041046
    84  H    0.029995
    85  H    0.032335
    86  H    0.024075
    87  H    0.031385
    88  H    0.017085
    89  H    0.021383
    90  H    0.022206
    91  H    0.011740
    92  H    0.019659
    93  H    0.024908
    94  H    0.023865
    95  H    0.027921
    96  H    0.037387
    97  H    0.022677
    98  H    0.067462
    99  H    0.034996
   100  H    0.029575
   101  H    0.043661
   102  H    0.039304
   103  H    0.073485
   104  H    0.034599
   105  H    0.022952
   106  H    0.039998
   107  H    0.029437
   108  H    0.014811
   109  H    0.012892
   110  H    0.017561
   111  H    0.014030
   112  H    0.012354
   113  H    0.024424
   114  H    0.013805
   115  H    0.022408
   116  H    0.010008
   117  H    0.025731
   118  H    0.018694
   119  H    0.013413
   120  H    0.021402
   121  H    0.016990
   122  H    0.020567
   123  H    0.027251
   124  H    0.024646
   125  H    0.008197
   126  H    0.024779
   127  H    0.026178
   128  H    0.016694
   129  H    0.028615
   130  H    0.020537
   131  H    0.007840
   132  H    0.016383
   133  H    0.027993
   134  H    0.024073
   135  H    0.011589
   136  H    0.025725
   137  H    0.021156
   138  H    0.015967
   139  H    0.013812
   140  H    0.025197
 Sum of Mulliken charges =  -0.00000

 Dipole moment (field-independent basis, Debye):
    X=              3.6908    Y=              8.6604    Z=              3.2511  Tot=              9.9596
 N-N= 4.338110270332D+03 E-N= 0.000000000000D+00  KE=-9.349757300877D+03
 Leave Link  601 at Thu Apr 28 09:11:48 2022, MaxMem=  6710886400 cpu:               0.8 elap:               0.0
 (Enter /sw/apps/gaussian-16.0/g16/l9999.exe)
 1\1\GINC-BP1-COMPUTE159\SP\RZINDO CIS\STO-3G\C55H74Mg1N4O6\OF15641\28-
 Apr-2022\0\\#p ZINDO=(nstates=5)\\step_1501_chromophore_5 ZINDO\\0,1\M
 g,0,24.652,-7.431,46.515\C,0,26.866,-4.807,45.315\C,0,22.34,-6.287,44.
 137\C,0,22.847,-10.087,47.177\C,0,27.41,-8.822,48.055\N,0,24.6,-5.745,
 44.978\C,0,25.658,-4.856,44.592\C,0,25.261,-4.077,43.395\C,0,23.712,-4
 .319,43.396\C,0,23.468,-5.527,44.232\C,0,22.754,-3.121,43.744\C,0,26.0
 7,-4.412,42.087\C,0,26.801,-3.281,41.323\C,0,26.544,-3.201,39.81\O,0,2

 Normal termination of Gaussian 16 at Thu Apr 28 09:11:48 2022.
