 Gaussian 16, Revision A.03,
 Gaussian 16:  ES64L-G16RevA.03 25-Dec-2016

 ------------------------------
 #p blyp/Def2SVP td=(nstates=5)
 ------------------------------

 --------------------------------------------------
 step_1301_chromophore_5 TDDFT with blyp functional
 --------------------------------------------------
 Symbolic Z-matrix:
 Charge =  0 Multiplicity = 1

                         Standard orientation:
 ---------------------------------------------------------------------
 Center     Atomic      Atomic             Coordinates (Angstroms)
 Number     Number       Type             X           Y           Z
 ---------------------------------------------------------------------
      1         12           0        5.622505    0.345153   -0.532468
      2          6           0        3.688129   -2.608192   -0.289031
      3          6           0        3.317669    1.753276   -2.643806
      4          6           0        7.081137    3.350739   -0.008661
      5          6           0        7.337083   -0.838879    2.373834
      6          7           0        3.653046   -0.292899   -1.264091
      7          6           0        3.202905   -1.610712   -1.187801
      8          6           0        1.913506   -1.706870   -2.007180
      9          6           0        1.875736   -0.342429   -2.739944
     10          6           0        3.023164    0.418716   -2.222225
     11          6           0        2.140242   -0.593025   -4.285992
     12          6           0        0.784284   -1.974030   -1.042700
     13          6           0       -0.324773   -2.947844   -1.567021
     14          6           0       -1.788560   -2.303449   -1.693885
     15          8           0       -2.038786   -1.524782   -2.645098
     16          8           0       -2.516047   -2.614935   -0.632483
     17          7           0        5.236055    2.281403   -1.306306
     18          6           0        4.279553    2.666813   -2.176764
     19          6           0        4.455169    4.022530   -2.519453
     20          6           0        5.466570    4.544340   -1.639777
     21          6           0        6.054996    3.341952   -0.963429
     22          6           0        3.563800    4.708792   -3.530590
     23          6           0        5.904632    6.013236   -1.438567
     24          8           0        5.318616    6.895954   -2.080314
     25          6           0        6.997586    6.474991   -0.537807
     26          7           0        6.938260    1.129390    0.947095
     27          6           0        7.562803    2.367697    0.897849
     28          6           0        8.538647    2.651455    2.080167
     29          6           0        8.403639    1.351168    2.888787
     30          6           0        7.446318    0.480160    2.070083
     31          6           0       10.021445    2.964082    1.677256
     32          6           0        7.912976    1.487347    4.343788
     33          6           0        8.574556    0.416141    5.320443
     34          7           0        5.724714   -1.369948    0.650036
     35          6           0        6.482773   -1.708878    1.753572
     36          6           0        6.186501   -3.109244    2.151350
     37          6           0        5.225103   -3.496656    1.271742
     38          6           0        4.879204   -2.397111    0.475958
     39          6           0        6.888428   -3.758862    3.322442
     40          6           0        4.461858   -4.692707    0.916777
     41          8           0        4.440191   -5.831496    1.354791
     42          6           0        3.381926   -4.125345   -0.190256
     43          6           0        3.789615   -4.794237   -1.465040
     44          8           0        3.228027   -5.814263   -1.918968
     45          8           0        4.928542   -4.201693   -2.080956
     46          6           0        5.380299   -4.783876   -3.372032
     47          6           0       -3.934370   -2.110632   -0.750004
     48          6           0       -3.938522   -0.734174   -0.077675
     49          6           0       -4.376840   -0.354437    1.145521
     50          6           0       -4.953713   -1.330472    2.186018
     51          6           0       -4.555319    1.153332    1.496011
     52          6           0       -5.711439    1.810775    0.857522
     53          6           0       -6.769575    2.306641    1.951045
     54          6           0       -8.275704    2.075736    1.682764
     55          6           0       -9.113681    3.331817    2.209686
     56          6           0       -8.832731    0.672895    2.040113
     57          6           0       -9.062188   -0.271816    0.771718
     58          6           0      -10.340343   -1.125428    0.913309
     59          6           0      -11.541849   -0.300823    0.368513
     60          6           0      -11.851305   -0.645038   -1.077178
     61          6           0      -12.784870   -0.452980    1.365399
     62          6           0      -13.867384    0.664817    1.182160
     63          6           0      -15.125359    0.115237    0.485529
     64          6           0      -15.765055    1.213851   -0.415266
     65          6           0      -17.258290    1.259329    0.095755
     66          6           0      -15.557287    0.933012   -1.892734
     67          1           0        2.581908    2.075228   -3.383449
     68          1           0        7.824206    4.145973    0.078079
     69          1           0        7.807180   -1.229971    3.277707
     70          1           0        2.130543   -2.518559   -2.702314
     71          1           0        1.032100    0.333450   -2.599015
     72          1           0        1.428276   -0.051418   -4.908527
     73          1           0        1.988181   -1.639243   -4.555412
     74          1           0        3.108158   -0.195160   -4.588295
     75          1           0        0.232409   -1.049156   -0.874237
     76          1           0        1.093888   -2.381297   -0.080095
     77          1           0       -0.356199   -3.926278   -1.088544
     78          1           0       -0.036366   -3.240656   -2.576681
     79          1           0        2.729300    5.188298   -3.019283
     80          1           0        3.136157    4.046919   -4.284177
     81          1           0        4.186771    5.430254   -4.058102
     82          1           0        7.879276    5.959364   -0.919993
     83          1           0        6.699536    6.202517    0.474692
     84          1           0        7.111577    7.557731   -0.576502
     85          1           0        8.113257    3.531669    2.563852
     86          1           0        9.315775    0.759174    2.818222
     87          1           0       10.322949    3.907930    2.132548
     88          1           0       10.046114    3.088574    0.594977
     89          1           0       10.798673    2.218319    1.841077
     90          1           0        6.825890    1.416547    4.370253
     91          1           0        8.207320    2.492830    4.644512
     92          1           0        7.912886   -0.435773    5.475687
     93          1           0        8.715071    0.923559    6.275909
     94          1           0        9.473910   -0.090737    4.969983
     95          1           0        6.581015   -3.199498    4.205359
     96          1           0        7.970659   -3.839651    3.222369
     97          1           0        6.460567   -4.762281    3.311935
     98          1           0        2.341417   -4.359276    0.032842
     99          1           0        5.677527   -5.825105   -3.249666
    100          1           0        6.280167   -4.231659   -3.645722
    101          1           0        4.569543   -4.665310   -4.090154
    102          1           0       -4.557017   -2.723875   -0.097714
    103          1           0       -4.460501   -2.055928   -1.703072
    104          1           0       -3.523442    0.032250   -0.732287
    105          1           0       -5.166398   -2.365997    1.921114
    106          1           0       -6.014252   -1.089377    2.264612
    107          1           0       -4.526515   -1.185379    3.178038
    108          1           0       -3.574446    1.544293    1.223007
    109          1           0       -4.631701    1.242971    2.579908
    110          1           0       -6.222046    1.116561    0.190342
    111          1           0       -5.369079    2.681640    0.299610
    112          1           0       -6.520785    3.354290    1.779554
    113          1           0       -6.523598    2.018642    2.973304
    114          1           0       -8.426579    2.205740    0.611971
    115          1           0      -10.028669    2.972970    2.681501
    116          1           0       -9.219462    3.933405    1.306594
    117          1           0       -8.542541    3.935290    2.914519
    118          1           0       -9.675402    0.862002    2.704596
    119          1           0       -8.062719    0.149988    2.606641
    120          1           0       -8.231833   -0.960061    0.615966
    121          1           0       -9.104757    0.376471   -0.103511
    122          1           0      -10.597255   -1.431786    1.926527
    123          1           0      -10.110939   -1.978897    0.274535
    124          1           0      -11.253004    0.748927    0.427283
    125          1           0      -12.921200   -0.493187   -1.220018
    126          1           0      -11.534724   -1.640344   -1.389214
    127          1           0      -11.295833    0.059990   -1.696667
    128          1           0      -12.396746   -0.419384    2.382965
    129          1           0      -13.155198   -1.470386    1.238301
    130          1           0      -13.464874    1.532415    0.658894
    131          1           0      -14.229153    1.038046    2.140137
    132          1           0      -15.802039   -0.208794    1.276621
    133          1           0      -14.907872   -0.751537   -0.138687
    134          1           0      -15.287573    2.170578   -0.199372
    135          1           0      -17.705139    1.842439   -0.709089
    136          1           0      -17.227029    1.978910    0.914165
    137          1           0      -17.703123    0.304117    0.374357
    138          1           0      -15.190790    1.909345   -2.210046
    139          1           0      -16.406574    0.727675   -2.544541
    140          1           0      -14.796333    0.154574   -1.945734
 ---------------------------------------------------------------------

 SCF Done:  E(RB-LYP) =  -3007.33470344     A.U. after   21 cycles

 Excitation energies and oscillator strengths:

 Excited State   1:      Singlet-A      1.7065 eV  726.55 nm  f=0.0294  <S**2>=0.000
     244 -> 247        0.67183
     246 -> 247        0.21027
 This state for optimization and/or second-order correction.
 Total Energy, E(TD-HF/TD-DFT) =  -3007.27199154
 Copying the excited state density for this state as the 1-particle RhoCI density.

 Excited State   2:      Singlet-A      1.7595 eV  704.65 nm  f=0.2677  <S**2>=0.000
     244 -> 247       -0.20959
     245 -> 248       -0.18481
     246 -> 247        0.65975
     246 <- 247       -0.14867

 Excited State   3:      Singlet-A      1.9932 eV  622.04 nm  f=0.0526  <S**2>=0.000
     243 -> 247       -0.13716
     245 -> 247        0.62692
     246 -> 248        0.25985

 Excited State   4:      Singlet-A      2.2703 eV  546.10 nm  f=0.0031  <S**2>=0.000
     243 -> 247        0.67682
     246 -> 248        0.13617

 Excited State   5:      Singlet-A      2.4115 eV  514.14 nm  f=0.0025  <S**2>=0.000
     241 -> 247        0.68491
     242 -> 247       -0.16650

 The electronic state is 1-A.
 Alpha  occ. eigenvalues --  -46.27266 -18.83786 -18.81757 -18.77330 -18.76539
 Alpha  occ. eigenvalues --  -18.76349 -18.74590 -14.03223 -14.03209 -14.01035
 Alpha  occ. eigenvalues --  -14.00710 -10.04188 -10.04096 -10.00993  -9.99368
 Alpha  occ. eigenvalues --   -9.98563  -9.98112  -9.96855  -9.96663  -9.96378
 Alpha  occ. eigenvalues --   -9.96093  -9.95831  -9.95090  -9.94972  -9.94930
 Alpha  occ. eigenvalues --   -9.94875  -9.94725  -9.94237  -9.93825  -9.93771
 Alpha  occ. eigenvalues --   -9.93687  -9.93545  -9.93525  -9.93457  -9.93116
 Alpha  occ. eigenvalues --   -9.93081  -9.93064  -9.92883  -9.92860  -9.92826
 Alpha  occ. eigenvalues --   -9.92718  -9.92694  -9.92640  -9.92563  -9.92239
 Alpha  occ. eigenvalues --   -9.92008  -9.91951  -9.91935  -9.91880  -9.91808
 Alpha  occ. eigenvalues --   -9.91739  -9.91696  -9.91642  -9.91566  -9.91532
 Alpha  occ. eigenvalues --   -9.91494  -9.91426  -9.91365  -9.91187  -9.91092
 Alpha  occ. eigenvalues --   -9.91083  -9.90916  -9.90791  -9.90722  -9.90561
 Alpha  occ. eigenvalues --   -9.90410  -2.91880  -1.72279  -1.71763  -1.71600
 Alpha  occ. eigenvalues --   -0.98586  -0.95399  -0.92393  -0.90061  -0.88736
 Alpha  occ. eigenvalues --   -0.88138  -0.86772  -0.85893  -0.85255  -0.84518
 Alpha  occ. eigenvalues --   -0.75281  -0.73558  -0.72790  -0.72769  -0.72540
 Alpha  occ. eigenvalues --   -0.71780  -0.71743  -0.71178  -0.70689  -0.70507
 Alpha  occ. eigenvalues --   -0.69017  -0.68681  -0.68233  -0.67594  -0.66914
 Alpha  occ. eigenvalues --   -0.66311  -0.65699  -0.65272  -0.64699  -0.64409
 Alpha  occ. eigenvalues --   -0.64093  -0.62408  -0.62105  -0.61206  -0.60966
 Alpha  occ. eigenvalues --   -0.60500  -0.60460  -0.59744  -0.59669  -0.58722
 Alpha  occ. eigenvalues --   -0.57995  -0.57744  -0.57247  -0.55514  -0.55350
 Alpha  occ. eigenvalues --   -0.54348  -0.53722  -0.52622  -0.52504  -0.51712
 Alpha  occ. eigenvalues --   -0.51357  -0.50802  -0.50644  -0.50362  -0.50287
 Alpha  occ. eigenvalues --   -0.49534  -0.49052  -0.48870  -0.48286  -0.46341
 Alpha  occ. eigenvalues --   -0.46082  -0.45893  -0.45297  -0.45071  -0.44019
 Alpha  occ. eigenvalues --   -0.43840  -0.43075  -0.42885  -0.42343  -0.42206
 Alpha  occ. eigenvalues --   -0.41908  -0.41716  -0.41516  -0.41316  -0.41238
 Alpha  occ. eigenvalues --   -0.40838  -0.40618  -0.40202  -0.40162  -0.39966
 Alpha  occ. eigenvalues --   -0.39740  -0.39655  -0.39394  -0.39156  -0.39068
 Alpha  occ. eigenvalues --   -0.38937  -0.38560  -0.38439  -0.38292  -0.37933
 Alpha  occ. eigenvalues --   -0.37823  -0.37778  -0.37534  -0.37496  -0.37414
 Alpha  occ. eigenvalues --   -0.37234  -0.36982  -0.36768  -0.36661  -0.36306
 Alpha  occ. eigenvalues --   -0.36239  -0.35968  -0.35798  -0.35657  -0.35483
 Alpha  occ. eigenvalues --   -0.35388  -0.35261  -0.35038  -0.34758  -0.34722
 Alpha  occ. eigenvalues --   -0.34666  -0.34500  -0.34314  -0.34156  -0.34075
 Alpha  occ. eigenvalues --   -0.33916  -0.33640  -0.33554  -0.33368  -0.33155
 Alpha  occ. eigenvalues --   -0.33030  -0.33020  -0.32795  -0.32648  -0.32423
 Alpha  occ. eigenvalues --   -0.32408  -0.32183  -0.32000  -0.31873  -0.31535
 Alpha  occ. eigenvalues --   -0.31476  -0.31165  -0.31043  -0.30848  -0.30542
 Alpha  occ. eigenvalues --   -0.30402  -0.30257  -0.29931  -0.29863  -0.29823
 Alpha  occ. eigenvalues --   -0.29736  -0.29622  -0.29514  -0.29465  -0.28801
 Alpha  occ. eigenvalues --   -0.28739  -0.28513  -0.28372  -0.28232  -0.28086
 Alpha  occ. eigenvalues --   -0.27588  -0.27291  -0.26777  -0.26621  -0.26565
 Alpha  occ. eigenvalues --   -0.26231  -0.25820  -0.25767  -0.25568  -0.25340
 Alpha  occ. eigenvalues --   -0.24759  -0.24693  -0.24133  -0.23938  -0.23294
 Alpha  occ. eigenvalues --   -0.22603  -0.22396  -0.21410  -0.21284  -0.21037
 Alpha  occ. eigenvalues --   -0.20280  -0.19840  -0.19565  -0.17636  -0.17380
 Alpha  occ. eigenvalues --   -0.15513
 Alpha virt. eigenvalues --   -0.11425  -0.07057  -0.06639  -0.04653  -0.03632
 Alpha virt. eigenvalues --   -0.02922  -0.02814  -0.02551  -0.01431  -0.00111
 Alpha virt. eigenvalues --    0.01311   0.01709   0.01963   0.02503   0.02839

 Mulliken charges:
               1
     1  Mg   0.693581
     2  C   -0.021082
     3  C   -0.057102
     4  C   -0.056919
     5  C   -0.112161
     6  N   -0.229895
     7  C   -0.099484
     8  C    0.104962
     9  C   -0.002585
    10  C   -0.012391
    11  C    0.097471
    12  C    0.138702
    13  C    0.113710
    14  C    0.074090
    15  O   -0.241435
    16  O   -0.219561
    17  N   -0.270276
    18  C    0.156389
    19  C   -0.138907
    20  C    0.004777
    21  C    0.174056
    22  C    0.183257
    23  C   -0.101725
    24  O   -0.187155
    25  C    0.170575
    26  N   -0.244282
    27  C   -0.066028
    28  C    0.039395
    29  C    0.032508
    30  C    0.052784
    31  C    0.119932
    32  C    0.106860
    33  C    0.058644
    34  N   -0.247479
    35  C    0.099127
    36  C   -0.202061
    37  C    0.082842
    38  C    0.111629
    39  C    0.181447
    40  C   -0.019418
    41  O   -0.108406
    42  C    0.028695
    43  C    0.147749
    44  O   -0.199553
    45  O   -0.318700
    46  C    0.228361
    47  C    0.349889
    48  C   -0.143309
    49  C   -0.133963
    50  C    0.132261
    51  C    0.133397
    52  C    0.108043
    53  C    0.059966
    54  C   -0.103054
    55  C    0.094735
    56  C    0.143130
    57  C    0.030997
    58  C    0.142104
    59  C   -0.115930
    60  C    0.146533
    61  C    0.075589
    62  C    0.080582
    63  C    0.082962
    64  C   -0.138059
    65  C    0.114720
    66  C    0.133264
    67  H   -0.067135
    68  H   -0.065635
    69  H   -0.081647
    70  H   -0.022807
    71  H   -0.000593
    72  H   -0.009100
    73  H   -0.001324
    74  H   -0.001868
    75  H   -0.011039
    76  H   -0.001743
    77  H   -0.012602
    78  H   -0.018059
    79  H    0.008724
    80  H   -0.019289
    81  H    0.005709
    82  H    0.022957
    83  H    0.008047
    84  H   -0.010797
    85  H   -0.016496
    86  H   -0.027474
    87  H   -0.003219
    88  H   -0.012981
    89  H   -0.005391
    90  H   -0.007599
    91  H   -0.020283
    92  H   -0.001347
    93  H   -0.003448
    94  H   -0.006196
    95  H    0.008994
    96  H    0.007756
    97  H    0.004837
    98  H   -0.001016
    99  H    0.021135
   100  H    0.012143
   101  H    0.018394
   102  H   -0.031571
   103  H    0.017702
   104  H   -0.027513
   105  H   -0.018664
   106  H   -0.022841
   107  H    0.006905
   108  H   -0.019819
   109  H   -0.039941
   110  H   -0.017834
   111  H   -0.023520
   112  H   -0.035039
   113  H   -0.019814
   114  H   -0.044211
   115  H   -0.012938
   116  H   -0.010047
   117  H   -0.016019
   118  H   -0.032721
   119  H   -0.034921
   120  H   -0.029373
   121  H   -0.023054
   122  H   -0.031512
   123  H   -0.045283
   124  H   -0.032562
   125  H   -0.026664
   126  H   -0.014811
   127  H   -0.021620
   128  H   -0.041877
   129  H   -0.027892
   130  H   -0.025634
   131  H   -0.033151
   132  H   -0.033539
   133  H   -0.031906
   134  H   -0.031163
   135  H   -0.033470
   136  H   -0.025434
   137  H    0.010821
   138  H   -0.020793
   139  H   -0.017518
   140  H   -0.009155
 Sum of Mulliken charges =  -0.00000

 Dipole moment (field-independent basis, Debye):
    X=              1.7132    Y=              1.7997    Z=              2.5123  Tot=              3.5335
 Quadrupole moment (field-independent basis, Debye-Ang):
   XX=           -338.4045   YY=           -467.9514   ZZ=           -394.2745
   XY=              4.5294   XZ=              5.3700   YZ=             19.6157

 Normal termination of Gaussian 16 at Wed May  4 04:26:46 2022.
