 Gaussian 16, Revision A.03,
 Gaussian 16:  ES64L-G16RevA.03 25-Dec-2016

 -----------------------------------
 #p cam-b3lyp/Def2SVP td=(nstates=5)
 -----------------------------------

 -------------------------------------------------------
 step_1301_chromophore_5 TDDFT with cam-b3lyp functional
 -------------------------------------------------------
 Symbolic Z-matrix:
 Charge =  0 Multiplicity = 1

                         Standard orientation:
 ---------------------------------------------------------------------
 Center     Atomic      Atomic             Coordinates (Angstroms)
 Number     Number       Type             X           Y           Z
 ---------------------------------------------------------------------
      1         12           0        5.622505    0.345153   -0.532468
      2          6           0        3.688129   -2.608192   -0.289031
      3          6           0        3.317669    1.753276   -2.643806
      4          6           0        7.081137    3.350739   -0.008661
      5          6           0        7.337083   -0.838879    2.373834
      6          7           0        3.653046   -0.292899   -1.264091
      7          6           0        3.202905   -1.610712   -1.187801
      8          6           0        1.913506   -1.706870   -2.007180
      9          6           0        1.875736   -0.342429   -2.739944
     10          6           0        3.023164    0.418716   -2.222225
     11          6           0        2.140242   -0.593025   -4.285992
     12          6           0        0.784284   -1.974030   -1.042700
     13          6           0       -0.324773   -2.947844   -1.567021
     14          6           0       -1.788560   -2.303449   -1.693885
     15          8           0       -2.038786   -1.524782   -2.645098
     16          8           0       -2.516047   -2.614935   -0.632483
     17          7           0        5.236055    2.281403   -1.306306
     18          6           0        4.279553    2.666813   -2.176764
     19          6           0        4.455169    4.022530   -2.519453
     20          6           0        5.466570    4.544340   -1.639777
     21          6           0        6.054996    3.341952   -0.963429
     22          6           0        3.563800    4.708792   -3.530590
     23          6           0        5.904632    6.013236   -1.438567
     24          8           0        5.318616    6.895954   -2.080314
     25          6           0        6.997586    6.474991   -0.537807
     26          7           0        6.938260    1.129390    0.947095
     27          6           0        7.562803    2.367697    0.897849
     28          6           0        8.538647    2.651455    2.080167
     29          6           0        8.403639    1.351168    2.888787
     30          6           0        7.446318    0.480160    2.070083
     31          6           0       10.021445    2.964082    1.677256
     32          6           0        7.912976    1.487347    4.343788
     33          6           0        8.574556    0.416141    5.320443
     34          7           0        5.724714   -1.369948    0.650036
     35          6           0        6.482773   -1.708878    1.753572
     36          6           0        6.186501   -3.109244    2.151350
     37          6           0        5.225103   -3.496656    1.271742
     38          6           0        4.879204   -2.397111    0.475958
     39          6           0        6.888428   -3.758862    3.322442
     40          6           0        4.461858   -4.692707    0.916777
     41          8           0        4.440191   -5.831496    1.354791
     42          6           0        3.381926   -4.125345   -0.190256
     43          6           0        3.789615   -4.794237   -1.465040
     44          8           0        3.228027   -5.814263   -1.918968
     45          8           0        4.928542   -4.201693   -2.080956
     46          6           0        5.380299   -4.783876   -3.372032
     47          6           0       -3.934370   -2.110632   -0.750004
     48          6           0       -3.938522   -0.734174   -0.077675
     49          6           0       -4.376840   -0.354437    1.145521
     50          6           0       -4.953713   -1.330472    2.186018
     51          6           0       -4.555319    1.153332    1.496011
     52          6           0       -5.711439    1.810775    0.857522
     53          6           0       -6.769575    2.306641    1.951045
     54          6           0       -8.275704    2.075736    1.682764
     55          6           0       -9.113681    3.331817    2.209686
     56          6           0       -8.832731    0.672895    2.040113
     57          6           0       -9.062188   -0.271816    0.771718
     58          6           0      -10.340343   -1.125428    0.913309
     59          6           0      -11.541849   -0.300823    0.368513
     60          6           0      -11.851305   -0.645038   -1.077178
     61          6           0      -12.784870   -0.452980    1.365399
     62          6           0      -13.867384    0.664817    1.182160
     63          6           0      -15.125359    0.115237    0.485529
     64          6           0      -15.765055    1.213851   -0.415266
     65          6           0      -17.258290    1.259329    0.095755
     66          6           0      -15.557287    0.933012   -1.892734
     67          1           0        2.581908    2.075228   -3.383449
     68          1           0        7.824206    4.145973    0.078079
     69          1           0        7.807180   -1.229971    3.277707
     70          1           0        2.130543   -2.518559   -2.702314
     71          1           0        1.032100    0.333450   -2.599015
     72          1           0        1.428276   -0.051418   -4.908527
     73          1           0        1.988181   -1.639243   -4.555412
     74          1           0        3.108158   -0.195160   -4.588295
     75          1           0        0.232409   -1.049156   -0.874237
     76          1           0        1.093888   -2.381297   -0.080095
     77          1           0       -0.356199   -3.926278   -1.088544
     78          1           0       -0.036366   -3.240656   -2.576681
     79          1           0        2.729300    5.188298   -3.019283
     80          1           0        3.136157    4.046919   -4.284177
     81          1           0        4.186771    5.430254   -4.058102
     82          1           0        7.879276    5.959364   -0.919993
     83          1           0        6.699536    6.202517    0.474692
     84          1           0        7.111577    7.557731   -0.576502
     85          1           0        8.113257    3.531669    2.563852
     86          1           0        9.315775    0.759174    2.818222
     87          1           0       10.322949    3.907930    2.132548
     88          1           0       10.046114    3.088574    0.594977
     89          1           0       10.798673    2.218319    1.841077
     90          1           0        6.825890    1.416547    4.370253
     91          1           0        8.207320    2.492830    4.644512
     92          1           0        7.912886   -0.435773    5.475687
     93          1           0        8.715071    0.923559    6.275909
     94          1           0        9.473910   -0.090737    4.969983
     95          1           0        6.581015   -3.199498    4.205359
     96          1           0        7.970659   -3.839651    3.222369
     97          1           0        6.460567   -4.762281    3.311935
     98          1           0        2.341417   -4.359276    0.032842
     99          1           0        5.677527   -5.825105   -3.249666
    100          1           0        6.280167   -4.231659   -3.645722
    101          1           0        4.569543   -4.665310   -4.090154
    102          1           0       -4.557017   -2.723875   -0.097714
    103          1           0       -4.460501   -2.055928   -1.703072
    104          1           0       -3.523442    0.032250   -0.732287
    105          1           0       -5.166398   -2.365997    1.921114
    106          1           0       -6.014252   -1.089377    2.264612
    107          1           0       -4.526515   -1.185379    3.178038
    108          1           0       -3.574446    1.544293    1.223007
    109          1           0       -4.631701    1.242971    2.579908
    110          1           0       -6.222046    1.116561    0.190342
    111          1           0       -5.369079    2.681640    0.299610
    112          1           0       -6.520785    3.354290    1.779554
    113          1           0       -6.523598    2.018642    2.973304
    114          1           0       -8.426579    2.205740    0.611971
    115          1           0      -10.028669    2.972970    2.681501
    116          1           0       -9.219462    3.933405    1.306594
    117          1           0       -8.542541    3.935290    2.914519
    118          1           0       -9.675402    0.862002    2.704596
    119          1           0       -8.062719    0.149988    2.606641
    120          1           0       -8.231833   -0.960061    0.615966
    121          1           0       -9.104757    0.376471   -0.103511
    122          1           0      -10.597255   -1.431786    1.926527
    123          1           0      -10.110939   -1.978897    0.274535
    124          1           0      -11.253004    0.748927    0.427283
    125          1           0      -12.921200   -0.493187   -1.220018
    126          1           0      -11.534724   -1.640344   -1.389214
    127          1           0      -11.295833    0.059990   -1.696667
    128          1           0      -12.396746   -0.419384    2.382965
    129          1           0      -13.155198   -1.470386    1.238301
    130          1           0      -13.464874    1.532415    0.658894
    131          1           0      -14.229153    1.038046    2.140137
    132          1           0      -15.802039   -0.208794    1.276621
    133          1           0      -14.907872   -0.751537   -0.138687
    134          1           0      -15.287573    2.170578   -0.199372
    135          1           0      -17.705139    1.842439   -0.709089
    136          1           0      -17.227029    1.978910    0.914165
    137          1           0      -17.703123    0.304117    0.374357
    138          1           0      -15.190790    1.909345   -2.210046
    139          1           0      -16.406574    0.727675   -2.544541
    140          1           0      -14.796333    0.154574   -1.945734
 ---------------------------------------------------------------------

 SCF Done:  E(RCAM-B3LYP) =  -3007.11522515     A.U. after   19 cycles

 Excitation energies and oscillator strengths:

 Excited State   1:      Singlet-A      1.6474 eV  752.59 nm  f=0.3669  <S**2>=0.000
     245 -> 248       -0.17882
     246 -> 247        0.68695
     245 <- 248       -0.11042
 This state for optimization and/or second-order correction.
 Total Energy, E(TD-HF/TD-DFT) =  -3007.05468313
 Copying the excited state density for this state as the 1-particle RhoCI density.

 Excited State   2:      Singlet-A      2.2676 eV  546.76 nm  f=0.0577  <S**2>=0.000
     245 -> 247        0.60701
     246 -> 248        0.35183

 Excited State   3:      Singlet-A      3.3043 eV  375.22 nm  f=0.0644  <S**2>=0.000
     244 -> 247        0.63204
     245 -> 247        0.10295
     246 -> 248       -0.27071

 Excited State   4:      Singlet-A      3.4193 eV  362.60 nm  f=0.5311  <S**2>=0.000
     241 -> 247        0.18881
     243 -> 247       -0.12388
     244 -> 247        0.25360
     245 -> 247       -0.29497
     246 -> 248        0.49293
     246 -> 249       -0.13778

 Excited State   5:      Singlet-A      3.4649 eV  357.83 nm  f=0.0300  <S**2>=0.000
     243 -> 247        0.52631
     243 -> 248        0.13135
     243 -> 249        0.23425
     243 -> 251       -0.29128
     246 -> 248        0.10665

 The electronic state is 1-A.
 Alpha  occ. eigenvalues --  -46.88854 -19.26739 -19.24771 -19.20568 -19.19810
 Alpha  occ. eigenvalues --  -19.19230 -19.17810 -14.42137 -14.42060 -14.39445
 Alpha  occ. eigenvalues --  -14.39149 -10.39819 -10.39511 -10.36526 -10.34543
 Alpha  occ. eigenvalues --  -10.32822 -10.32138 -10.31366 -10.31252 -10.30811
 Alpha  occ. eigenvalues --  -10.30607 -10.30140 -10.29629 -10.29195 -10.29129
 Alpha  occ. eigenvalues --  -10.29005 -10.28887 -10.28534 -10.28024 -10.27883
 Alpha  occ. eigenvalues --  -10.27744 -10.27671 -10.27560 -10.27395 -10.27327
 Alpha  occ. eigenvalues --  -10.27258 -10.26979 -10.26921 -10.26835 -10.26820
 Alpha  occ. eigenvalues --  -10.26685 -10.26562 -10.26376 -10.26236 -10.25983
 Alpha  occ. eigenvalues --  -10.25936 -10.25858 -10.25691 -10.25686 -10.25638
 Alpha  occ. eigenvalues --  -10.25528 -10.25415 -10.25382 -10.25369 -10.25278
 Alpha  occ. eigenvalues --  -10.25269 -10.25250 -10.25118 -10.24809 -10.24805
 Alpha  occ. eigenvalues --  -10.24754 -10.24585 -10.24370 -10.24316 -10.24123
 Alpha  occ. eigenvalues --  -10.24074  -3.17364  -1.92240  -1.91814  -1.91667
 Alpha  occ. eigenvalues --   -1.17010  -1.13951  -1.10836  -1.08438  -1.06580
 Alpha  occ. eigenvalues --   -1.06130  -1.04453  -1.03531  -1.02881  -1.02040
 Alpha  occ. eigenvalues --   -0.92422  -0.90411  -0.89589  -0.89454  -0.89266
 Alpha  occ. eigenvalues --   -0.88435  -0.88420  -0.87781  -0.87247  -0.87042
 Alpha  occ. eigenvalues --   -0.85485  -0.85106  -0.84524  -0.83755  -0.83072
 Alpha  occ. eigenvalues --   -0.82408  -0.81873  -0.81193  -0.80553  -0.80160
 Alpha  occ. eigenvalues --   -0.79866  -0.78023  -0.77604  -0.76719  -0.76480
 Alpha  occ. eigenvalues --   -0.75859  -0.75832  -0.75040  -0.74973  -0.73950
 Alpha  occ. eigenvalues --   -0.73011  -0.72753  -0.72190  -0.70296  -0.70008
 Alpha  occ. eigenvalues --   -0.69015  -0.68310  -0.67042  -0.66897  -0.65842
 Alpha  occ. eigenvalues --   -0.65552  -0.64980  -0.64701  -0.64227  -0.64142
 Alpha  occ. eigenvalues --   -0.63546  -0.62996  -0.62567  -0.62148  -0.59939
 Alpha  occ. eigenvalues --   -0.59547  -0.59448  -0.58653  -0.58443  -0.57514
 Alpha  occ. eigenvalues --   -0.57298  -0.56544  -0.55969  -0.55506  -0.55217
 Alpha  occ. eigenvalues --   -0.54952  -0.54606  -0.54499  -0.54310  -0.54013
 Alpha  occ. eigenvalues --   -0.53654  -0.53546  -0.53151  -0.52890  -0.52681
 Alpha  occ. eigenvalues --   -0.52523  -0.52402  -0.52016  -0.51631  -0.51487
 Alpha  occ. eigenvalues --   -0.51456  -0.51431  -0.51010  -0.50841  -0.50499
 Alpha  occ. eigenvalues --   -0.50183  -0.50130  -0.49944  -0.49837  -0.49640
 Alpha  occ. eigenvalues --   -0.49427  -0.49070  -0.48909  -0.48899  -0.48783
 Alpha  occ. eigenvalues --   -0.48725  -0.48320  -0.48019  -0.47666  -0.47457
 Alpha  occ. eigenvalues --   -0.47190  -0.47140  -0.46942  -0.46739  -0.46611
 Alpha  occ. eigenvalues --   -0.46492  -0.46407  -0.46226  -0.46066  -0.45902
 Alpha  occ. eigenvalues --   -0.45753  -0.45617  -0.45443  -0.45272  -0.45106
 Alpha  occ. eigenvalues --   -0.44967  -0.44719  -0.44456  -0.44213  -0.44121
 Alpha  occ. eigenvalues --   -0.43973  -0.43838  -0.43727  -0.43585  -0.43259
 Alpha  occ. eigenvalues --   -0.42943  -0.42635  -0.42373  -0.42243  -0.41958
 Alpha  occ. eigenvalues --   -0.41765  -0.41636  -0.41469  -0.41378  -0.41204
 Alpha  occ. eigenvalues --   -0.41142  -0.40984  -0.40770  -0.40744  -0.39846
 Alpha  occ. eigenvalues --   -0.39783  -0.39712  -0.39406  -0.39144  -0.39034
 Alpha  occ. eigenvalues --   -0.38484  -0.38163  -0.37565  -0.37543  -0.37323
 Alpha  occ. eigenvalues --   -0.37102  -0.36817  -0.36665  -0.36480  -0.36390
 Alpha  occ. eigenvalues --   -0.36033  -0.35307  -0.34604  -0.34328  -0.34266
 Alpha  occ. eigenvalues --   -0.33213  -0.33058  -0.32905  -0.31521  -0.31160
 Alpha  occ. eigenvalues --   -0.30346  -0.30119  -0.30042  -0.29167  -0.24294
 Alpha  occ. eigenvalues --   -0.20623
 Alpha virt. eigenvalues --   -0.08418  -0.02003  -0.00101   0.01403   0.02295
 Alpha virt. eigenvalues --    0.04626   0.04686   0.05144   0.05837   0.06879
 Alpha virt. eigenvalues --    0.07882   0.08249   0.08460   0.08892   0.09124

 Mulliken charges:
               1
     1  Mg   0.825030
     2  C   -0.041896
     3  C   -0.070835
     4  C   -0.084485
     5  C   -0.117990
     6  N   -0.298072
     7  C   -0.050663
     8  C    0.046771
     9  C   -0.065437
    10  C    0.014682
    11  C    0.043243
    12  C    0.079953
    13  C    0.054254
    14  C    0.149371
    15  O   -0.284887
    16  O   -0.282225
    17  N   -0.358540
    18  C    0.163046
    19  C   -0.144974
    20  C   -0.061911
    21  C    0.204795
    22  C    0.130247
    23  C   -0.024094
    24  O   -0.226494
    25  C    0.084790
    26  N   -0.313437
    27  C   -0.034176
    28  C   -0.018508
    29  C   -0.028625
    30  C    0.074805
    31  C    0.062012
    32  C    0.051045
    33  C   -0.004074
    34  N   -0.335483
    35  C    0.100978
    36  C   -0.190078
    37  C   -0.001642
    38  C    0.146216
    39  C    0.127999
    40  C    0.075832
    41  O   -0.146753
    42  C   -0.043126
    43  C    0.236413
    44  O   -0.236445
    45  O   -0.380937
    46  C    0.190237
    47  C    0.307387
    48  C   -0.157065
    49  C   -0.156761
    50  C    0.072790
    51  C    0.075584
    52  C    0.051359
    53  C    0.007617
    54  C   -0.157508
    55  C    0.040793
    56  C    0.089132
    57  C   -0.014832
    58  C    0.084418
    59  C   -0.166828
    60  C    0.097000
    61  C    0.023278
    62  C    0.025593
    63  C    0.027919
    64  C   -0.192370
    65  C    0.053642
    66  C    0.071341
    67  H   -0.031498
    68  H   -0.033514
    69  H   -0.044842
    70  H    0.009137
    71  H    0.034696
    72  H    0.016234
    73  H    0.021636
    74  H    0.023688
    75  H    0.020774
    76  H    0.029041
    77  H    0.019881
    78  H    0.013617
    79  H    0.036071
    80  H    0.006517
    81  H    0.033724
    82  H    0.046773
    83  H    0.036138
    84  H    0.026294
    85  H    0.018684
    86  H    0.007704
    87  H    0.020951
    88  H    0.011726
    89  H    0.020588
    90  H    0.022311
    91  H    0.007558
    92  H    0.018834
    93  H    0.021985
    94  H    0.016446
    95  H    0.033158
    96  H    0.033578
    97  H    0.032770
    98  H    0.039517
    99  H    0.044299
   100  H    0.035921
   101  H    0.039525
   102  H    0.000031
   103  H    0.050346
   104  H    0.005030
   105  H    0.007474
   106  H   -0.005076
   107  H    0.031901
   108  H    0.011677
   109  H   -0.009049
   110  H    0.008742
   111  H    0.006312
   112  H   -0.004469
   113  H    0.006318
   114  H   -0.012554
   115  H    0.009136
   116  H    0.012851
   117  H    0.008381
   118  H   -0.005611
   119  H   -0.008878
   120  H   -0.004406
   121  H    0.001952
   122  H   -0.001949
   123  H   -0.015118
   124  H   -0.004662
   125  H   -0.012776
   126  H    0.009321
   127  H    0.002828
   128  H   -0.012803
   129  H   -0.000038
   130  H    0.000830
   131  H   -0.003434
   132  H   -0.003561
   133  H   -0.004975
   134  H    0.000399
   135  H   -0.008346
   136  H   -0.000368
   137  H    0.033039
   138  H    0.003070
   139  H    0.009298
   140  H    0.010796
 Sum of Mulliken charges =  -0.00000

 Dipole moment (field-independent basis, Debye):
    X=              1.9589    Y=              1.9797    Z=              2.4258  Tot=              3.6934
 Quadrupole moment (field-independent basis, Debye-Ang):
   XX=           -335.0351   YY=           -466.2877   ZZ=           -393.0026
   XY=              6.9984   XZ=              5.4494   YZ=             20.4197

 Normal termination of Gaussian 16 at Wed May  4 03:20:55 2022.
