 Gaussian 16, Revision A.03,
 Gaussian 16:  ES64L-G16RevA.03 25-Dec-2016

 ---------------------------------
 #p PBE1PBE/Def2SVP td=(nstates=5)
 ---------------------------------

 -----------------------------------------------------
 step_1301_chromophore_5 TDDFT with PBE1PBE functional
 -----------------------------------------------------
 Symbolic Z-matrix:
 Charge =  0 Multiplicity = 1

                         Standard orientation:
 ---------------------------------------------------------------------
 Center     Atomic      Atomic             Coordinates (Angstroms)
 Number     Number       Type             X           Y           Z
 ---------------------------------------------------------------------
      1         12           0        5.622505    0.345153   -0.532468
      2          6           0        3.688129   -2.608192   -0.289031
      3          6           0        3.317669    1.753276   -2.643806
      4          6           0        7.081137    3.350739   -0.008661
      5          6           0        7.337083   -0.838879    2.373834
      6          7           0        3.653046   -0.292899   -1.264091
      7          6           0        3.202905   -1.610712   -1.187801
      8          6           0        1.913506   -1.706870   -2.007180
      9          6           0        1.875736   -0.342429   -2.739944
     10          6           0        3.023164    0.418716   -2.222225
     11          6           0        2.140242   -0.593025   -4.285992
     12          6           0        0.784284   -1.974030   -1.042700
     13          6           0       -0.324773   -2.947844   -1.567021
     14          6           0       -1.788560   -2.303449   -1.693885
     15          8           0       -2.038786   -1.524782   -2.645098
     16          8           0       -2.516047   -2.614935   -0.632483
     17          7           0        5.236055    2.281403   -1.306306
     18          6           0        4.279553    2.666813   -2.176764
     19          6           0        4.455169    4.022530   -2.519453
     20          6           0        5.466570    4.544340   -1.639777
     21          6           0        6.054996    3.341952   -0.963429
     22          6           0        3.563800    4.708792   -3.530590
     23          6           0        5.904632    6.013236   -1.438567
     24          8           0        5.318616    6.895954   -2.080314
     25          6           0        6.997586    6.474991   -0.537807
     26          7           0        6.938260    1.129390    0.947095
     27          6           0        7.562803    2.367697    0.897849
     28          6           0        8.538647    2.651455    2.080167
     29          6           0        8.403639    1.351168    2.888787
     30          6           0        7.446318    0.480160    2.070083
     31          6           0       10.021445    2.964082    1.677256
     32          6           0        7.912976    1.487347    4.343788
     33          6           0        8.574556    0.416141    5.320443
     34          7           0        5.724714   -1.369948    0.650036
     35          6           0        6.482773   -1.708878    1.753572
     36          6           0        6.186501   -3.109244    2.151350
     37          6           0        5.225103   -3.496656    1.271742
     38          6           0        4.879204   -2.397111    0.475958
     39          6           0        6.888428   -3.758862    3.322442
     40          6           0        4.461858   -4.692707    0.916777
     41          8           0        4.440191   -5.831496    1.354791
     42          6           0        3.381926   -4.125345   -0.190256
     43          6           0        3.789615   -4.794237   -1.465040
     44          8           0        3.228027   -5.814263   -1.918968
     45          8           0        4.928542   -4.201693   -2.080956
     46          6           0        5.380299   -4.783876   -3.372032
     47          6           0       -3.934370   -2.110632   -0.750004
     48          6           0       -3.938522   -0.734174   -0.077675
     49          6           0       -4.376840   -0.354437    1.145521
     50          6           0       -4.953713   -1.330472    2.186018
     51          6           0       -4.555319    1.153332    1.496011
     52          6           0       -5.711439    1.810775    0.857522
     53          6           0       -6.769575    2.306641    1.951045
     54          6           0       -8.275704    2.075736    1.682764
     55          6           0       -9.113681    3.331817    2.209686
     56          6           0       -8.832731    0.672895    2.040113
     57          6           0       -9.062188   -0.271816    0.771718
     58          6           0      -10.340343   -1.125428    0.913309
     59          6           0      -11.541849   -0.300823    0.368513
     60          6           0      -11.851305   -0.645038   -1.077178
     61          6           0      -12.784870   -0.452980    1.365399
     62          6           0      -13.867384    0.664817    1.182160
     63          6           0      -15.125359    0.115237    0.485529
     64          6           0      -15.765055    1.213851   -0.415266
     65          6           0      -17.258290    1.259329    0.095755
     66          6           0      -15.557287    0.933012   -1.892734
     67          1           0        2.581908    2.075228   -3.383449
     68          1           0        7.824206    4.145973    0.078079
     69          1           0        7.807180   -1.229971    3.277707
     70          1           0        2.130543   -2.518559   -2.702314
     71          1           0        1.032100    0.333450   -2.599015
     72          1           0        1.428276   -0.051418   -4.908527
     73          1           0        1.988181   -1.639243   -4.555412
     74          1           0        3.108158   -0.195160   -4.588295
     75          1           0        0.232409   -1.049156   -0.874237
     76          1           0        1.093888   -2.381297   -0.080095
     77          1           0       -0.356199   -3.926278   -1.088544
     78          1           0       -0.036366   -3.240656   -2.576681
     79          1           0        2.729300    5.188298   -3.019283
     80          1           0        3.136157    4.046919   -4.284177
     81          1           0        4.186771    5.430254   -4.058102
     82          1           0        7.879276    5.959364   -0.919993
     83          1           0        6.699536    6.202517    0.474692
     84          1           0        7.111577    7.557731   -0.576502
     85          1           0        8.113257    3.531669    2.563852
     86          1           0        9.315775    0.759174    2.818222
     87          1           0       10.322949    3.907930    2.132548
     88          1           0       10.046114    3.088574    0.594977
     89          1           0       10.798673    2.218319    1.841077
     90          1           0        6.825890    1.416547    4.370253
     91          1           0        8.207320    2.492830    4.644512
     92          1           0        7.912886   -0.435773    5.475687
     93          1           0        8.715071    0.923559    6.275909
     94          1           0        9.473910   -0.090737    4.969983
     95          1           0        6.581015   -3.199498    4.205359
     96          1           0        7.970659   -3.839651    3.222369
     97          1           0        6.460567   -4.762281    3.311935
     98          1           0        2.341417   -4.359276    0.032842
     99          1           0        5.677527   -5.825105   -3.249666
    100          1           0        6.280167   -4.231659   -3.645722
    101          1           0        4.569543   -4.665310   -4.090154
    102          1           0       -4.557017   -2.723875   -0.097714
    103          1           0       -4.460501   -2.055928   -1.703072
    104          1           0       -3.523442    0.032250   -0.732287
    105          1           0       -5.166398   -2.365997    1.921114
    106          1           0       -6.014252   -1.089377    2.264612
    107          1           0       -4.526515   -1.185379    3.178038
    108          1           0       -3.574446    1.544293    1.223007
    109          1           0       -4.631701    1.242971    2.579908
    110          1           0       -6.222046    1.116561    0.190342
    111          1           0       -5.369079    2.681640    0.299610
    112          1           0       -6.520785    3.354290    1.779554
    113          1           0       -6.523598    2.018642    2.973304
    114          1           0       -8.426579    2.205740    0.611971
    115          1           0      -10.028669    2.972970    2.681501
    116          1           0       -9.219462    3.933405    1.306594
    117          1           0       -8.542541    3.935290    2.914519
    118          1           0       -9.675402    0.862002    2.704596
    119          1           0       -8.062719    0.149988    2.606641
    120          1           0       -8.231833   -0.960061    0.615966
    121          1           0       -9.104757    0.376471   -0.103511
    122          1           0      -10.597255   -1.431786    1.926527
    123          1           0      -10.110939   -1.978897    0.274535
    124          1           0      -11.253004    0.748927    0.427283
    125          1           0      -12.921200   -0.493187   -1.220018
    126          1           0      -11.534724   -1.640344   -1.389214
    127          1           0      -11.295833    0.059990   -1.696667
    128          1           0      -12.396746   -0.419384    2.382965
    129          1           0      -13.155198   -1.470386    1.238301
    130          1           0      -13.464874    1.532415    0.658894
    131          1           0      -14.229153    1.038046    2.140137
    132          1           0      -15.802039   -0.208794    1.276621
    133          1           0      -14.907872   -0.751537   -0.138687
    134          1           0      -15.287573    2.170578   -0.199372
    135          1           0      -17.705139    1.842439   -0.709089
    136          1           0      -17.227029    1.978910    0.914165
    137          1           0      -17.703123    0.304117    0.374357
    138          1           0      -15.190790    1.909345   -2.210046
    139          1           0      -16.406574    0.727675   -2.544541
    140          1           0      -14.796333    0.154574   -1.945734
 ---------------------------------------------------------------------

 SCF Done:  E(RPBE1PBE) =  -3005.30525264     A.U. after   16 cycles

 Excitation energies and oscillator strengths:

 Excited State   1:      Singlet-A      1.8046 eV  687.05 nm  f=0.3572  <S**2>=0.000
     245 -> 248       -0.17134
     246 -> 247        0.69500
     246 <- 247       -0.11234
 This state for optimization and/or second-order correction.
 Total Energy, E(TD-HF/TD-DFT) =  -3005.23893515
 Copying the excited state density for this state as the 1-particle RhoCI density.

 Excited State   2:      Singlet-A      2.2664 eV  547.06 nm  f=0.0647  <S**2>=0.000
     245 -> 247        0.62651
     246 -> 248        0.31634

 Excited State   3:      Singlet-A      2.8909 eV  428.87 nm  f=0.0004  <S**2>=0.000
     243 -> 247        0.30033
     244 -> 247        0.60319
     244 -> 249        0.10220

 Excited State   4:      Singlet-A      2.9729 eV  417.04 nm  f=0.0010  <S**2>=0.000
     243 -> 247        0.61383
     244 -> 247       -0.32162

 Excited State   5:      Singlet-A      3.1525 eV  393.29 nm  f=0.0973  <S**2>=0.000
     239 -> 247        0.12147
     240 -> 247        0.15546
     241 -> 247        0.49642
     241 -> 249       -0.10872
     245 -> 247       -0.13939
     246 -> 248        0.36247
     246 -> 249       -0.13987

 The electronic state is 1-A.
 Alpha  occ. eigenvalues --  -46.92247 -19.27426 -19.25374 -19.20795 -19.20005
 Alpha  occ. eigenvalues --  -19.19581 -19.17999 -14.41679 -14.41592 -14.39120
 Alpha  occ. eigenvalues --  -14.38786 -10.36821 -10.36591 -10.33691 -10.31682
 Alpha  occ. eigenvalues --  -10.30214 -10.29307 -10.29193 -10.28987 -10.28502
 Alpha  occ. eigenvalues --  -10.28256 -10.27949 -10.27269 -10.26925 -10.26803
 Alpha  occ. eigenvalues --  -10.26752 -10.26704 -10.26427 -10.25723 -10.25602
 Alpha  occ. eigenvalues --  -10.25558 -10.25370 -10.25287 -10.25253 -10.25045
 Alpha  occ. eigenvalues --  -10.24929 -10.24647 -10.24543 -10.24478 -10.24331
 Alpha  occ. eigenvalues --  -10.24200 -10.24020 -10.23868 -10.23640 -10.23469
 Alpha  occ. eigenvalues --  -10.23467 -10.23426 -10.23269 -10.23230 -10.23207
 Alpha  occ. eigenvalues --  -10.23155 -10.23093 -10.23081 -10.22939 -10.22920
 Alpha  occ. eigenvalues --  -10.22847 -10.22731 -10.22678 -10.22397 -10.22308
 Alpha  occ. eigenvalues --  -10.22242 -10.22158 -10.21737 -10.21731 -10.21664
 Alpha  occ. eigenvalues --  -10.21514  -3.14335  -1.87150  -1.86705  -1.86560
 Alpha  occ. eigenvalues --   -1.11854  -1.08618  -1.05592  -1.03137  -1.01446
 Alpha  occ. eigenvalues --   -1.00897  -0.99133  -0.98162  -0.97496  -0.96677
 Alpha  occ. eigenvalues --   -0.86760  -0.84526  -0.83778  -0.83675  -0.83524
 Alpha  occ. eigenvalues --   -0.82762  -0.82535  -0.82132  -0.81396  -0.81376
 Alpha  occ. eigenvalues --   -0.79764  -0.79347  -0.78739  -0.78035  -0.77262
 Alpha  occ. eigenvalues --   -0.76584  -0.76065  -0.75431  -0.74810  -0.74486
 Alpha  occ. eigenvalues --   -0.74030  -0.72343  -0.71878  -0.70972  -0.70758
 Alpha  occ. eigenvalues --   -0.70022  -0.69942  -0.69379  -0.69096  -0.68114
 Alpha  occ. eigenvalues --   -0.67390  -0.67130  -0.66621  -0.64615  -0.64376
 Alpha  occ. eigenvalues --   -0.63469  -0.62518  -0.61457  -0.61143  -0.60320
 Alpha  occ. eigenvalues --   -0.60034  -0.59238  -0.59189  -0.58840  -0.58654
 Alpha  occ. eigenvalues --   -0.57669  -0.57183  -0.57070  -0.56355  -0.54518
 Alpha  occ. eigenvalues --   -0.54071  -0.53886  -0.53267  -0.53052  -0.52126
 Alpha  occ. eigenvalues --   -0.51683  -0.50921  -0.50549  -0.50040  -0.49737
 Alpha  occ. eigenvalues --   -0.49486  -0.49112  -0.49036  -0.48790  -0.48447
 Alpha  occ. eigenvalues --   -0.48204  -0.48045  -0.47743  -0.47379  -0.47303
 Alpha  occ. eigenvalues --   -0.47020  -0.46783  -0.46506  -0.46258  -0.46013
 Alpha  occ. eigenvalues --   -0.45988  -0.45974  -0.45625  -0.45387  -0.45127
 Alpha  occ. eigenvalues --   -0.44804  -0.44675  -0.44519  -0.44391  -0.44208
 Alpha  occ. eigenvalues --   -0.44060  -0.43664  -0.43630  -0.43509  -0.43345
 Alpha  occ. eigenvalues --   -0.43317  -0.42986  -0.42664  -0.42306  -0.42065
 Alpha  occ. eigenvalues --   -0.41861  -0.41743  -0.41614  -0.41433  -0.41332
 Alpha  occ. eigenvalues --   -0.41105  -0.41061  -0.40947  -0.40809  -0.40520
 Alpha  occ. eigenvalues --   -0.40469  -0.40371  -0.40120  -0.39965  -0.39863
 Alpha  occ. eigenvalues --   -0.39679  -0.39394  -0.39189  -0.38976  -0.38902
 Alpha  occ. eigenvalues --   -0.38751  -0.38541  -0.38487  -0.38353  -0.38039
 Alpha  occ. eigenvalues --   -0.37714  -0.37446  -0.37233  -0.37064  -0.36730
 Alpha  occ. eigenvalues --   -0.36453  -0.36429  -0.36247  -0.36217  -0.36073
 Alpha  occ. eigenvalues --   -0.35962  -0.35740  -0.35657  -0.35484  -0.34769
 Alpha  occ. eigenvalues --   -0.34647  -0.34581  -0.34304  -0.34113  -0.33959
 Alpha  occ. eigenvalues --   -0.33218  -0.33000  -0.32567  -0.32400  -0.32121
 Alpha  occ. eigenvalues --   -0.31977  -0.31872  -0.31693  -0.31414  -0.31273
 Alpha  occ. eigenvalues --   -0.30915  -0.30229  -0.29569  -0.29450  -0.29306
 Alpha  occ. eigenvalues --   -0.28649  -0.27936  -0.27899  -0.26783  -0.26677
 Alpha  occ. eigenvalues --   -0.25812  -0.25432  -0.24825  -0.24627  -0.21176
 Alpha  occ. eigenvalues --   -0.18352
 Alpha virt. eigenvalues --   -0.10955  -0.05452  -0.04328  -0.02103  -0.01373
 Alpha virt. eigenvalues --    0.00121   0.00157   0.00601   0.01500   0.02849
 Alpha virt. eigenvalues --    0.04450   0.04598   0.04767   0.05277   0.05729

 Mulliken charges:
               1
     1  Mg   0.965693
     2  C   -0.046496
     3  C   -0.062062
     4  C   -0.090444
     5  C   -0.103475
     6  N   -0.399567
     7  C    0.025978
     8  C   -0.032085
     9  C   -0.150850
    10  C    0.060479
    11  C   -0.009053
    12  C    0.027023
    13  C   -0.013743
    14  C    0.208667
    15  O   -0.313368
    16  O   -0.308331
    17  N   -0.474255
    18  C    0.187073
    19  C   -0.170388
    20  C   -0.111624
    21  C    0.235956
    22  C    0.074065
    23  C    0.026880
    24  O   -0.259831
    25  C    0.004232
    26  N   -0.411828
    27  C    0.014001
    28  C   -0.100079
    29  C   -0.104683
    30  C    0.111423
    31  C    0.007777
    32  C   -0.008939
    33  C   -0.077801
    34  N   -0.461112
    35  C    0.117955
    36  C   -0.195576
    37  C   -0.050311
    38  C    0.192414
    39  C    0.067379
    40  C    0.164711
    41  O   -0.191354
    42  C   -0.152763
    43  C    0.325441
    44  O   -0.271353
    45  O   -0.407890
    46  C    0.135978
    47  C    0.249374
    48  C   -0.157463
    49  C   -0.202485
    50  C    0.004602
    51  C    0.013367
    52  C   -0.010894
    53  C   -0.049008
    54  C   -0.239345
    55  C   -0.019678
    56  C    0.034630
    57  C   -0.084273
    58  C    0.029201
    59  C   -0.248829
    60  C    0.029841
    61  C   -0.035158
    62  C   -0.036806
    63  C   -0.027144
    64  C   -0.278442
    65  C   -0.014683
    66  C    0.007768
    67  H    0.000418
    68  H   -0.000064
    69  H   -0.009488
    70  H    0.049092
    71  H    0.068411
    72  H    0.043748
    73  H    0.048263
    74  H    0.051423
    75  H    0.054506
    76  H    0.062995
    77  H    0.050629
    78  H    0.046676
    79  H    0.063743
    80  H    0.032844
    81  H    0.061290
    82  H    0.072434
    83  H    0.063763
    84  H    0.054398
    85  H    0.054580
    86  H    0.045792
    87  H    0.048150
    88  H    0.038845
    89  H    0.046484
    90  H    0.054778
    91  H    0.041598
    92  H    0.046085
    93  H    0.050601
    94  H    0.042700
    95  H    0.061160
    96  H    0.060611
    97  H    0.062624
    98  H    0.074764
    99  H    0.065714
   100  H    0.057376
   101  H    0.060607
   102  H    0.029637
   103  H    0.076758
   104  H    0.034014
   105  H    0.032836
   106  H    0.029645
   107  H    0.059437
   108  H    0.044142
   109  H    0.023597
   110  H    0.043620
   111  H    0.038396
   112  H    0.029302
   113  H    0.037103
   114  H    0.026754
   115  H    0.035657
   116  H    0.040006
   117  H    0.035910
   118  H    0.026042
   119  H    0.028422
   120  H    0.028896
   121  H    0.033795
   122  H    0.029536
   123  H    0.018441
   124  H    0.035523
   125  H    0.025541
   126  H    0.035633
   127  H    0.030573
   128  H    0.020052
   129  H    0.032911
   130  H    0.031649
   131  H    0.030116
   132  H    0.029755
   133  H    0.026224
   134  H    0.036589
   135  H    0.021488
   136  H    0.029795
   137  H    0.059176
   138  H    0.030655
   139  H    0.036520
   140  H    0.039861
 Sum of Mulliken charges =  -0.00000

 Dipole moment (field-independent basis, Debye):
    X=              1.9704    Y=              2.0332    Z=              2.5230  Tot=              3.7923
 Quadrupole moment (field-independent basis, Debye-Ang):
   XX=           -330.3646   YY=           -464.0378   ZZ=           -389.2107
   XY=              6.5287   XZ=              6.9207   YZ=             20.3055

 Normal termination of Gaussian 16 at Wed May  4 03:41:31 2022.
