 Gaussian 16, Revision A.03,
 Gaussian 16:  ES64L-G16RevA.03 25-Dec-2016

 --------------------------------
 #p wB97XD/Def2SVP td=(nstates=5)
 --------------------------------

 ----------------------------------------------------
 step_1301_chromophore_5 TDDFT with wB97XD functional
 ----------------------------------------------------
 Symbolic Z-matrix:
 Charge =  0 Multiplicity = 1

                         Standard orientation:
 ---------------------------------------------------------------------
 Center     Atomic      Atomic             Coordinates (Angstroms)
 Number     Number       Type             X           Y           Z
 ---------------------------------------------------------------------
      1         12           0        5.622505    0.345153   -0.532468
      2          6           0        3.688129   -2.608192   -0.289031
      3          6           0        3.317669    1.753276   -2.643806
      4          6           0        7.081137    3.350739   -0.008661
      5          6           0        7.337083   -0.838879    2.373834
      6          7           0        3.653046   -0.292899   -1.264091
      7          6           0        3.202905   -1.610712   -1.187801
      8          6           0        1.913506   -1.706870   -2.007180
      9          6           0        1.875736   -0.342429   -2.739944
     10          6           0        3.023164    0.418716   -2.222225
     11          6           0        2.140242   -0.593025   -4.285992
     12          6           0        0.784284   -1.974030   -1.042700
     13          6           0       -0.324773   -2.947844   -1.567021
     14          6           0       -1.788560   -2.303449   -1.693885
     15          8           0       -2.038786   -1.524782   -2.645098
     16          8           0       -2.516047   -2.614935   -0.632483
     17          7           0        5.236055    2.281403   -1.306306
     18          6           0        4.279553    2.666813   -2.176764
     19          6           0        4.455169    4.022530   -2.519453
     20          6           0        5.466570    4.544340   -1.639777
     21          6           0        6.054996    3.341952   -0.963429
     22          6           0        3.563800    4.708792   -3.530590
     23          6           0        5.904632    6.013236   -1.438567
     24          8           0        5.318616    6.895954   -2.080314
     25          6           0        6.997586    6.474991   -0.537807
     26          7           0        6.938260    1.129390    0.947095
     27          6           0        7.562803    2.367697    0.897849
     28          6           0        8.538647    2.651455    2.080167
     29          6           0        8.403639    1.351168    2.888787
     30          6           0        7.446318    0.480160    2.070083
     31          6           0       10.021445    2.964082    1.677256
     32          6           0        7.912976    1.487347    4.343788
     33          6           0        8.574556    0.416141    5.320443
     34          7           0        5.724714   -1.369948    0.650036
     35          6           0        6.482773   -1.708878    1.753572
     36          6           0        6.186501   -3.109244    2.151350
     37          6           0        5.225103   -3.496656    1.271742
     38          6           0        4.879204   -2.397111    0.475958
     39          6           0        6.888428   -3.758862    3.322442
     40          6           0        4.461858   -4.692707    0.916777
     41          8           0        4.440191   -5.831496    1.354791
     42          6           0        3.381926   -4.125345   -0.190256
     43          6           0        3.789615   -4.794237   -1.465040
     44          8           0        3.228027   -5.814263   -1.918968
     45          8           0        4.928542   -4.201693   -2.080956
     46          6           0        5.380299   -4.783876   -3.372032
     47          6           0       -3.934370   -2.110632   -0.750004
     48          6           0       -3.938522   -0.734174   -0.077675
     49          6           0       -4.376840   -0.354437    1.145521
     50          6           0       -4.953713   -1.330472    2.186018
     51          6           0       -4.555319    1.153332    1.496011
     52          6           0       -5.711439    1.810775    0.857522
     53          6           0       -6.769575    2.306641    1.951045
     54          6           0       -8.275704    2.075736    1.682764
     55          6           0       -9.113681    3.331817    2.209686
     56          6           0       -8.832731    0.672895    2.040113
     57          6           0       -9.062188   -0.271816    0.771718
     58          6           0      -10.340343   -1.125428    0.913309
     59          6           0      -11.541849   -0.300823    0.368513
     60          6           0      -11.851305   -0.645038   -1.077178
     61          6           0      -12.784870   -0.452980    1.365399
     62          6           0      -13.867384    0.664817    1.182160
     63          6           0      -15.125359    0.115237    0.485529
     64          6           0      -15.765055    1.213851   -0.415266
     65          6           0      -17.258290    1.259329    0.095755
     66          6           0      -15.557287    0.933012   -1.892734
     67          1           0        2.581908    2.075228   -3.383449
     68          1           0        7.824206    4.145973    0.078079
     69          1           0        7.807180   -1.229971    3.277707
     70          1           0        2.130543   -2.518559   -2.702314
     71          1           0        1.032100    0.333450   -2.599015
     72          1           0        1.428276   -0.051418   -4.908527
     73          1           0        1.988181   -1.639243   -4.555412
     74          1           0        3.108158   -0.195160   -4.588295
     75          1           0        0.232409   -1.049156   -0.874237
     76          1           0        1.093888   -2.381297   -0.080095
     77          1           0       -0.356199   -3.926278   -1.088544
     78          1           0       -0.036366   -3.240656   -2.576681
     79          1           0        2.729300    5.188298   -3.019283
     80          1           0        3.136157    4.046919   -4.284177
     81          1           0        4.186771    5.430254   -4.058102
     82          1           0        7.879276    5.959364   -0.919993
     83          1           0        6.699536    6.202517    0.474692
     84          1           0        7.111577    7.557731   -0.576502
     85          1           0        8.113257    3.531669    2.563852
     86          1           0        9.315775    0.759174    2.818222
     87          1           0       10.322949    3.907930    2.132548
     88          1           0       10.046114    3.088574    0.594977
     89          1           0       10.798673    2.218319    1.841077
     90          1           0        6.825890    1.416547    4.370253
     91          1           0        8.207320    2.492830    4.644512
     92          1           0        7.912886   -0.435773    5.475687
     93          1           0        8.715071    0.923559    6.275909
     94          1           0        9.473910   -0.090737    4.969983
     95          1           0        6.581015   -3.199498    4.205359
     96          1           0        7.970659   -3.839651    3.222369
     97          1           0        6.460567   -4.762281    3.311935
     98          1           0        2.341417   -4.359276    0.032842
     99          1           0        5.677527   -5.825105   -3.249666
    100          1           0        6.280167   -4.231659   -3.645722
    101          1           0        4.569543   -4.665310   -4.090154
    102          1           0       -4.557017   -2.723875   -0.097714
    103          1           0       -4.460501   -2.055928   -1.703072
    104          1           0       -3.523442    0.032250   -0.732287
    105          1           0       -5.166398   -2.365997    1.921114
    106          1           0       -6.014252   -1.089377    2.264612
    107          1           0       -4.526515   -1.185379    3.178038
    108          1           0       -3.574446    1.544293    1.223007
    109          1           0       -4.631701    1.242971    2.579908
    110          1           0       -6.222046    1.116561    0.190342
    111          1           0       -5.369079    2.681640    0.299610
    112          1           0       -6.520785    3.354290    1.779554
    113          1           0       -6.523598    2.018642    2.973304
    114          1           0       -8.426579    2.205740    0.611971
    115          1           0      -10.028669    2.972970    2.681501
    116          1           0       -9.219462    3.933405    1.306594
    117          1           0       -8.542541    3.935290    2.914519
    118          1           0       -9.675402    0.862002    2.704596
    119          1           0       -8.062719    0.149988    2.606641
    120          1           0       -8.231833   -0.960061    0.615966
    121          1           0       -9.104757    0.376471   -0.103511
    122          1           0      -10.597255   -1.431786    1.926527
    123          1           0      -10.110939   -1.978897    0.274535
    124          1           0      -11.253004    0.748927    0.427283
    125          1           0      -12.921200   -0.493187   -1.220018
    126          1           0      -11.534724   -1.640344   -1.389214
    127          1           0      -11.295833    0.059990   -1.696667
    128          1           0      -12.396746   -0.419384    2.382965
    129          1           0      -13.155198   -1.470386    1.238301
    130          1           0      -13.464874    1.532415    0.658894
    131          1           0      -14.229153    1.038046    2.140137
    132          1           0      -15.802039   -0.208794    1.276621
    133          1           0      -14.907872   -0.751537   -0.138687
    134          1           0      -15.287573    2.170578   -0.199372
    135          1           0      -17.705139    1.842439   -0.709089
    136          1           0      -17.227029    1.978910    0.914165
    137          1           0      -17.703123    0.304117    0.374357
    138          1           0      -15.190790    1.909345   -2.210046
    139          1           0      -16.406574    0.727675   -2.544541
    140          1           0      -14.796333    0.154574   -1.945734
 ---------------------------------------------------------------------

 SCF Done:  E(RwB97XD) =  -3007.81691514     A.U. after   20 cycles

 Excitation energies and oscillator strengths:

 Excited State   1:      Singlet-A      1.5879 eV  780.82 nm  f=0.3655  <S**2>=0.000
     245 -> 248       -0.18455
     246 -> 247        0.68464
     245 <- 248       -0.12001
 This state for optimization and/or second-order correction.
 Total Energy, E(TD-HF/TD-DFT) =  -3007.75856228
 Copying the excited state density for this state as the 1-particle RhoCI density.

 Excited State   2:      Singlet-A      2.2115 eV  560.62 nm  f=0.0569  <S**2>=0.000
     245 -> 247        0.60641
     246 -> 248        0.35148

 Excited State   3:      Singlet-A      3.3245 eV  372.94 nm  f=0.0998  <S**2>=0.000
     244 -> 247        0.60312
     244 -> 249        0.10363
     245 -> 247        0.12237
     246 -> 248       -0.31139

 Excited State   4:      Singlet-A      3.4394 eV  360.48 nm  f=0.4875  <S**2>=0.000
     241 -> 247        0.21153
     243 -> 247       -0.15081
     243 -> 250        0.11099
     244 -> 247        0.29103
     245 -> 247       -0.27891
     246 -> 248        0.46165

 Excited State   5:      Singlet-A      3.4773 eV  356.55 nm  f=0.0604  <S**2>=0.000
     243 -> 247        0.50246
     243 -> 248        0.12720
     243 -> 249        0.24683
     243 -> 250       -0.29775
     245 -> 247       -0.10058
     246 -> 248        0.15156

 The electronic state is 1-A.
 Alpha  occ. eigenvalues --  -46.95203 -19.31970 -19.29982 -19.25625 -19.24772
 Alpha  occ. eigenvalues --  -19.24213 -19.22841 -14.46755 -14.46650 -14.44035
 Alpha  occ. eigenvalues --  -14.43747 -10.43696 -10.43349 -10.40575 -10.38521
 Alpha  occ. eigenvalues --  -10.36729 -10.35856 -10.35404 -10.35302 -10.34822
 Alpha  occ. eigenvalues --  -10.34677 -10.34120 -10.33695 -10.33223 -10.33117
 Alpha  occ. eigenvalues --  -10.32991 -10.32937 -10.32683 -10.32040 -10.31990
 Alpha  occ. eigenvalues --  -10.31820 -10.31792 -10.31588 -10.31463 -10.31425
 Alpha  occ. eigenvalues --  -10.31191 -10.31058 -10.30894 -10.30881 -10.30706
 Alpha  occ. eigenvalues --  -10.30595 -10.30448 -10.30232 -10.30084 -10.29858
 Alpha  occ. eigenvalues --  -10.29838 -10.29826 -10.29684 -10.29601 -10.29571
 Alpha  occ. eigenvalues --  -10.29448 -10.29442 -10.29353 -10.29281 -10.29209
 Alpha  occ. eigenvalues --  -10.29200 -10.29196 -10.29077 -10.28746 -10.28668
 Alpha  occ. eigenvalues --  -10.28641 -10.28510 -10.28187 -10.28143 -10.28000
 Alpha  occ. eigenvalues --  -10.27931  -3.21161  -1.94723  -1.94276  -1.94132
 Alpha  occ. eigenvalues --   -1.19222  -1.16095  -1.13091  -1.10656  -1.08779
 Alpha  occ. eigenvalues --   -1.08330  -1.06458  -1.05538  -1.04900  -1.04066
 Alpha  occ. eigenvalues --   -0.94382  -0.92198  -0.91344  -0.91329  -0.91120
 Alpha  occ. eigenvalues --   -0.90351  -0.90192  -0.89707  -0.89033  -0.88986
 Alpha  occ. eigenvalues --   -0.87436  -0.87014  -0.86398  -0.85640  -0.84925
 Alpha  occ. eigenvalues --   -0.84248  -0.83795  -0.83088  -0.82453  -0.82108
 Alpha  occ. eigenvalues --   -0.81693  -0.79951  -0.79502  -0.78636  -0.78418
 Alpha  occ. eigenvalues --   -0.77693  -0.77630  -0.76983  -0.76781  -0.75780
 Alpha  occ. eigenvalues --   -0.74953  -0.74707  -0.74157  -0.72217  -0.71922
 Alpha  occ. eigenvalues --   -0.71009  -0.70163  -0.69021  -0.68771  -0.67792
 Alpha  occ. eigenvalues --   -0.67516  -0.66824  -0.66700  -0.66240  -0.66122
 Alpha  occ. eigenvalues --   -0.65347  -0.64826  -0.64555  -0.63982  -0.61910
 Alpha  occ. eigenvalues --   -0.61495  -0.61405  -0.60628  -0.60421  -0.59534
 Alpha  occ. eigenvalues --   -0.59185  -0.58446  -0.57937  -0.57453  -0.57154
 Alpha  occ. eigenvalues --   -0.56899  -0.56489  -0.56464  -0.56206  -0.55891
 Alpha  occ. eigenvalues --   -0.55589  -0.55447  -0.55104  -0.54775  -0.54610
 Alpha  occ. eigenvalues --   -0.54413  -0.54324  -0.53888  -0.53576  -0.53419
 Alpha  occ. eigenvalues --   -0.53377  -0.53343  -0.52922  -0.52727  -0.52448
 Alpha  occ. eigenvalues --   -0.52096  -0.52019  -0.51850  -0.51776  -0.51514
 Alpha  occ. eigenvalues --   -0.51358  -0.50948  -0.50854  -0.50793  -0.50655
 Alpha  occ. eigenvalues --   -0.50646  -0.50224  -0.49916  -0.49569  -0.49332
 Alpha  occ. eigenvalues --   -0.49086  -0.49002  -0.48864  -0.48656  -0.48535
 Alpha  occ. eigenvalues --   -0.48328  -0.48300  -0.48156  -0.47997  -0.47778
 Alpha  occ. eigenvalues --   -0.47710  -0.47550  -0.47380  -0.47171  -0.47022
 Alpha  occ. eigenvalues --   -0.46895  -0.46597  -0.46367  -0.46141  -0.46052
 Alpha  occ. eigenvalues --   -0.45896  -0.45717  -0.45648  -0.45519  -0.45165
 Alpha  occ. eigenvalues --   -0.44831  -0.44528  -0.44303  -0.44167  -0.43866
 Alpha  occ. eigenvalues --   -0.43603  -0.43570  -0.43338  -0.43297  -0.43178
 Alpha  occ. eigenvalues --   -0.43064  -0.42844  -0.42719  -0.42581  -0.41735
 Alpha  occ. eigenvalues --   -0.41654  -0.41586  -0.41286  -0.41013  -0.40915
 Alpha  occ. eigenvalues --   -0.40310  -0.40035  -0.39583  -0.39408  -0.39152
 Alpha  occ. eigenvalues --   -0.39020  -0.38854  -0.38576  -0.38394  -0.38372
 Alpha  occ. eigenvalues --   -0.37895  -0.37168  -0.36462  -0.36331  -0.36269
 Alpha  occ. eigenvalues --   -0.35417  -0.34995  -0.34733  -0.33571  -0.33353
 Alpha  occ. eigenvalues --   -0.32480  -0.32138  -0.31968  -0.31356  -0.26220
 Alpha  occ. eigenvalues --   -0.22421
 Alpha virt. eigenvalues --   -0.06769  -0.00085   0.01993   0.04398   0.04605
 Alpha virt. eigenvalues --    0.06836   0.06853   0.07434   0.08301   0.09470
 Alpha virt. eigenvalues --    0.11098   0.11219   0.11521   0.11907   0.12474

 Mulliken charges:
               1
     1  Mg   0.957653
     2  C   -0.047963
     3  C   -0.083593
     4  C   -0.097683
     5  C   -0.118004
     6  N   -0.366502
     7  C   -0.006667
     8  C   -0.001402
     9  C   -0.127310
    10  C    0.048606
    11  C    0.001353
    12  C    0.038484
    13  C    0.001974
    14  C    0.199334
    15  O   -0.311941
    16  O   -0.309903
    17  N   -0.440594
    18  C    0.180769
    19  C   -0.163013
    20  C   -0.104547
    21  C    0.229087
    22  C    0.085144
    23  C    0.021870
    24  O   -0.255563
    25  C    0.019980
    26  N   -0.382547
    27  C   -0.001750
    28  C   -0.075185
    29  C   -0.074648
    30  C    0.100582
    31  C    0.016349
    32  C    0.002911
    33  C   -0.061420
    34  N   -0.423189
    35  C    0.110838
    36  C   -0.194943
    37  C   -0.048071
    38  C    0.176104
    39  C    0.079362
    40  C    0.147353
    41  O   -0.182105
    42  C   -0.115121
    43  C    0.303542
    44  O   -0.266162
    45  O   -0.408872
    46  C    0.150123
    47  C    0.271424
    48  C   -0.173123
    49  C   -0.186675
    50  C    0.024821
    51  C    0.032357
    52  C    0.004878
    53  C   -0.033207
    54  C   -0.209201
    55  C   -0.005690
    56  C    0.046568
    57  C   -0.056687
    58  C    0.042255
    59  C   -0.218992
    60  C    0.053087
    61  C   -0.015917
    62  C   -0.019829
    63  C   -0.011224
    64  C   -0.251241
    65  C    0.001454
    66  C    0.018860
    67  H   -0.006223
    68  H   -0.013500
    69  H   -0.023030
    70  H    0.032350
    71  H    0.061325
    72  H    0.038666
    73  H    0.042552
    74  H    0.044063
    75  H    0.046528
    76  H    0.052879
    77  H    0.046116
    78  H    0.038685
    79  H    0.060110
    80  H    0.028038
    81  H    0.057145
    82  H    0.066585
    83  H    0.057928
    84  H    0.053773
    85  H    0.045492
    86  H    0.031022
    87  H    0.043180
    88  H    0.032138
    89  H    0.042377
    90  H    0.047600
    91  H    0.032817
    92  H    0.038722
    93  H    0.046174
    94  H    0.036843
    95  H    0.055541
    96  H    0.056511
    97  H    0.058029
    98  H    0.070018
    99  H    0.062048
   100  H    0.054281
   101  H    0.056784
   102  H    0.022829
   103  H    0.073910
   104  H    0.030756
   105  H    0.028499
   106  H    0.012849
   107  H    0.055256
   108  H    0.037539
   109  H    0.013786
   110  H    0.029155
   111  H    0.033127
   112  H    0.020271
   113  H    0.027716
   114  H    0.011159
   115  H    0.029617
   116  H    0.034538
   117  H    0.029713
   118  H    0.016366
   119  H    0.015477
   120  H    0.020245
   121  H    0.020722
   122  H    0.021071
   123  H    0.010038
   124  H    0.017131
   125  H    0.002482
   126  H    0.030287
   127  H    0.025227
   128  H    0.010900
   129  H    0.023160
   130  H    0.021029
   131  H    0.023051
   132  H    0.020799
   133  H    0.014737
   134  H    0.025402
   135  H    0.014433
   136  H    0.022658
   137  H    0.053846
   138  H    0.025054
   139  H    0.032500
   140  H    0.032456
 Sum of Mulliken charges =  -0.00000

 Dipole moment (field-independent basis, Debye):
    X=              2.0096    Y=              2.0879    Z=              2.3927  Tot=              3.7581
 Quadrupole moment (field-independent basis, Debye-Ang):
   XX=           -329.8084   YY=           -462.6418   ZZ=           -389.0631
   XY=              7.1952   XZ=              5.8718   YZ=             20.2785

 Normal termination of Gaussian 16 at Wed May  4 04:13:55 2022.
