 Gaussian 16, Revision A.03,
 Gaussian 16:  ES64L-G16RevA.03 25-Dec-2016

 --------------------
 #p ZINDO=(nstates=5)
 --------------------

 -----------------------------
 step_1301_chromophore_5 ZINDO
 -----------------------------
 Symbolic Z-matrix:
 Charge =  0 Multiplicity = 1

                         Standard orientation:
 ---------------------------------------------------------------------
 Center     Atomic      Atomic             Coordinates (Angstroms)
 Number     Number       Type             X           Y           Z
 ---------------------------------------------------------------------
      1         12           0        5.622505    0.345153   -0.532468
      2          6           0        3.688129   -2.608192   -0.289031
      3          6           0        3.317669    1.753276   -2.643806
      4          6           0        7.081137    3.350739   -0.008661
      5          6           0        7.337083   -0.838879    2.373834
      6          7           0        3.653046   -0.292899   -1.264091
      7          6           0        3.202905   -1.610712   -1.187801
      8          6           0        1.913506   -1.706870   -2.007180
      9          6           0        1.875736   -0.342429   -2.739944
     10          6           0        3.023164    0.418716   -2.222225
     11          6           0        2.140242   -0.593025   -4.285992
     12          6           0        0.784284   -1.974030   -1.042700
     13          6           0       -0.324773   -2.947844   -1.567021
     14          6           0       -1.788560   -2.303449   -1.693885
     15          8           0       -2.038786   -1.524782   -2.645098
     16          8           0       -2.516047   -2.614935   -0.632483
     17          7           0        5.236055    2.281403   -1.306306
     18          6           0        4.279553    2.666813   -2.176764
     19          6           0        4.455169    4.022530   -2.519453
     20          6           0        5.466570    4.544340   -1.639777
     21          6           0        6.054996    3.341952   -0.963429
     22          6           0        3.563800    4.708792   -3.530590
     23          6           0        5.904632    6.013236   -1.438567
     24          8           0        5.318616    6.895954   -2.080314
     25          6           0        6.997586    6.474991   -0.537807
     26          7           0        6.938260    1.129390    0.947095
     27          6           0        7.562803    2.367697    0.897849
     28          6           0        8.538647    2.651455    2.080167
     29          6           0        8.403639    1.351168    2.888787
     30          6           0        7.446318    0.480160    2.070083
     31          6           0       10.021445    2.964082    1.677256
     32          6           0        7.912976    1.487347    4.343788
     33          6           0        8.574556    0.416141    5.320443
     34          7           0        5.724714   -1.369948    0.650036
     35          6           0        6.482773   -1.708878    1.753572
     36          6           0        6.186501   -3.109244    2.151350
     37          6           0        5.225103   -3.496656    1.271742
     38          6           0        4.879204   -2.397111    0.475958
     39          6           0        6.888428   -3.758862    3.322442
     40          6           0        4.461858   -4.692707    0.916777
     41          8           0        4.440191   -5.831496    1.354791
     42          6           0        3.381926   -4.125345   -0.190256
     43          6           0        3.789615   -4.794237   -1.465040
     44          8           0        3.228027   -5.814263   -1.918968
     45          8           0        4.928542   -4.201693   -2.080956
     46          6           0        5.380299   -4.783876   -3.372032
     47          6           0       -3.934370   -2.110632   -0.750004
     48          6           0       -3.938522   -0.734174   -0.077675
     49          6           0       -4.376840   -0.354437    1.145521
     50          6           0       -4.953713   -1.330472    2.186018
     51          6           0       -4.555319    1.153332    1.496011
     52          6           0       -5.711439    1.810775    0.857522
     53          6           0       -6.769575    2.306641    1.951045
     54          6           0       -8.275704    2.075736    1.682764
     55          6           0       -9.113681    3.331817    2.209686
     56          6           0       -8.832731    0.672895    2.040113
     57          6           0       -9.062188   -0.271816    0.771718
     58          6           0      -10.340343   -1.125428    0.913309
     59          6           0      -11.541849   -0.300823    0.368513
     60          6           0      -11.851305   -0.645038   -1.077178
     61          6           0      -12.784870   -0.452980    1.365399
     62          6           0      -13.867384    0.664817    1.182160
     63          6           0      -15.125359    0.115237    0.485529
     64          6           0      -15.765055    1.213851   -0.415266
     65          6           0      -17.258290    1.259329    0.095755
     66          6           0      -15.557287    0.933012   -1.892734
     67          1           0        2.581908    2.075228   -3.383449
     68          1           0        7.824206    4.145973    0.078079
     69          1           0        7.807180   -1.229971    3.277707
     70          1           0        2.130543   -2.518559   -2.702314
     71          1           0        1.032100    0.333450   -2.599015
     72          1           0        1.428276   -0.051418   -4.908527
     73          1           0        1.988181   -1.639243   -4.555412
     74          1           0        3.108158   -0.195160   -4.588295
     75          1           0        0.232409   -1.049156   -0.874237
     76          1           0        1.093888   -2.381297   -0.080095
     77          1           0       -0.356199   -3.926278   -1.088544
     78          1           0       -0.036366   -3.240656   -2.576681
     79          1           0        2.729300    5.188298   -3.019283
     80          1           0        3.136157    4.046919   -4.284177
     81          1           0        4.186771    5.430254   -4.058102
     82          1           0        7.879276    5.959364   -0.919993
     83          1           0        6.699536    6.202517    0.474692
     84          1           0        7.111577    7.557731   -0.576502
     85          1           0        8.113257    3.531669    2.563852
     86          1           0        9.315775    0.759174    2.818222
     87          1           0       10.322949    3.907930    2.132548
     88          1           0       10.046114    3.088574    0.594977
     89          1           0       10.798673    2.218319    1.841077
     90          1           0        6.825890    1.416547    4.370253
     91          1           0        8.207320    2.492830    4.644512
     92          1           0        7.912886   -0.435773    5.475687
     93          1           0        8.715071    0.923559    6.275909
     94          1           0        9.473910   -0.090737    4.969983
     95          1           0        6.581015   -3.199498    4.205359
     96          1           0        7.970659   -3.839651    3.222369
     97          1           0        6.460567   -4.762281    3.311935
     98          1           0        2.341417   -4.359276    0.032842
     99          1           0        5.677527   -5.825105   -3.249666
    100          1           0        6.280167   -4.231659   -3.645722
    101          1           0        4.569543   -4.665310   -4.090154
    102          1           0       -4.557017   -2.723875   -0.097714
    103          1           0       -4.460501   -2.055928   -1.703072
    104          1           0       -3.523442    0.032250   -0.732287
    105          1           0       -5.166398   -2.365997    1.921114
    106          1           0       -6.014252   -1.089377    2.264612
    107          1           0       -4.526515   -1.185379    3.178038
    108          1           0       -3.574446    1.544293    1.223007
    109          1           0       -4.631701    1.242971    2.579908
    110          1           0       -6.222046    1.116561    0.190342
    111          1           0       -5.369079    2.681640    0.299610
    112          1           0       -6.520785    3.354290    1.779554
    113          1           0       -6.523598    2.018642    2.973304
    114          1           0       -8.426579    2.205740    0.611971
    115          1           0      -10.028669    2.972970    2.681501
    116          1           0       -9.219462    3.933405    1.306594
    117          1           0       -8.542541    3.935290    2.914519
    118          1           0       -9.675402    0.862002    2.704596
    119          1           0       -8.062719    0.149988    2.606641
    120          1           0       -8.231833   -0.960061    0.615966
    121          1           0       -9.104757    0.376471   -0.103511
    122          1           0      -10.597255   -1.431786    1.926527
    123          1           0      -10.110939   -1.978897    0.274535
    124          1           0      -11.253004    0.748927    0.427283
    125          1           0      -12.921200   -0.493187   -1.220018
    126          1           0      -11.534724   -1.640344   -1.389214
    127          1           0      -11.295833    0.059990   -1.696667
    128          1           0      -12.396746   -0.419384    2.382965
    129          1           0      -13.155198   -1.470386    1.238301
    130          1           0      -13.464874    1.532415    0.658894
    131          1           0      -14.229153    1.038046    2.140137
    132          1           0      -15.802039   -0.208794    1.276621
    133          1           0      -14.907872   -0.751537   -0.138687
    134          1           0      -15.287573    2.170578   -0.199372
    135          1           0      -17.705139    1.842439   -0.709089
    136          1           0      -17.227029    1.978910    0.914165
    137          1           0      -17.703123    0.304117    0.374357
    138          1           0      -15.190790    1.909345   -2.210046
    139          1           0      -16.406574    0.727675   -2.544541
    140          1           0      -14.796333    0.154574   -1.945734
 ---------------------------------------------------------------------

 SCF Done:  E(RZINDO/S) =  -473.962043662     A.U. after   20 cycles

 Excitation energies and oscillator strengths:

 Excited State   1:      Singlet-A      1.2075 eV 1026.80 nm  f=0.5841  <S**2>=0.000
     175 ->178        -0.18901
     176 ->177         0.66390
 This state for optimization and/or second-order correction.
 Total Energy, E(CIS/TDA) =  -473.917669732
 Copying the excited state density for this state as the 1-particle RhoCI density.

 Excited State   2:      Singlet-A      1.8973 eV  653.49 nm  f=0.0010  <S**2>=0.000
     175 ->177         0.48261
     176 ->178         0.49521

 Excited State   3:      Singlet-A      2.7861 eV  445.00 nm  f=0.0641  <S**2>=0.000
     175 ->177         0.14017
     176 ->178        -0.17639
     176 ->179         0.46961
     176 ->180         0.44476

 Excited State   4:      Singlet-A      2.8385 eV  436.79 nm  f=0.0444  <S**2>=0.000
     175 ->177        -0.10586
     176 ->178         0.12005
     176 ->179        -0.39465
     176 ->180         0.53530
     176 ->183         0.10044

 Excited State   5:      Singlet-A      2.9279 eV  423.46 nm  f=0.0129  <S**2>=0.000
     169 ->177         0.24298
     169 ->178         0.12148
     169 ->179         0.23718
     169 ->181        -0.31436
     169 ->183         0.13511
     169 ->185        -0.21376
     170 ->177         0.14793
     170 ->179         0.15016
     170 ->181        -0.19033
     170 ->185        -0.13242

 The electronic state is 1-A.
 Alpha  occ. eigenvalues --   -1.85229  -1.81741  -1.79892  -1.72596  -1.71516
 Alpha  occ. eigenvalues --   -1.68591  -1.65031  -1.60751  -1.58526  -1.56256
 Alpha  occ. eigenvalues --   -1.55479  -1.50160  -1.47908  -1.47201  -1.46836
 Alpha  occ. eigenvalues --   -1.44318  -1.42761  -1.40329  -1.38532  -1.37516
 Alpha  occ. eigenvalues --   -1.36368  -1.34064  -1.32633  -1.30654  -1.28415
 Alpha  occ. eigenvalues --   -1.27346  -1.26495  -1.22343  -1.20655  -1.18239
 Alpha  occ. eigenvalues --   -1.17239  -1.15400  -1.14218  -1.13712  -1.12588
 Alpha  occ. eigenvalues --   -1.12288  -1.10592  -1.09021  -1.05630  -1.04957
 Alpha  occ. eigenvalues --   -1.01931  -1.00598  -0.99078  -0.98883  -0.98268
 Alpha  occ. eigenvalues --   -0.97052  -0.94840  -0.94063  -0.92997  -0.92922
 Alpha  occ. eigenvalues --   -0.91079  -0.90374  -0.88225  -0.87504  -0.85749
 Alpha  occ. eigenvalues --   -0.85355  -0.84182  -0.82901  -0.82780  -0.80799
 Alpha  occ. eigenvalues --   -0.79650  -0.79082  -0.77514  -0.76610  -0.76092
 Alpha  occ. eigenvalues --   -0.76053  -0.75214  -0.73823  -0.73600  -0.73295
 Alpha  occ. eigenvalues --   -0.72886  -0.72346  -0.72077  -0.71453  -0.70953
 Alpha  occ. eigenvalues --   -0.70367  -0.68871  -0.68648  -0.68010  -0.67547
 Alpha  occ. eigenvalues --   -0.67160  -0.66795  -0.66430  -0.65960  -0.65420
 Alpha  occ. eigenvalues --   -0.65323  -0.64902  -0.64292  -0.64067  -0.63881
 Alpha  occ. eigenvalues --   -0.63659  -0.63485  -0.63083  -0.62636  -0.62308
 Alpha  occ. eigenvalues --   -0.61554  -0.61307  -0.61300  -0.60872  -0.59836
 Alpha  occ. eigenvalues --   -0.59699  -0.59451  -0.59164  -0.58708  -0.58394
 Alpha  occ. eigenvalues --   -0.58333  -0.57690  -0.57361  -0.56384  -0.56109
 Alpha  occ. eigenvalues --   -0.55784  -0.55695  -0.55512  -0.55295  -0.54839
 Alpha  occ. eigenvalues --   -0.54601  -0.54354  -0.54065  -0.53618  -0.53268
 Alpha  occ. eigenvalues --   -0.52675  -0.52367  -0.52117  -0.51978  -0.51886
 Alpha  occ. eigenvalues --   -0.51812  -0.51463  -0.51182  -0.50708  -0.50599
 Alpha  occ. eigenvalues --   -0.50511  -0.50196  -0.49724  -0.49438  -0.49174
 Alpha  occ. eigenvalues --   -0.49008  -0.48749  -0.48349  -0.48116  -0.47986
 Alpha  occ. eigenvalues --   -0.47411  -0.47014  -0.46587  -0.46537  -0.46470
 Alpha  occ. eigenvalues --   -0.46364  -0.45988  -0.45622  -0.45536  -0.45325
 Alpha  occ. eigenvalues --   -0.45237  -0.45123  -0.44486  -0.44282  -0.43666
 Alpha  occ. eigenvalues --   -0.43470  -0.43108  -0.42524  -0.42318  -0.41977
 Alpha  occ. eigenvalues --   -0.41724  -0.41314  -0.40335  -0.39329  -0.38747
 Alpha  occ. eigenvalues --   -0.38407  -0.37276  -0.35652  -0.35249  -0.34981
 Alpha  occ. eigenvalues --   -0.33477  -0.32773  -0.32300  -0.32065  -0.27121
 Alpha  occ. eigenvalues --   -0.21389
 Alpha virt. eigenvalues --   -0.08349  -0.02618  -0.01035   0.00549   0.00846
 Alpha virt. eigenvalues --    0.01416   0.02618   0.02728   0.04440   0.04782
 Alpha virt. eigenvalues --    0.05882   0.06591   0.06834   0.07953   0.08240

 Mulliken charges:
               1
     1  Mg   0.430448
     2  C   -0.064222
     3  C   -0.091183
     4  C   -0.083354
     5  C   -0.058930
     6  N   -0.288268
     7  C    0.106525
     8  C    0.016209
     9  C    0.011151
    10  C    0.162583
    11  C   -0.055879
    12  C   -0.011414
    13  C   -0.015081
    14  C    0.469213
    15  O   -0.539540
    16  O   -0.229200
    17  N   -0.329880
    18  C    0.134139
    19  C    0.043256
    20  C   -0.051512
    21  C    0.122191
    22  C   -0.035884
    23  C    0.322766
    24  O   -0.533830
    25  C   -0.020774
    26  N   -0.283184
    27  C    0.118031
    28  C    0.012310
    29  C   -0.000361
    30  C    0.106185
    31  C   -0.054148
    32  C   -0.026395
    33  C   -0.062715
    34  N   -0.315865
    35  C    0.079146
    36  C    0.018613
    37  C   -0.038180
    38  C    0.115668
    39  C   -0.039714
    40  C    0.330086
    41  O   -0.494388
    42  C    0.057367
    43  C    0.475856
    44  O   -0.523638
    45  O   -0.286594
    46  C    0.077904
    47  C    0.099903
    48  C   -0.086023
    49  C   -0.010330
    50  C   -0.056209
    51  C   -0.013694
    52  C   -0.024081
    53  C   -0.046423
    54  C   -0.023790
    55  C   -0.066231
    56  C   -0.037639
    57  C   -0.036234
    58  C   -0.039759
    59  C   -0.016909
    60  C   -0.055355
    61  C   -0.042819
    62  C   -0.038344
    63  C   -0.038986
    64  C   -0.020217
    65  C   -0.067211
    66  C   -0.062080
    67  H    0.024220
    68  H    0.023905
    69  H    0.026544
    70  H    0.041477
    71  H    0.049628
    72  H    0.017072
    73  H    0.026537
    74  H    0.027712
    75  H    0.030015
    76  H    0.030384
    77  H    0.036441
    78  H    0.030270
    79  H    0.040504
    80  H    0.021946
    81  H    0.036292
    82  H    0.042171
    83  H    0.038886
    84  H    0.040521
    85  H    0.035628
    86  H    0.032008
    87  H    0.019644
    88  H    0.016494
    89  H    0.030009
    90  H    0.031296
    91  H    0.016488
    92  H    0.017507
    93  H    0.020350
    94  H    0.026969
    95  H    0.034728
    96  H    0.036764
    97  H    0.029815
    98  H    0.064008
    99  H    0.049703
   100  H    0.031713
   101  H    0.045938
   102  H    0.029029
   103  H    0.067220
   104  H    0.029650
   105  H    0.029276
   106  H    0.016433
   107  H    0.033697
   108  H    0.021163
   109  H    0.017819
   110  H    0.023210
   111  H    0.023330
   112  H    0.012990
   113  H    0.028115
   114  H    0.012552
   115  H    0.025798
   116  H    0.022878
   117  H    0.018751
   118  H    0.029783
   119  H    0.013693
   120  H    0.015320
   121  H    0.024428
   122  H    0.027236
   123  H    0.016208
   124  H    0.019572
   125  H    0.022290
   126  H    0.023876
   127  H    0.013886
   128  H    0.011334
   129  H    0.020844
   130  H    0.023926
   131  H    0.014933
   132  H    0.017070
   133  H    0.020272
   134  H    0.024224
   135  H    0.012525
   136  H    0.014528
   137  H    0.040168
   138  H    0.012831
   139  H    0.026313
   140  H    0.026161
 Sum of Mulliken charges =  -0.00000

 Dipole moment (field-independent basis, Debye):
    X=              2.8465    Y=              3.1175    Z=              2.4757  Tot=              4.8939
 N-N= 4.305592584162D+03 E-N= 0.000000000000D+00  KE=-9.284919044166D+03
 Leave Link  601 at Wed May  4 04:26:54 2022, MaxMem=  6710886400 cpu:               0.8 elap:               0.0
 (Enter /sw/apps/gaussian-16.0/g16/l9999.exe)
 1\1\GINC-BP1-COMPUTE050\SP\RZINDO CIS\STO-3G\C55H74Mg1N4O6\OF15641\04-
 May-2022\0\\#p ZINDO=(nstates=5)\\step_1301_chromophore_5 ZINDO\\0,1\M
 g,0,24.812,-8.98,46.287\C,0,27.108,-6.773,44.744\C,0,22.258,-7.782,44.
 339\C,0,22.956,-11.657,47.195\C,0,27.689,-10.75,47.461\N,0,24.721,-7.5
 48,44.625\C,0,25.744,-6.643,44.343\C,0,25.219,-5.666,43.288\C,0,23.708
 ,-6.004,43.236\C,0,23.527,-7.155,44.134\C,0,22.898,-4.79,43.863\C,0,25
 .998,-5.91,42.019\C,0,26.337,-4.627,41.187\C,0,25.698,-4.584,39.716\O,

 Normal termination of Gaussian 16 at Wed May  4 04:26:54 2022.
