 Gaussian 16, Revision A.03,
 Gaussian 16:  ES64L-G16RevA.03 25-Dec-2016

 ------------------------------
 #p blyp/Def2SVP td=(nstates=5)
 ------------------------------

 -------------------------------------------------
 step_851_chromophore_3 TDDFT with blyp functional
 -------------------------------------------------
 Symbolic Z-matrix:
 Charge =  0 Multiplicity = 1

                         Standard orientation:
 ---------------------------------------------------------------------
 Center     Atomic      Atomic             Coordinates (Angstroms)
 Number     Number       Type             X           Y           Z
 ---------------------------------------------------------------------
      1         12           0       -5.432417    0.844709   -0.267474
      2          6           0       -4.470227   -2.511701    0.126332
      3          6           0       -2.034499    1.647058    0.054753
      4          6           0       -6.262028    4.057244    0.107513
      5          6           0       -8.782649   -0.203212   -0.122556
      6          7           0       -3.435549   -0.435936    0.085526
      7          6           0       -3.293056   -1.733736    0.123700
      8          6           0       -1.806074   -2.094040   -0.009482
      9          6           0       -1.030355   -0.733818    0.013179
     10          6           0       -2.229451    0.227801   -0.014909
     11          6           0       -0.155909   -0.560741    1.179881
     12          6           0       -1.653433   -2.772372   -1.461479
     13          6           0       -0.329979   -3.590203   -1.588572
     14          6           0        0.865600   -3.382899   -0.517391
     15          8           0        0.927066   -3.864274    0.622839
     16          8           0        1.909180   -2.692885   -1.108880
     17          7           0       -4.346997    2.641655    0.132937
     18          6           0       -2.930926    2.710278    0.261308
     19          6           0       -2.586740    4.093737    0.325346
     20          6           0       -3.800791    4.843640    0.443635
     21          6           0       -4.885417    3.864191    0.348713
     22          6           0       -1.155141    4.559005    0.447048
     23          6           0       -4.052562    6.307281    0.401037
     24          8           0       -5.157422    6.865410    0.527142
     25          6           0       -2.902779    7.247501    0.355123
     26          7           0       -7.254137    1.717001    0.080836
     27          6           0       -7.311543    3.086221    0.030762
     28          6           0       -8.756737    3.545717   -0.338602
     29          6           0       -9.569134    2.216250   -0.216657
     30          6           0       -8.493238    1.121025   -0.154260
     31          6           0       -9.401665    4.697975    0.508920
     32          6           0      -10.508851    1.951757   -1.352818
     33          6           0      -12.004665    2.007880   -0.895503
     34          7           0       -6.437602   -0.962518   -0.015358
     35          6           0       -7.821504   -1.304837   -0.005349
     36          6           0       -8.047320   -2.681799    0.250020
     37          6           0       -6.728583   -3.231973    0.235765
     38          6           0       -5.815911   -2.123541    0.094043
     39          6           0       -9.361245   -3.353211    0.298376
     40          6           0       -5.922428   -4.441108    0.364844
     41          8           0       -6.146594   -5.623875    0.632038
     42          6           0       -4.469590   -4.028312    0.094637
     43          6           0       -3.634478   -4.575017    1.193137
     44          8           0       -3.710967   -4.135749    2.337593
     45          8           0       -2.743047   -5.447536    0.628806
     46          6           0       -1.586036   -5.795334    1.426110
     47          6           0        3.160356   -2.729572   -0.286733
     48          6           0        4.208120   -2.259707   -1.250011
     49          6           0        5.543122   -2.537894   -1.151383
     50          6           0        6.279986   -3.008074    0.062070
     51          6           0        6.370281   -2.337021   -2.441207
     52          6           0        6.808534   -0.824308   -2.745759
     53          6           0        8.265356   -0.621019   -3.250932
     54          6           0        9.221891    0.018579   -2.184110
     55          6           0        9.461290   -0.802107   -0.890926
     56          6           0       10.573721    0.403250   -2.856680
     57          6           0       11.025511    1.859191   -2.603545
     58          6           0       12.522328    1.990050   -2.243629
     59          6           0       12.713009    2.646482   -0.831581
     60          6           0       13.914179    3.729448   -0.906881
     61          6           0       12.973587    1.550715    0.320731
     62          6           0       11.859733    1.503246    1.390747
     63          6           0       12.043204    0.394838    2.443772
     64          6           0       12.034591    0.861010    3.955621
     65          6           0       13.199751    0.154093    4.708057
     66          6           0       10.708022    0.839939    4.663382
     67          1           0       -0.974251    1.867194   -0.090116
     68          1           0       -6.648509    5.077652    0.058386
     69          1           0       -9.847114   -0.444625   -0.099234
     70          1           0       -1.527486   -2.776034    0.793568
     71          1           0       -0.510129   -0.452467   -0.902172
     72          1           0        0.726791   -0.135737    0.703220
     73          1           0        0.127726   -1.537348    1.572512
     74          1           0       -0.665635   -0.013194    1.972643
     75          1           0       -1.619685   -1.988652   -2.218006
     76          1           0       -2.427860   -3.494142   -1.722794
     77          1           0        0.037447   -3.282776   -2.568018
     78          1           0       -0.693177   -4.616607   -1.543587
     79          1           0       -0.749262    4.787548   -0.538370
     80          1           0       -0.522113    3.856854    0.988423
     81          1           0       -1.104300    5.374975    1.169213
     82          1           0       -2.294022    7.028796   -0.522431
     83          1           0       -2.242026    7.070194    1.204695
     84          1           0       -3.271732    8.245157    0.120061
     85          1           0       -8.721143    3.982099   -1.336729
     86          1           0      -10.099610    2.122813    0.730592
     87          1           0       -8.666332    4.824971    1.302440
     88          1           0      -10.370461    4.421966    0.925464
     89          1           0       -9.471472    5.646553   -0.023470
     90          1           0      -10.451080    0.958614   -1.799206
     91          1           0      -10.406950    2.665667   -2.170194
     92          1           0      -12.141428    2.205876    0.167515
     93          1           0      -12.463466    1.054369   -1.157889
     94          1           0      -12.656491    2.700578   -1.428862
     95          1           0       -9.915410   -3.015916   -0.577634
     96          1           0       -9.785521   -3.071146    1.262481
     97          1           0       -9.245281   -4.434007    0.223627
     98          1           0       -4.035012   -4.469068   -0.802918
     99          1           0       -0.701830   -5.813170    0.789655
    100          1           0       -1.710135   -6.828935    1.749087
    101          1           0       -1.274075   -5.139851    2.239513
    102          1           0        3.420896   -3.703937    0.125987
    103          1           0        3.092795   -2.070193    0.578382
    104          1           0        3.847329   -1.761062   -2.149800
    105          1           0        5.865864   -2.518011    0.943242
    106          1           0        7.363131   -2.904108    0.020267
    107          1           0        6.043992   -4.067415    0.165785
    108          1           0        5.965328   -2.745129   -3.366446
    109          1           0        7.303140   -2.869273   -2.254175
    110          1           0        6.657879   -0.269367   -1.819809
    111          1           0        6.156817   -0.430305   -3.525059
    112          1           0        8.384254   -0.085879   -4.193480
    113          1           0        8.707044   -1.564973   -3.570598
    114          1           0        8.690531    0.906306   -1.842638
    115          1           0       10.499374   -1.025910   -0.646026
    116          1           0        9.010234   -1.794912   -0.913918
    117          1           0        9.065803   -0.283099   -0.016750
    118          1           0       10.538379    0.210687   -3.928665
    119          1           0       11.368934   -0.277972   -2.553857
    120          1           0       10.369425    2.369986   -1.898692
    121          1           0       10.941064    2.455088   -3.511433
    122          1           0       12.983342    2.567552   -3.045521
    123          1           0       13.068666    1.052234   -2.346093
    124          1           0       11.844479    3.226317   -0.518521
    125          1           0       14.374126    3.857360   -1.886053
    126          1           0       14.672839    3.505527   -0.157625
    127          1           0       13.476392    4.697550   -0.663731
    128          1           0       13.970991    1.721937    0.725001
    129          1           0       13.050881    0.564932   -0.136689
    130          1           0       10.877814    1.308534    0.959414
    131          1           0       11.771194    2.488811    1.845617
    132          1           0       12.917364   -0.210226    2.200983
    133          1           0       11.278649   -0.375021    2.342245
    134          1           0       12.267032    1.922662    3.886591
    135          1           0       13.719151   -0.690488    4.256820
    136          1           0       12.827535   -0.166771    5.680758
    137          1           0       13.990971    0.878330    4.901387
    138          1           0       10.539696    0.026431    5.368465
    139          1           0        9.873401    0.818294    3.962231
    140          1           0       10.664218    1.803570    5.171089
 ---------------------------------------------------------------------

 SCF Done:  E(RB-LYP) =  -3007.36024055     A.U. after   22 cycles

 Excitation energies and oscillator strengths:

 Excited State   1:      Singlet-A      1.6973 eV  730.46 nm  f=0.0074  <S**2>=0.000
     243 -> 247        0.11602
     244 -> 247        0.63628
     245 -> 247        0.26587
 This state for optimization and/or second-order correction.
 Total Energy, E(TD-HF/TD-DFT) =  -3007.29786420
 Copying the excited state density for this state as the 1-particle RhoCI density.

 Excited State   2:      Singlet-A      1.7690 eV  700.88 nm  f=0.0083  <S**2>=0.000
     243 -> 247        0.64554
     244 -> 247       -0.19141
     245 -> 247        0.19828

 Excited State   3:      Singlet-A      1.8478 eV  670.98 nm  f=0.3085  <S**2>=0.000
     244 -> 247       -0.13040
     245 -> 248        0.20688
     246 -> 247        0.67199
     246 <- 247       -0.14357

 Excited State   4:      Singlet-A      1.9609 eV  632.30 nm  f=0.0767  <S**2>=0.000
     243 -> 247       -0.25737
     244 -> 247       -0.19520
     245 -> 247        0.57596
     246 -> 248       -0.21771

 Excited State   5:      Singlet-A      2.2409 eV  553.27 nm  f=0.0001  <S**2>=0.000
     242 -> 247        0.70706

 The electronic state is 1-A.
 Alpha  occ. eigenvalues --  -46.27889 -18.84139 -18.82539 -18.79018 -18.76140
 Alpha  occ. eigenvalues --  -18.74926 -18.74695 -14.03173 -14.02630 -14.01053
 Alpha  occ. eigenvalues --  -14.00984 -10.06224 -10.03196  -9.99036  -9.98956
 Alpha  occ. eigenvalues --   -9.98954  -9.96608  -9.96607  -9.96559  -9.96303
 Alpha  occ. eigenvalues --   -9.95856  -9.95756  -9.95587  -9.95566  -9.94901
 Alpha  occ. eigenvalues --   -9.94732  -9.94589  -9.94496  -9.94033  -9.93961
 Alpha  occ. eigenvalues --   -9.93691  -9.93613  -9.93592  -9.93500  -9.93480
 Alpha  occ. eigenvalues --   -9.93238  -9.93169  -9.93102  -9.92642  -9.92607
 Alpha  occ. eigenvalues --   -9.92578  -9.92550  -9.92513  -9.92444  -9.92377
 Alpha  occ. eigenvalues --   -9.92275  -9.92192  -9.92146  -9.92071  -9.92058
 Alpha  occ. eigenvalues --   -9.91816  -9.91756  -9.91550  -9.91510  -9.91508
 Alpha  occ. eigenvalues --   -9.91446  -9.91404  -9.91377  -9.91124  -9.91110
 Alpha  occ. eigenvalues --   -9.91108  -9.91081  -9.90965  -9.90913  -9.90903
 Alpha  occ. eigenvalues --   -9.90801  -2.92432  -1.72826  -1.72326  -1.72146
 Alpha  occ. eigenvalues --   -0.98610  -0.97489  -0.90845  -0.90367  -0.89929
 Alpha  occ. eigenvalues --   -0.89556  -0.87022  -0.85650  -0.84867  -0.84095
 Alpha  occ. eigenvalues --   -0.75141  -0.73721  -0.73321  -0.72526  -0.72413
 Alpha  occ. eigenvalues --   -0.71864  -0.71699  -0.70989  -0.70797  -0.70396
 Alpha  occ. eigenvalues --   -0.70010  -0.69176  -0.68091  -0.67121  -0.67010
 Alpha  occ. eigenvalues --   -0.66342  -0.65791  -0.65553  -0.65033  -0.64102
 Alpha  occ. eigenvalues --   -0.64064  -0.62779  -0.62412  -0.61473  -0.61113
 Alpha  occ. eigenvalues --   -0.60695  -0.60522  -0.59658  -0.59531  -0.58972
 Alpha  occ. eigenvalues --   -0.58096  -0.57940  -0.56535  -0.55446  -0.54172
 Alpha  occ. eigenvalues --   -0.53936  -0.53744  -0.52734  -0.52468  -0.51830
 Alpha  occ. eigenvalues --   -0.51163  -0.51144  -0.51116  -0.50692  -0.50485
 Alpha  occ. eigenvalues --   -0.50118  -0.49710  -0.49147  -0.48445  -0.46629
 Alpha  occ. eigenvalues --   -0.46209  -0.46027  -0.45687  -0.44766  -0.44069
 Alpha  occ. eigenvalues --   -0.43657  -0.43115  -0.43066  -0.42773  -0.42692
 Alpha  occ. eigenvalues --   -0.42135  -0.41762  -0.41410  -0.41269  -0.41217
 Alpha  occ. eigenvalues --   -0.40746  -0.40546  -0.40396  -0.40294  -0.40004
 Alpha  occ. eigenvalues --   -0.39888  -0.39757  -0.39565  -0.39399  -0.39235
 Alpha  occ. eigenvalues --   -0.39031  -0.39005  -0.38707  -0.38583  -0.38310
 Alpha  occ. eigenvalues --   -0.37999  -0.37924  -0.37819  -0.37606  -0.37192
 Alpha  occ. eigenvalues --   -0.36996  -0.36886  -0.36868  -0.36417  -0.36293
 Alpha  occ. eigenvalues --   -0.36220  -0.35922  -0.35747  -0.35627  -0.35494
 Alpha  occ. eigenvalues --   -0.35427  -0.35247  -0.35157  -0.34907  -0.34606
 Alpha  occ. eigenvalues --   -0.34567  -0.34375  -0.34315  -0.34158  -0.33940
 Alpha  occ. eigenvalues --   -0.33828  -0.33789  -0.33614  -0.33497  -0.33234
 Alpha  occ. eigenvalues --   -0.33107  -0.32880  -0.32508  -0.32391  -0.32223
 Alpha  occ. eigenvalues --   -0.32138  -0.31983  -0.31815  -0.31749  -0.31571
 Alpha  occ. eigenvalues --   -0.31488  -0.31061  -0.30990  -0.30936  -0.30730
 Alpha  occ. eigenvalues --   -0.30633  -0.30315  -0.29985  -0.29976  -0.29869
 Alpha  occ. eigenvalues --   -0.29379  -0.29344  -0.29296  -0.29122  -0.29022
 Alpha  occ. eigenvalues --   -0.28959  -0.28586  -0.28522  -0.28226  -0.28047
 Alpha  occ. eigenvalues --   -0.27776  -0.27471  -0.26981  -0.26928  -0.26807
 Alpha  occ. eigenvalues --   -0.26775  -0.26309  -0.26059  -0.26013  -0.25094
 Alpha  occ. eigenvalues --   -0.24804  -0.24748  -0.24067  -0.23874  -0.23691
 Alpha  occ. eigenvalues --   -0.23368  -0.23032  -0.22034  -0.21167  -0.20736
 Alpha  occ. eigenvalues --   -0.20218  -0.19901  -0.18098  -0.17883  -0.17008
 Alpha  occ. eigenvalues --   -0.16066
 Alpha virt. eigenvalues --   -0.11666  -0.06746  -0.06091  -0.05352  -0.04342
 Alpha virt. eigenvalues --   -0.03917  -0.03232  -0.02198  -0.01230   0.00185
 Alpha virt. eigenvalues --    0.01442   0.01573   0.01874   0.02509   0.02751

 Mulliken charges:
               1
     1  Mg   0.687297
     2  C    0.008193
     3  C   -0.052888
     4  C   -0.048801
     5  C   -0.078739
     6  N   -0.147930
     7  C   -0.089414
     8  C    0.027460
     9  C   -0.016966
    10  C   -0.066817
    11  C    0.163635
    12  C    0.071359
    13  C    0.129388
    14  C    0.119469
    15  O   -0.214973
    16  O   -0.275554
    17  N   -0.314883
    18  C    0.192736
    19  C   -0.154475
    20  C    0.048647
    21  C    0.131379
    22  C    0.169101
    23  C   -0.092354
    24  O   -0.190290
    25  C    0.148718
    26  N   -0.274666
    27  C    0.050456
    28  C   -0.021494
    29  C    0.078060
    30  C    0.038549
    31  C    0.110356
    32  C    0.102043
    33  C    0.029854
    34  N   -0.254150
    35  C    0.107742
    36  C   -0.200041
    37  C    0.078811
    38  C    0.094323
    39  C    0.189895
    40  C   -0.032967
    41  O   -0.145524
    42  C    0.049952
    43  C    0.095045
    44  O   -0.180176
    45  O   -0.265190
    46  C    0.208417
    47  C    0.311470
    48  C   -0.105463
    49  C   -0.174878
    50  C    0.166885
    51  C    0.121923
    52  C    0.099016
    53  C    0.072667
    54  C   -0.080590
    55  C    0.094373
    56  C    0.122434
    57  C    0.074345
    58  C    0.103672
    59  C   -0.073655
    60  C    0.080063
    61  C    0.098454
    62  C    0.058635
    63  C    0.098931
    64  C   -0.087665
    65  C    0.096554
    66  C    0.123271
    67  H   -0.063413
    68  H   -0.035680
    69  H   -0.060396
    70  H    0.006194
    71  H   -0.018598
    72  H   -0.012863
    73  H    0.005063
    74  H    0.004855
    75  H   -0.018550
    76  H   -0.009991
    77  H   -0.007498
    78  H    0.015719
    79  H    0.012522
    80  H   -0.007547
    81  H   -0.013315
    82  H   -0.022874
    83  H    0.017246
    84  H   -0.008720
    85  H   -0.012579
    86  H   -0.011627
    87  H   -0.000440
    88  H   -0.005653
    89  H   -0.004796
    90  H   -0.018755
    91  H   -0.025500
    92  H   -0.007016
    93  H   -0.018568
    94  H   -0.016927
    95  H    0.006661
    96  H    0.010836
    97  H    0.006028
    98  H   -0.003959
    99  H    0.002200
   100  H    0.007313
   101  H    0.030122
   102  H    0.008366
   103  H    0.007863
   104  H   -0.026546
   105  H   -0.000760
   106  H   -0.007149
   107  H    0.002852
   108  H   -0.016247
   109  H   -0.042311
   110  H   -0.025921
   111  H   -0.023938
   112  H   -0.036461
   113  H   -0.042512
   114  H   -0.030167
   115  H   -0.011491
   116  H   -0.025605
   117  H   -0.004473
   118  H   -0.046430
   119  H   -0.038975
   120  H   -0.025418
   121  H   -0.036609
   122  H   -0.044519
   123  H   -0.033641
   124  H   -0.026180
   125  H   -0.011650
   126  H   -0.016944
   127  H   -0.019097
   128  H   -0.032847
   129  H   -0.033838
   130  H   -0.031371
   131  H   -0.028029
   132  H   -0.043837
   133  H   -0.045568
   134  H   -0.034028
   135  H   -0.008545
   136  H   -0.028498
   137  H   -0.019550
   138  H   -0.011407
   139  H   -0.025497
   140  H   -0.015547
 Sum of Mulliken charges =  -0.00000

 Dipole moment (field-independent basis, Debye):
    X=              5.4706    Y=              1.3942    Z=             -5.1451  Tot=              7.6383
 Quadrupole moment (field-independent basis, Debye-Ang):
   XX=           -383.8066   YY=           -448.7945   ZZ=           -407.5494
   XY=            -15.6475   XZ=             21.9964   YZ=              7.1118

 Normal termination of Gaussian 16 at Thu May  5 12:42:14 2022.
