 Gaussian 16, Revision A.03,
 Gaussian 16:  ES64L-G16RevA.03 25-Dec-2016

 -----------------------------------
 #p cam-b3lyp/Def2SVP td=(nstates=5)
 -----------------------------------

 ------------------------------------------------------
 step_851_chromophore_3 TDDFT with cam-b3lyp functional
 ------------------------------------------------------
 Symbolic Z-matrix:
 Charge =  0 Multiplicity = 1

                         Standard orientation:
 ---------------------------------------------------------------------
 Center     Atomic      Atomic             Coordinates (Angstroms)
 Number     Number       Type             X           Y           Z
 ---------------------------------------------------------------------
      1         12           0       -5.432417    0.844709   -0.267474
      2          6           0       -4.470227   -2.511701    0.126332
      3          6           0       -2.034499    1.647058    0.054753
      4          6           0       -6.262028    4.057244    0.107513
      5          6           0       -8.782649   -0.203212   -0.122556
      6          7           0       -3.435549   -0.435936    0.085526
      7          6           0       -3.293056   -1.733736    0.123700
      8          6           0       -1.806074   -2.094040   -0.009482
      9          6           0       -1.030355   -0.733818    0.013179
     10          6           0       -2.229451    0.227801   -0.014909
     11          6           0       -0.155909   -0.560741    1.179881
     12          6           0       -1.653433   -2.772372   -1.461479
     13          6           0       -0.329979   -3.590203   -1.588572
     14          6           0        0.865600   -3.382899   -0.517391
     15          8           0        0.927066   -3.864274    0.622839
     16          8           0        1.909180   -2.692885   -1.108880
     17          7           0       -4.346997    2.641655    0.132937
     18          6           0       -2.930926    2.710278    0.261308
     19          6           0       -2.586740    4.093737    0.325346
     20          6           0       -3.800791    4.843640    0.443635
     21          6           0       -4.885417    3.864191    0.348713
     22          6           0       -1.155141    4.559005    0.447048
     23          6           0       -4.052562    6.307281    0.401037
     24          8           0       -5.157422    6.865410    0.527142
     25          6           0       -2.902779    7.247501    0.355123
     26          7           0       -7.254137    1.717001    0.080836
     27          6           0       -7.311543    3.086221    0.030762
     28          6           0       -8.756737    3.545717   -0.338602
     29          6           0       -9.569134    2.216250   -0.216657
     30          6           0       -8.493238    1.121025   -0.154260
     31          6           0       -9.401665    4.697975    0.508920
     32          6           0      -10.508851    1.951757   -1.352818
     33          6           0      -12.004665    2.007880   -0.895503
     34          7           0       -6.437602   -0.962518   -0.015358
     35          6           0       -7.821504   -1.304837   -0.005349
     36          6           0       -8.047320   -2.681799    0.250020
     37          6           0       -6.728583   -3.231973    0.235765
     38          6           0       -5.815911   -2.123541    0.094043
     39          6           0       -9.361245   -3.353211    0.298376
     40          6           0       -5.922428   -4.441108    0.364844
     41          8           0       -6.146594   -5.623875    0.632038
     42          6           0       -4.469590   -4.028312    0.094637
     43          6           0       -3.634478   -4.575017    1.193137
     44          8           0       -3.710967   -4.135749    2.337593
     45          8           0       -2.743047   -5.447536    0.628806
     46          6           0       -1.586036   -5.795334    1.426110
     47          6           0        3.160356   -2.729572   -0.286733
     48          6           0        4.208120   -2.259707   -1.250011
     49          6           0        5.543122   -2.537894   -1.151383
     50          6           0        6.279986   -3.008074    0.062070
     51          6           0        6.370281   -2.337021   -2.441207
     52          6           0        6.808534   -0.824308   -2.745759
     53          6           0        8.265356   -0.621019   -3.250932
     54          6           0        9.221891    0.018579   -2.184110
     55          6           0        9.461290   -0.802107   -0.890926
     56          6           0       10.573721    0.403250   -2.856680
     57          6           0       11.025511    1.859191   -2.603545
     58          6           0       12.522328    1.990050   -2.243629
     59          6           0       12.713009    2.646482   -0.831581
     60          6           0       13.914179    3.729448   -0.906881
     61          6           0       12.973587    1.550715    0.320731
     62          6           0       11.859733    1.503246    1.390747
     63          6           0       12.043204    0.394838    2.443772
     64          6           0       12.034591    0.861010    3.955621
     65          6           0       13.199751    0.154093    4.708057
     66          6           0       10.708022    0.839939    4.663382
     67          1           0       -0.974251    1.867194   -0.090116
     68          1           0       -6.648509    5.077652    0.058386
     69          1           0       -9.847114   -0.444625   -0.099234
     70          1           0       -1.527486   -2.776034    0.793568
     71          1           0       -0.510129   -0.452467   -0.902172
     72          1           0        0.726791   -0.135737    0.703220
     73          1           0        0.127726   -1.537348    1.572512
     74          1           0       -0.665635   -0.013194    1.972643
     75          1           0       -1.619685   -1.988652   -2.218006
     76          1           0       -2.427860   -3.494142   -1.722794
     77          1           0        0.037447   -3.282776   -2.568018
     78          1           0       -0.693177   -4.616607   -1.543587
     79          1           0       -0.749262    4.787548   -0.538370
     80          1           0       -0.522113    3.856854    0.988423
     81          1           0       -1.104300    5.374975    1.169213
     82          1           0       -2.294022    7.028796   -0.522431
     83          1           0       -2.242026    7.070194    1.204695
     84          1           0       -3.271732    8.245157    0.120061
     85          1           0       -8.721143    3.982099   -1.336729
     86          1           0      -10.099610    2.122813    0.730592
     87          1           0       -8.666332    4.824971    1.302440
     88          1           0      -10.370461    4.421966    0.925464
     89          1           0       -9.471472    5.646553   -0.023470
     90          1           0      -10.451080    0.958614   -1.799206
     91          1           0      -10.406950    2.665667   -2.170194
     92          1           0      -12.141428    2.205876    0.167515
     93          1           0      -12.463466    1.054369   -1.157889
     94          1           0      -12.656491    2.700578   -1.428862
     95          1           0       -9.915410   -3.015916   -0.577634
     96          1           0       -9.785521   -3.071146    1.262481
     97          1           0       -9.245281   -4.434007    0.223627
     98          1           0       -4.035012   -4.469068   -0.802918
     99          1           0       -0.701830   -5.813170    0.789655
    100          1           0       -1.710135   -6.828935    1.749087
    101          1           0       -1.274075   -5.139851    2.239513
    102          1           0        3.420896   -3.703937    0.125987
    103          1           0        3.092795   -2.070193    0.578382
    104          1           0        3.847329   -1.761062   -2.149800
    105          1           0        5.865864   -2.518011    0.943242
    106          1           0        7.363131   -2.904108    0.020267
    107          1           0        6.043992   -4.067415    0.165785
    108          1           0        5.965328   -2.745129   -3.366446
    109          1           0        7.303140   -2.869273   -2.254175
    110          1           0        6.657879   -0.269367   -1.819809
    111          1           0        6.156817   -0.430305   -3.525059
    112          1           0        8.384254   -0.085879   -4.193480
    113          1           0        8.707044   -1.564973   -3.570598
    114          1           0        8.690531    0.906306   -1.842638
    115          1           0       10.499374   -1.025910   -0.646026
    116          1           0        9.010234   -1.794912   -0.913918
    117          1           0        9.065803   -0.283099   -0.016750
    118          1           0       10.538379    0.210687   -3.928665
    119          1           0       11.368934   -0.277972   -2.553857
    120          1           0       10.369425    2.369986   -1.898692
    121          1           0       10.941064    2.455088   -3.511433
    122          1           0       12.983342    2.567552   -3.045521
    123          1           0       13.068666    1.052234   -2.346093
    124          1           0       11.844479    3.226317   -0.518521
    125          1           0       14.374126    3.857360   -1.886053
    126          1           0       14.672839    3.505527   -0.157625
    127          1           0       13.476392    4.697550   -0.663731
    128          1           0       13.970991    1.721937    0.725001
    129          1           0       13.050881    0.564932   -0.136689
    130          1           0       10.877814    1.308534    0.959414
    131          1           0       11.771194    2.488811    1.845617
    132          1           0       12.917364   -0.210226    2.200983
    133          1           0       11.278649   -0.375021    2.342245
    134          1           0       12.267032    1.922662    3.886591
    135          1           0       13.719151   -0.690488    4.256820
    136          1           0       12.827535   -0.166771    5.680758
    137          1           0       13.990971    0.878330    4.901387
    138          1           0       10.539696    0.026431    5.368465
    139          1           0        9.873401    0.818294    3.962231
    140          1           0       10.664218    1.803570    5.171089
 ---------------------------------------------------------------------

 SCF Done:  E(RCAM-B3LYP) =  -3007.14789012     A.U. after   17 cycles

 Excitation energies and oscillator strengths:

 Excited State   1:      Singlet-A      1.7329 eV  715.46 nm  f=0.3984  <S**2>=0.000
     245 -> 248        0.19228
     246 -> 247        0.68054
     245 <- 248        0.10809
 This state for optimization and/or second-order correction.
 Total Energy, E(TD-HF/TD-DFT) =  -3007.08420613
 Copying the excited state density for this state as the 1-particle RhoCI density.

 Excited State   2:      Singlet-A      2.1546 eV  575.43 nm  f=0.1463  <S**2>=0.000
     245 -> 247        0.65630
     246 -> 248       -0.24453

 Excited State   3:      Singlet-A      3.2792 eV  378.09 nm  f=0.0055  <S**2>=0.000
     243 -> 247       -0.10312
     244 -> 247        0.65821

 Excited State   4:      Singlet-A      3.3575 eV  369.27 nm  f=0.0065  <S**2>=0.000
     241 -> 247        0.52074
     241 -> 249       -0.19920
     241 -> 252        0.18046
     242 -> 247        0.28002
     246 -> 248        0.14840

 Excited State   5:      Singlet-A      3.4469 eV  359.70 nm  f=0.0030  <S**2>=0.000
     240 -> 247        0.49836
     240 -> 249        0.26143
     240 -> 252        0.16733
     241 -> 247       -0.12726
     242 -> 247        0.26775
     244 -> 247       -0.10630

 The electronic state is 1-A.
 Alpha  occ. eigenvalues --  -46.89496 -19.27051 -19.25531 -19.22049 -19.19249
 Alpha  occ. eigenvalues --  -19.18169 -19.17950 -14.42359 -14.41170 -14.39514
 Alpha  occ. eigenvalues --  -14.39423 -10.41716 -10.38674 -10.34312 -10.34228
 Alpha  occ. eigenvalues --  -10.33141 -10.31222 -10.31112 -10.30718 -10.30598
 Alpha  occ. eigenvalues --  -10.30142 -10.30092 -10.29984 -10.29975 -10.29017
 Alpha  occ. eigenvalues --  -10.28932 -10.28906 -10.28819 -10.28542 -10.28152
 Alpha  occ. eigenvalues --  -10.28094 -10.27995 -10.27884 -10.27857 -10.27371
 Alpha  occ. eigenvalues --  -10.27265 -10.26961 -10.26904 -10.26862 -10.26660
 Alpha  occ. eigenvalues --  -10.26469 -10.26419 -10.26377 -10.26286 -10.26191
 Alpha  occ. eigenvalues --  -10.26127 -10.26019 -10.25838 -10.25796 -10.25756
 Alpha  occ. eigenvalues --  -10.25679 -10.25520 -10.25483 -10.25250 -10.25219
 Alpha  occ. eigenvalues --  -10.25186 -10.25100 -10.25053 -10.24986 -10.24818
 Alpha  occ. eigenvalues --  -10.24804 -10.24744 -10.24604 -10.24573 -10.24536
 Alpha  occ. eigenvalues --  -10.24406  -3.17935  -1.92804  -1.92393  -1.92229
 Alpha  occ. eigenvalues --   -1.17045  -1.16033  -1.08749  -1.08695  -1.08347
 Alpha  occ. eigenvalues --   -1.07642  -1.04926  -1.03203  -1.02477  -1.01544
 Alpha  occ. eigenvalues --   -0.92346  -0.90593  -0.90173  -0.89296  -0.89083
 Alpha  occ. eigenvalues --   -0.88558  -0.88413  -0.87667  -0.87280  -0.86951
 Alpha  occ. eigenvalues --   -0.86585  -0.85667  -0.84321  -0.83225  -0.83107
 Alpha  occ. eigenvalues --   -0.82464  -0.81730  -0.81513  -0.81037  -0.80000
 Alpha  occ. eigenvalues --   -0.79889  -0.78507  -0.78239  -0.76925  -0.76515
 Alpha  occ. eigenvalues --   -0.76141  -0.75910  -0.74950  -0.74813  -0.74238
 Alpha  occ. eigenvalues --   -0.73165  -0.72988  -0.71431  -0.70241  -0.68794
 Alpha  occ. eigenvalues --   -0.68520  -0.68340  -0.67167  -0.66875  -0.66091
 Alpha  occ. eigenvalues --   -0.65369  -0.65328  -0.65039  -0.64647  -0.64575
 Alpha  occ. eigenvalues --   -0.64023  -0.63707  -0.63083  -0.62210  -0.60216
 Alpha  occ. eigenvalues --   -0.59859  -0.59563  -0.59200  -0.58045  -0.57524
 Alpha  occ. eigenvalues --   -0.57171  -0.56611  -0.56239  -0.56037  -0.55873
 Alpha  occ. eigenvalues --   -0.55501  -0.54941  -0.54546  -0.54191  -0.54025
 Alpha  occ. eigenvalues --   -0.53585  -0.53255  -0.53179  -0.53156  -0.52669
 Alpha  occ. eigenvalues --   -0.52510  -0.52302  -0.52181  -0.52015  -0.51875
 Alpha  occ. eigenvalues --   -0.51682  -0.51520  -0.51124  -0.50928  -0.50664
 Alpha  occ. eigenvalues --   -0.50483  -0.50237  -0.50100  -0.49907  -0.49517
 Alpha  occ. eigenvalues --   -0.49348  -0.49229  -0.49011  -0.48679  -0.48497
 Alpha  occ. eigenvalues --   -0.48402  -0.48329  -0.48152  -0.47859  -0.47717
 Alpha  occ. eigenvalues --   -0.47430  -0.47380  -0.47110  -0.47022  -0.46938
 Alpha  occ. eigenvalues --   -0.46528  -0.46303  -0.46056  -0.46022  -0.45942
 Alpha  occ. eigenvalues --   -0.45708  -0.45637  -0.45427  -0.45194  -0.45081
 Alpha  occ. eigenvalues --   -0.44817  -0.44727  -0.44300  -0.44047  -0.43915
 Alpha  occ. eigenvalues --   -0.43708  -0.43602  -0.43573  -0.43389  -0.43003
 Alpha  occ. eigenvalues --   -0.42988  -0.42738  -0.42591  -0.42257  -0.42128
 Alpha  occ. eigenvalues --   -0.41925  -0.41776  -0.41377  -0.41183  -0.41133
 Alpha  occ. eigenvalues --   -0.40866  -0.40608  -0.40568  -0.40487  -0.40318
 Alpha  occ. eigenvalues --   -0.40108  -0.39565  -0.39528  -0.39329  -0.39112
 Alpha  occ. eigenvalues --   -0.38649  -0.38369  -0.38327  -0.37746  -0.37695
 Alpha  occ. eigenvalues --   -0.37643  -0.37589  -0.36683  -0.36646  -0.36308
 Alpha  occ. eigenvalues --   -0.35856  -0.35744  -0.35219  -0.34476  -0.34294
 Alpha  occ. eigenvalues --   -0.33862  -0.33682  -0.32960  -0.31196  -0.30388
 Alpha  occ. eigenvalues --   -0.30346  -0.29968  -0.29462  -0.29438  -0.23733
 Alpha  occ. eigenvalues --   -0.21495
 Alpha virt. eigenvalues --   -0.08923  -0.01619   0.00288   0.01064   0.02308
 Alpha virt. eigenvalues --    0.02613   0.04262   0.05640   0.06084   0.07223
 Alpha virt. eigenvalues --    0.07654   0.08090   0.08245   0.09077   0.09186

 Mulliken charges:
               1
     1  Mg   0.815765
     2  C   -0.014619
     3  C   -0.066977
     4  C   -0.077545
     5  C   -0.088500
     6  N   -0.207264
     7  C   -0.047806
     8  C   -0.025769
     9  C   -0.069591
    10  C   -0.044333
    11  C    0.097865
    12  C    0.028708
    13  C    0.072235
    14  C    0.188276
    15  O   -0.257088
    16  O   -0.339859
    17  N   -0.397525
    18  C    0.193466
    19  C   -0.145580
    20  C   -0.025497
    21  C    0.162487
    22  C    0.102915
    23  C   -0.012905
    24  O   -0.230384
    25  C    0.064587
    26  N   -0.355044
    27  C    0.078620
    28  C   -0.075535
    29  C    0.013141
    30  C    0.065900
    31  C    0.054424
    32  C    0.040104
    33  C   -0.027823
    34  N   -0.340786
    35  C    0.109544
    36  C   -0.188570
    37  C   -0.004103
    38  C    0.129095
    39  C    0.132017
    40  C    0.069674
    41  O   -0.184652
    42  C   -0.029282
    43  C    0.185450
    44  O   -0.216347
    45  O   -0.328656
    46  C    0.168392
    47  C    0.281027
    48  C   -0.121741
    49  C   -0.198488
    50  C    0.098875
    51  C    0.066003
    52  C    0.042086
    53  C    0.023058
    54  C   -0.133412
    55  C    0.041714
    56  C    0.067560
    57  C    0.019841
    58  C    0.049940
    59  C   -0.132551
    60  C    0.027404
    61  C    0.051733
    62  C    0.008334
    63  C    0.045464
    64  C   -0.146001
    65  C    0.036952
    66  C    0.061264
    67  H   -0.025171
    68  H    0.002548
    69  H   -0.026324
    70  H    0.037297
    71  H    0.015860
    72  H    0.010935
    73  H    0.029880
    74  H    0.033180
    75  H    0.010678
    76  H    0.018413
    77  H    0.027219
    78  H    0.044243
    79  H    0.040814
    80  H    0.021712
    81  H    0.014335
    82  H    0.006629
    83  H    0.042549
    84  H    0.027640
    85  H    0.021596
    86  H    0.023331
    87  H    0.024596
    88  H    0.017821
    89  H    0.019833
    90  H    0.012905
    91  H    0.004375
    92  H    0.014222
    93  H    0.004856
    94  H    0.007902
    95  H    0.030093
    96  H    0.036490
    97  H    0.033394
    98  H    0.039944
    99  H    0.023468
   100  H    0.031920
   101  H    0.054560
   102  H    0.036462
   103  H    0.033131
   104  H    0.008442
   105  H    0.023548
   106  H    0.017703
   107  H    0.028221
   108  H    0.014208
   109  H   -0.013610
   110  H    0.002640
   111  H    0.004351
   112  H   -0.005727
   113  H   -0.014260
   114  H    0.000372
   115  H    0.010285
   116  H   -0.007699
   117  H    0.015912
   118  H   -0.015923
   119  H   -0.011093
   120  H    0.000663
   121  H   -0.006653
   122  H   -0.013684
   123  H   -0.005436
   124  H    0.004985
   125  H    0.011266
   126  H    0.005723
   127  H    0.004196
   128  H   -0.004928
   129  H   -0.009348
   130  H   -0.007539
   131  H   -0.001776
   132  H   -0.013936
   133  H   -0.017626
   134  H   -0.002043
   135  H    0.014952
   136  H   -0.004056
   137  H    0.004791
   138  H    0.012414
   139  H   -0.001005
   140  H    0.008643
 Sum of Mulliken charges =  -0.00000

 Dipole moment (field-independent basis, Debye):
    X=              6.0728    Y=              1.8472    Z=             -5.4243  Tot=              8.3495
 Quadrupole moment (field-independent basis, Debye-Ang):
   XX=           -385.6165   YY=           -445.7677   ZZ=           -407.7250
   XY=            -16.5822   XZ=             23.4992   YZ=              7.4802

 Normal termination of Gaussian 16 at Thu May  5 11:43:55 2022.
