 Gaussian 16, Revision A.03,
 Gaussian 16:  ES64L-G16RevA.03 25-Dec-2016

 ---------------------------------
 #p PBE1PBE/Def2SVP td=(nstates=5)
 ---------------------------------

 ----------------------------------------------------
 step_851_chromophore_3 TDDFT with PBE1PBE functional
 ----------------------------------------------------
 Symbolic Z-matrix:
 Charge =  0 Multiplicity = 1

                         Standard orientation:
 ---------------------------------------------------------------------
 Center     Atomic      Atomic             Coordinates (Angstroms)
 Number     Number       Type             X           Y           Z
 ---------------------------------------------------------------------
      1         12           0       -5.432417    0.844709   -0.267474
      2          6           0       -4.470227   -2.511701    0.126332
      3          6           0       -2.034499    1.647058    0.054753
      4          6           0       -6.262028    4.057244    0.107513
      5          6           0       -8.782649   -0.203212   -0.122556
      6          7           0       -3.435549   -0.435936    0.085526
      7          6           0       -3.293056   -1.733736    0.123700
      8          6           0       -1.806074   -2.094040   -0.009482
      9          6           0       -1.030355   -0.733818    0.013179
     10          6           0       -2.229451    0.227801   -0.014909
     11          6           0       -0.155909   -0.560741    1.179881
     12          6           0       -1.653433   -2.772372   -1.461479
     13          6           0       -0.329979   -3.590203   -1.588572
     14          6           0        0.865600   -3.382899   -0.517391
     15          8           0        0.927066   -3.864274    0.622839
     16          8           0        1.909180   -2.692885   -1.108880
     17          7           0       -4.346997    2.641655    0.132937
     18          6           0       -2.930926    2.710278    0.261308
     19          6           0       -2.586740    4.093737    0.325346
     20          6           0       -3.800791    4.843640    0.443635
     21          6           0       -4.885417    3.864191    0.348713
     22          6           0       -1.155141    4.559005    0.447048
     23          6           0       -4.052562    6.307281    0.401037
     24          8           0       -5.157422    6.865410    0.527142
     25          6           0       -2.902779    7.247501    0.355123
     26          7           0       -7.254137    1.717001    0.080836
     27          6           0       -7.311543    3.086221    0.030762
     28          6           0       -8.756737    3.545717   -0.338602
     29          6           0       -9.569134    2.216250   -0.216657
     30          6           0       -8.493238    1.121025   -0.154260
     31          6           0       -9.401665    4.697975    0.508920
     32          6           0      -10.508851    1.951757   -1.352818
     33          6           0      -12.004665    2.007880   -0.895503
     34          7           0       -6.437602   -0.962518   -0.015358
     35          6           0       -7.821504   -1.304837   -0.005349
     36          6           0       -8.047320   -2.681799    0.250020
     37          6           0       -6.728583   -3.231973    0.235765
     38          6           0       -5.815911   -2.123541    0.094043
     39          6           0       -9.361245   -3.353211    0.298376
     40          6           0       -5.922428   -4.441108    0.364844
     41          8           0       -6.146594   -5.623875    0.632038
     42          6           0       -4.469590   -4.028312    0.094637
     43          6           0       -3.634478   -4.575017    1.193137
     44          8           0       -3.710967   -4.135749    2.337593
     45          8           0       -2.743047   -5.447536    0.628806
     46          6           0       -1.586036   -5.795334    1.426110
     47          6           0        3.160356   -2.729572   -0.286733
     48          6           0        4.208120   -2.259707   -1.250011
     49          6           0        5.543122   -2.537894   -1.151383
     50          6           0        6.279986   -3.008074    0.062070
     51          6           0        6.370281   -2.337021   -2.441207
     52          6           0        6.808534   -0.824308   -2.745759
     53          6           0        8.265356   -0.621019   -3.250932
     54          6           0        9.221891    0.018579   -2.184110
     55          6           0        9.461290   -0.802107   -0.890926
     56          6           0       10.573721    0.403250   -2.856680
     57          6           0       11.025511    1.859191   -2.603545
     58          6           0       12.522328    1.990050   -2.243629
     59          6           0       12.713009    2.646482   -0.831581
     60          6           0       13.914179    3.729448   -0.906881
     61          6           0       12.973587    1.550715    0.320731
     62          6           0       11.859733    1.503246    1.390747
     63          6           0       12.043204    0.394838    2.443772
     64          6           0       12.034591    0.861010    3.955621
     65          6           0       13.199751    0.154093    4.708057
     66          6           0       10.708022    0.839939    4.663382
     67          1           0       -0.974251    1.867194   -0.090116
     68          1           0       -6.648509    5.077652    0.058386
     69          1           0       -9.847114   -0.444625   -0.099234
     70          1           0       -1.527486   -2.776034    0.793568
     71          1           0       -0.510129   -0.452467   -0.902172
     72          1           0        0.726791   -0.135737    0.703220
     73          1           0        0.127726   -1.537348    1.572512
     74          1           0       -0.665635   -0.013194    1.972643
     75          1           0       -1.619685   -1.988652   -2.218006
     76          1           0       -2.427860   -3.494142   -1.722794
     77          1           0        0.037447   -3.282776   -2.568018
     78          1           0       -0.693177   -4.616607   -1.543587
     79          1           0       -0.749262    4.787548   -0.538370
     80          1           0       -0.522113    3.856854    0.988423
     81          1           0       -1.104300    5.374975    1.169213
     82          1           0       -2.294022    7.028796   -0.522431
     83          1           0       -2.242026    7.070194    1.204695
     84          1           0       -3.271732    8.245157    0.120061
     85          1           0       -8.721143    3.982099   -1.336729
     86          1           0      -10.099610    2.122813    0.730592
     87          1           0       -8.666332    4.824971    1.302440
     88          1           0      -10.370461    4.421966    0.925464
     89          1           0       -9.471472    5.646553   -0.023470
     90          1           0      -10.451080    0.958614   -1.799206
     91          1           0      -10.406950    2.665667   -2.170194
     92          1           0      -12.141428    2.205876    0.167515
     93          1           0      -12.463466    1.054369   -1.157889
     94          1           0      -12.656491    2.700578   -1.428862
     95          1           0       -9.915410   -3.015916   -0.577634
     96          1           0       -9.785521   -3.071146    1.262481
     97          1           0       -9.245281   -4.434007    0.223627
     98          1           0       -4.035012   -4.469068   -0.802918
     99          1           0       -0.701830   -5.813170    0.789655
    100          1           0       -1.710135   -6.828935    1.749087
    101          1           0       -1.274075   -5.139851    2.239513
    102          1           0        3.420896   -3.703937    0.125987
    103          1           0        3.092795   -2.070193    0.578382
    104          1           0        3.847329   -1.761062   -2.149800
    105          1           0        5.865864   -2.518011    0.943242
    106          1           0        7.363131   -2.904108    0.020267
    107          1           0        6.043992   -4.067415    0.165785
    108          1           0        5.965328   -2.745129   -3.366446
    109          1           0        7.303140   -2.869273   -2.254175
    110          1           0        6.657879   -0.269367   -1.819809
    111          1           0        6.156817   -0.430305   -3.525059
    112          1           0        8.384254   -0.085879   -4.193480
    113          1           0        8.707044   -1.564973   -3.570598
    114          1           0        8.690531    0.906306   -1.842638
    115          1           0       10.499374   -1.025910   -0.646026
    116          1           0        9.010234   -1.794912   -0.913918
    117          1           0        9.065803   -0.283099   -0.016750
    118          1           0       10.538379    0.210687   -3.928665
    119          1           0       11.368934   -0.277972   -2.553857
    120          1           0       10.369425    2.369986   -1.898692
    121          1           0       10.941064    2.455088   -3.511433
    122          1           0       12.983342    2.567552   -3.045521
    123          1           0       13.068666    1.052234   -2.346093
    124          1           0       11.844479    3.226317   -0.518521
    125          1           0       14.374126    3.857360   -1.886053
    126          1           0       14.672839    3.505527   -0.157625
    127          1           0       13.476392    4.697550   -0.663731
    128          1           0       13.970991    1.721937    0.725001
    129          1           0       13.050881    0.564932   -0.136689
    130          1           0       10.877814    1.308534    0.959414
    131          1           0       11.771194    2.488811    1.845617
    132          1           0       12.917364   -0.210226    2.200983
    133          1           0       11.278649   -0.375021    2.342245
    134          1           0       12.267032    1.922662    3.886591
    135          1           0       13.719151   -0.690488    4.256820
    136          1           0       12.827535   -0.166771    5.680758
    137          1           0       13.990971    0.878330    4.901387
    138          1           0       10.539696    0.026431    5.368465
    139          1           0        9.873401    0.818294    3.962231
    140          1           0       10.664218    1.803570    5.171089
 ---------------------------------------------------------------------

 SCF Done:  E(RPBE1PBE) =  -3005.33638999     A.U. after   15 cycles

 Excitation energies and oscillator strengths:

 Excited State   1:      Singlet-A      1.8896 eV  656.14 nm  f=0.3837  <S**2>=0.000
     245 -> 248        0.18734
     246 -> 247        0.68639
     246 <- 247       -0.10311
 This state for optimization and/or second-order correction.
 Total Energy, E(TD-HF/TD-DFT) =  -3005.26694799
 Copying the excited state density for this state as the 1-particle RhoCI density.

 Excited State   2:      Singlet-A      2.1456 eV  577.85 nm  f=0.1308  <S**2>=0.000
     245 -> 247        0.66257
     246 -> 248       -0.22459

 Excited State   3:      Singlet-A      2.8180 eV  439.97 nm  f=0.0003  <S**2>=0.000
     241 -> 247       -0.24808
     242 -> 247       -0.44635
     242 -> 249       -0.13472
     243 -> 247        0.45122

 Excited State   4:      Singlet-A      2.8455 eV  435.72 nm  f=0.0007  <S**2>=0.000
     242 -> 247        0.48491
     243 -> 247        0.46914
     243 -> 249       -0.13206

 Excited State   5:      Singlet-A      3.0112 eV  411.74 nm  f=0.0048  <S**2>=0.000
     241 -> 247        0.64023
     242 -> 247       -0.16581
     243 -> 247        0.20996

 The electronic state is 1-A.
 Alpha  occ. eigenvalues --  -46.92907 -19.27748 -19.26173 -19.22332 -19.19463
 Alpha  occ. eigenvalues --  -19.18413 -19.18146 -14.41632 -14.40909 -14.39192
 Alpha  occ. eigenvalues --  -14.39102 -10.38813 -10.35676 -10.31466 -10.31285
 Alpha  occ. eigenvalues --  -10.30539 -10.28920 -10.28844 -10.28467 -10.27931
 Alpha  occ. eigenvalues --  -10.27825 -10.27824 -10.27688 -10.27640 -10.26721
 Alpha  occ. eigenvalues --  -10.26556 -10.26525 -10.26410 -10.26187 -10.25739
 Alpha  occ. eigenvalues --  -10.25717 -10.25660 -10.25577 -10.25559 -10.25238
 Alpha  occ. eigenvalues --  -10.24762 -10.24624 -10.24579 -10.24288 -10.24257
 Alpha  occ. eigenvalues --  -10.24249 -10.24221 -10.23997 -10.23955 -10.23753
 Alpha  occ. eigenvalues --  -10.23711 -10.23689 -10.23513 -10.23472 -10.23454
 Alpha  occ. eigenvalues --  -10.23452 -10.23056 -10.22939 -10.22806 -10.22701
 Alpha  occ. eigenvalues --  -10.22558 -10.22488 -10.22484 -10.22438 -10.22398
 Alpha  occ. eigenvalues --  -10.22377 -10.22283 -10.22159 -10.21997 -10.21889
 Alpha  occ. eigenvalues --  -10.21792  -3.14927  -1.87735  -1.87304  -1.87143
 Alpha  occ. eigenvalues --   -1.11839  -1.10789  -1.03557  -1.03480  -1.03017
 Alpha  occ. eigenvalues --   -1.02427  -0.99464  -0.97920  -0.97102  -0.96217
 Alpha  occ. eigenvalues --   -0.86674  -0.84736  -0.84373  -0.83423  -0.83363
 Alpha  occ. eigenvalues --   -0.82721  -0.82610  -0.81910  -0.81682  -0.81049
 Alpha  occ. eigenvalues --   -0.80883  -0.79893  -0.78480  -0.77478  -0.77384
 Alpha  occ. eigenvalues --   -0.76702  -0.76007  -0.75675  -0.75319  -0.74319
 Alpha  occ. eigenvalues --   -0.74018  -0.72781  -0.72448  -0.71280  -0.70673
 Alpha  occ. eigenvalues --   -0.70480  -0.69993  -0.69287  -0.68979  -0.68380
 Alpha  occ. eigenvalues --   -0.67588  -0.67319  -0.65873  -0.64525  -0.63155
 Alpha  occ. eigenvalues --   -0.62948  -0.62596  -0.61616  -0.61085  -0.60572
 Alpha  occ. eigenvalues --   -0.59742  -0.59567  -0.59499  -0.59173  -0.58695
 Alpha  occ. eigenvalues --   -0.58613  -0.57871  -0.57282  -0.56769  -0.54643
 Alpha  occ. eigenvalues --   -0.54369  -0.54174  -0.53681  -0.52718  -0.52084
 Alpha  occ. eigenvalues --   -0.51611  -0.51151  -0.50694  -0.50524  -0.50320
 Alpha  occ. eigenvalues --   -0.50034  -0.49506  -0.49044  -0.48637  -0.48589
 Alpha  occ. eigenvalues --   -0.48149  -0.47870  -0.47572  -0.47458  -0.47210
 Alpha  occ. eigenvalues --   -0.47075  -0.46785  -0.46716  -0.46494  -0.46418
 Alpha  occ. eigenvalues --   -0.46306  -0.46083  -0.45676  -0.45465  -0.45262
 Alpha  occ. eigenvalues --   -0.44993  -0.44892  -0.44601  -0.44522  -0.44145
 Alpha  occ. eigenvalues --   -0.43905  -0.43851  -0.43614  -0.43329  -0.43150
 Alpha  occ. eigenvalues --   -0.43007  -0.42954  -0.42814  -0.42502  -0.42340
 Alpha  occ. eigenvalues --   -0.42038  -0.41963  -0.41721  -0.41668  -0.41609
 Alpha  occ. eigenvalues --   -0.41230  -0.40932  -0.40747  -0.40684  -0.40652
 Alpha  occ. eigenvalues --   -0.40418  -0.40375  -0.40140  -0.39937  -0.39837
 Alpha  occ. eigenvalues --   -0.39562  -0.39337  -0.39054  -0.38880  -0.38720
 Alpha  occ. eigenvalues --   -0.38395  -0.38369  -0.38252  -0.38220  -0.37883
 Alpha  occ. eigenvalues --   -0.37738  -0.37430  -0.37377  -0.36999  -0.36934
 Alpha  occ. eigenvalues --   -0.36713  -0.36655  -0.36137  -0.36051  -0.35876
 Alpha  occ. eigenvalues --   -0.35794  -0.35498  -0.35352  -0.35244  -0.35174
 Alpha  occ. eigenvalues --   -0.34908  -0.34403  -0.34302  -0.34293  -0.34077
 Alpha  occ. eigenvalues --   -0.33447  -0.33344  -0.33080  -0.32739  -0.32596
 Alpha  occ. eigenvalues --   -0.32486  -0.32403  -0.31763  -0.31555  -0.31218
 Alpha  occ. eigenvalues --   -0.30868  -0.30558  -0.30124  -0.29433  -0.29245
 Alpha  occ. eigenvalues --   -0.29085  -0.28875  -0.28151  -0.26849  -0.25721
 Alpha  occ. eigenvalues --   -0.25330  -0.25086  -0.24866  -0.24766  -0.20695
 Alpha  occ. eigenvalues --   -0.19079
 Alpha virt. eigenvalues --   -0.11340  -0.05120  -0.03857  -0.02260  -0.01798
 Alpha virt. eigenvalues --   -0.01674  -0.00240   0.00952   0.01622   0.03207
 Alpha virt. eigenvalues --    0.04339   0.04481   0.04957   0.05098   0.05799

 Mulliken charges:
               1
     1  Mg   0.956071
     2  C   -0.031399
     3  C   -0.070422
     4  C   -0.069380
     5  C   -0.075738
     6  N   -0.308778
     7  C    0.047998
     8  C   -0.112791
     9  C   -0.145689
    10  C    0.003090
    11  C    0.040900
    12  C   -0.018858
    13  C    0.004420
    14  C    0.245305
    15  O   -0.287976
    16  O   -0.369057
    17  N   -0.499950
    18  C    0.214705
    19  C   -0.167109
    20  C   -0.077089
    21  C    0.200992
    22  C    0.040570
    23  C    0.035498
    24  O   -0.267504
    25  C   -0.010030
    26  N   -0.457872
    27  C    0.102608
    28  C   -0.144171
    29  C   -0.074998
    30  C    0.101754
    31  C   -0.004293
    32  C   -0.015843
    33  C   -0.096127
    34  N   -0.464842
    35  C    0.124827
    36  C   -0.193007
    37  C   -0.056904
    38  C    0.181375
    39  C    0.073346
    40  C    0.166319
    41  O   -0.230359
    42  C   -0.149983
    43  C    0.283792
    44  O   -0.250020
    45  O   -0.363491
    46  C    0.113302
    47  C    0.241335
    48  C   -0.129797
    49  C   -0.244079
    50  C    0.028129
    51  C    0.003486
    52  C   -0.021419
    53  C   -0.030588
    54  C   -0.219221
    55  C   -0.017667
    56  C    0.013775
    57  C   -0.040188
    58  C   -0.002448
    59  C   -0.218439
    60  C   -0.030631
    61  C    0.001830
    62  C   -0.062475
    63  C   -0.005249
    64  C   -0.238638
    65  C   -0.022880
    66  C   -0.000182
    67  H    0.005723
    68  H    0.034772
    69  H    0.006864
    70  H    0.076627
    71  H    0.051532
    72  H    0.038547
    73  H    0.058129
    74  H    0.061142
    75  H    0.042512
    76  H    0.052782
    77  H    0.059410
    78  H    0.075619
    79  H    0.067924
    80  H    0.047663
    81  H    0.041851
    82  H    0.035321
    83  H    0.069004
    84  H    0.054584
    85  H    0.057893
    86  H    0.060194
    87  H    0.053114
    88  H    0.045679
    89  H    0.046883
    90  H    0.044892
    91  H    0.037257
    92  H    0.040419
    93  H    0.032239
    94  H    0.036063
    95  H    0.057021
    96  H    0.064921
    97  H    0.062023
    98  H    0.077099
    99  H    0.047055
   100  H    0.054980
   101  H    0.074080
   102  H    0.062465
   103  H    0.059366
   104  H    0.038282
   105  H    0.051058
   106  H    0.046949
   107  H    0.056484
   108  H    0.046066
   109  H    0.020236
   110  H    0.035863
   111  H    0.037177
   112  H    0.026756
   113  H    0.018950
   114  H    0.038381
   115  H    0.037870
   116  H    0.022624
   117  H    0.041208
   118  H    0.016089
   119  H    0.020717
   120  H    0.030888
   121  H    0.026916
   122  H    0.018592
   123  H    0.025061
   124  H    0.041858
   125  H    0.037361
   126  H    0.032374
   127  H    0.031810
   128  H    0.026817
   129  H    0.022901
   130  H    0.030172
   131  H    0.030068
   132  H    0.017587
   133  H    0.015608
   134  H    0.036737
   135  H    0.040789
   136  H    0.023700
   137  H    0.032523
   138  H    0.038766
   139  H    0.027108
   140  H    0.036158
 Sum of Mulliken charges =  -0.00000

 Dipole moment (field-independent basis, Debye):
    X=              5.8427    Y=              1.7783    Z=             -5.4950  Tot=              8.2156
 Quadrupole moment (field-independent basis, Debye-Ang):
   XX=           -377.0175   YY=           -443.6006   ZZ=           -405.2174
   XY=            -16.9939   XZ=             23.7626   YZ=              7.0673

 Normal termination of Gaussian 16 at Thu May  5 12:01:34 2022.
