 Gaussian 16, Revision A.03,
 Gaussian 16:  ES64L-G16RevA.03 25-Dec-2016

 --------------------------------
 #p wB97XD/Def2SVP td=(nstates=5)
 --------------------------------

 ---------------------------------------------------
 step_851_chromophore_3 TDDFT with wB97XD functional
 ---------------------------------------------------
 Symbolic Z-matrix:
 Charge =  0 Multiplicity = 1

                         Standard orientation:
 ---------------------------------------------------------------------
 Center     Atomic      Atomic             Coordinates (Angstroms)
 Number     Number       Type             X           Y           Z
 ---------------------------------------------------------------------
      1         12           0       -5.432417    0.844709   -0.267474
      2          6           0       -4.470227   -2.511701    0.126332
      3          6           0       -2.034499    1.647058    0.054753
      4          6           0       -6.262028    4.057244    0.107513
      5          6           0       -8.782649   -0.203212   -0.122556
      6          7           0       -3.435549   -0.435936    0.085526
      7          6           0       -3.293056   -1.733736    0.123700
      8          6           0       -1.806074   -2.094040   -0.009482
      9          6           0       -1.030355   -0.733818    0.013179
     10          6           0       -2.229451    0.227801   -0.014909
     11          6           0       -0.155909   -0.560741    1.179881
     12          6           0       -1.653433   -2.772372   -1.461479
     13          6           0       -0.329979   -3.590203   -1.588572
     14          6           0        0.865600   -3.382899   -0.517391
     15          8           0        0.927066   -3.864274    0.622839
     16          8           0        1.909180   -2.692885   -1.108880
     17          7           0       -4.346997    2.641655    0.132937
     18          6           0       -2.930926    2.710278    0.261308
     19          6           0       -2.586740    4.093737    0.325346
     20          6           0       -3.800791    4.843640    0.443635
     21          6           0       -4.885417    3.864191    0.348713
     22          6           0       -1.155141    4.559005    0.447048
     23          6           0       -4.052562    6.307281    0.401037
     24          8           0       -5.157422    6.865410    0.527142
     25          6           0       -2.902779    7.247501    0.355123
     26          7           0       -7.254137    1.717001    0.080836
     27          6           0       -7.311543    3.086221    0.030762
     28          6           0       -8.756737    3.545717   -0.338602
     29          6           0       -9.569134    2.216250   -0.216657
     30          6           0       -8.493238    1.121025   -0.154260
     31          6           0       -9.401665    4.697975    0.508920
     32          6           0      -10.508851    1.951757   -1.352818
     33          6           0      -12.004665    2.007880   -0.895503
     34          7           0       -6.437602   -0.962518   -0.015358
     35          6           0       -7.821504   -1.304837   -0.005349
     36          6           0       -8.047320   -2.681799    0.250020
     37          6           0       -6.728583   -3.231973    0.235765
     38          6           0       -5.815911   -2.123541    0.094043
     39          6           0       -9.361245   -3.353211    0.298376
     40          6           0       -5.922428   -4.441108    0.364844
     41          8           0       -6.146594   -5.623875    0.632038
     42          6           0       -4.469590   -4.028312    0.094637
     43          6           0       -3.634478   -4.575017    1.193137
     44          8           0       -3.710967   -4.135749    2.337593
     45          8           0       -2.743047   -5.447536    0.628806
     46          6           0       -1.586036   -5.795334    1.426110
     47          6           0        3.160356   -2.729572   -0.286733
     48          6           0        4.208120   -2.259707   -1.250011
     49          6           0        5.543122   -2.537894   -1.151383
     50          6           0        6.279986   -3.008074    0.062070
     51          6           0        6.370281   -2.337021   -2.441207
     52          6           0        6.808534   -0.824308   -2.745759
     53          6           0        8.265356   -0.621019   -3.250932
     54          6           0        9.221891    0.018579   -2.184110
     55          6           0        9.461290   -0.802107   -0.890926
     56          6           0       10.573721    0.403250   -2.856680
     57          6           0       11.025511    1.859191   -2.603545
     58          6           0       12.522328    1.990050   -2.243629
     59          6           0       12.713009    2.646482   -0.831581
     60          6           0       13.914179    3.729448   -0.906881
     61          6           0       12.973587    1.550715    0.320731
     62          6           0       11.859733    1.503246    1.390747
     63          6           0       12.043204    0.394838    2.443772
     64          6           0       12.034591    0.861010    3.955621
     65          6           0       13.199751    0.154093    4.708057
     66          6           0       10.708022    0.839939    4.663382
     67          1           0       -0.974251    1.867194   -0.090116
     68          1           0       -6.648509    5.077652    0.058386
     69          1           0       -9.847114   -0.444625   -0.099234
     70          1           0       -1.527486   -2.776034    0.793568
     71          1           0       -0.510129   -0.452467   -0.902172
     72          1           0        0.726791   -0.135737    0.703220
     73          1           0        0.127726   -1.537348    1.572512
     74          1           0       -0.665635   -0.013194    1.972643
     75          1           0       -1.619685   -1.988652   -2.218006
     76          1           0       -2.427860   -3.494142   -1.722794
     77          1           0        0.037447   -3.282776   -2.568018
     78          1           0       -0.693177   -4.616607   -1.543587
     79          1           0       -0.749262    4.787548   -0.538370
     80          1           0       -0.522113    3.856854    0.988423
     81          1           0       -1.104300    5.374975    1.169213
     82          1           0       -2.294022    7.028796   -0.522431
     83          1           0       -2.242026    7.070194    1.204695
     84          1           0       -3.271732    8.245157    0.120061
     85          1           0       -8.721143    3.982099   -1.336729
     86          1           0      -10.099610    2.122813    0.730592
     87          1           0       -8.666332    4.824971    1.302440
     88          1           0      -10.370461    4.421966    0.925464
     89          1           0       -9.471472    5.646553   -0.023470
     90          1           0      -10.451080    0.958614   -1.799206
     91          1           0      -10.406950    2.665667   -2.170194
     92          1           0      -12.141428    2.205876    0.167515
     93          1           0      -12.463466    1.054369   -1.157889
     94          1           0      -12.656491    2.700578   -1.428862
     95          1           0       -9.915410   -3.015916   -0.577634
     96          1           0       -9.785521   -3.071146    1.262481
     97          1           0       -9.245281   -4.434007    0.223627
     98          1           0       -4.035012   -4.469068   -0.802918
     99          1           0       -0.701830   -5.813170    0.789655
    100          1           0       -1.710135   -6.828935    1.749087
    101          1           0       -1.274075   -5.139851    2.239513
    102          1           0        3.420896   -3.703937    0.125987
    103          1           0        3.092795   -2.070193    0.578382
    104          1           0        3.847329   -1.761062   -2.149800
    105          1           0        5.865864   -2.518011    0.943242
    106          1           0        7.363131   -2.904108    0.020267
    107          1           0        6.043992   -4.067415    0.165785
    108          1           0        5.965328   -2.745129   -3.366446
    109          1           0        7.303140   -2.869273   -2.254175
    110          1           0        6.657879   -0.269367   -1.819809
    111          1           0        6.156817   -0.430305   -3.525059
    112          1           0        8.384254   -0.085879   -4.193480
    113          1           0        8.707044   -1.564973   -3.570598
    114          1           0        8.690531    0.906306   -1.842638
    115          1           0       10.499374   -1.025910   -0.646026
    116          1           0        9.010234   -1.794912   -0.913918
    117          1           0        9.065803   -0.283099   -0.016750
    118          1           0       10.538379    0.210687   -3.928665
    119          1           0       11.368934   -0.277972   -2.553857
    120          1           0       10.369425    2.369986   -1.898692
    121          1           0       10.941064    2.455088   -3.511433
    122          1           0       12.983342    2.567552   -3.045521
    123          1           0       13.068666    1.052234   -2.346093
    124          1           0       11.844479    3.226317   -0.518521
    125          1           0       14.374126    3.857360   -1.886053
    126          1           0       14.672839    3.505527   -0.157625
    127          1           0       13.476392    4.697550   -0.663731
    128          1           0       13.970991    1.721937    0.725001
    129          1           0       13.050881    0.564932   -0.136689
    130          1           0       10.877814    1.308534    0.959414
    131          1           0       11.771194    2.488811    1.845617
    132          1           0       12.917364   -0.210226    2.200983
    133          1           0       11.278649   -0.375021    2.342245
    134          1           0       12.267032    1.922662    3.886591
    135          1           0       13.719151   -0.690488    4.256820
    136          1           0       12.827535   -0.166771    5.680758
    137          1           0       13.990971    0.878330    4.901387
    138          1           0       10.539696    0.026431    5.368465
    139          1           0        9.873401    0.818294    3.962231
    140          1           0       10.664218    1.803570    5.171089
 ---------------------------------------------------------------------

 SCF Done:  E(RwB97XD) =  -3007.84959162     A.U. after   19 cycles

 Excitation energies and oscillator strengths:

 Excited State   1:      Singlet-A      1.6746 eV  740.36 nm  f=0.3972  <S**2>=0.000
     245 -> 248        0.19798
     246 -> 247        0.67868
     245 <- 248        0.11717
 This state for optimization and/or second-order correction.
 Total Energy, E(TD-HF/TD-DFT) =  -3007.78804973
 Copying the excited state density for this state as the 1-particle RhoCI density.

 Excited State   2:      Singlet-A      2.1041 eV  589.25 nm  f=0.1427  <S**2>=0.000
     245 -> 247        0.65474
     246 -> 248       -0.24633

 Excited State   3:      Singlet-A      3.2988 eV  375.84 nm  f=0.0070  <S**2>=0.000
     242 -> 249       -0.11303
     243 -> 247        0.66592
     246 -> 248        0.10565

 Excited State   4:      Singlet-A      3.3899 eV  365.75 nm  f=0.0099  <S**2>=0.000
     240 -> 247        0.40356
     240 -> 249        0.18133
     240 -> 252        0.16644
     241 -> 247       -0.20256
     241 -> 249       -0.14426
     242 -> 247        0.36683
     246 -> 248        0.16208

 Excited State   5:      Singlet-A      3.4723 eV  357.07 nm  f=0.0044  <S**2>=0.000
     240 -> 249       -0.16794
     241 -> 247        0.46509
     241 -> 249       -0.22556
     241 -> 252        0.16232
     242 -> 247        0.31876
     242 -> 249       -0.12156

 The electronic state is 1-A.
 Alpha  occ. eigenvalues --  -46.95840 -19.32290 -19.30773 -19.26997 -19.24225
 Alpha  occ. eigenvalues --  -19.23242 -19.22992 -14.46970 -14.45727 -14.44117
 Alpha  occ. eigenvalues --  -14.44038 -10.45592 -10.42556 -10.38351 -10.38191
 Alpha  occ. eigenvalues --  -10.37046 -10.35275 -10.35154 -10.34706 -10.34377
 Alpha  occ. eigenvalues --  -10.34191 -10.34096 -10.34043 -10.34025 -10.33107
 Alpha  occ. eigenvalues --  -10.32996 -10.32943 -10.32810 -10.32544 -10.32281
 Alpha  occ. eigenvalues --  -10.32270 -10.32037 -10.31942 -10.31918 -10.31407
 Alpha  occ. eigenvalues --  -10.31227 -10.31056 -10.30894 -10.30755 -10.30730
 Alpha  occ. eigenvalues --  -10.30491 -10.30399 -10.30348 -10.30293 -10.30155
 Alpha  occ. eigenvalues --  -10.30080 -10.29867 -10.29862 -10.29753 -10.29744
 Alpha  occ. eigenvalues --  -10.29688 -10.29437 -10.29387 -10.29191 -10.29084
 Alpha  occ. eigenvalues --  -10.29041 -10.28966 -10.28954 -10.28809 -10.28759
 Alpha  occ. eigenvalues --  -10.28751 -10.28664 -10.28527 -10.28416 -10.28331
 Alpha  occ. eigenvalues --  -10.28220  -3.21749  -1.95300  -1.94869  -1.94706
 Alpha  occ. eigenvalues --   -1.19220  -1.18232  -1.10986  -1.10902  -1.10558
 Alpha  occ. eigenvalues --   -1.09860  -1.06933  -1.05232  -1.04504  -1.03556
 Alpha  occ. eigenvalues --   -0.94348  -0.92431  -0.92037  -0.91076  -0.90966
 Alpha  occ. eigenvalues --   -0.90364  -0.90278  -0.89581  -0.89204  -0.88733
 Alpha  occ. eigenvalues --   -0.88517  -0.87586  -0.86164  -0.85119  -0.85017
 Alpha  occ. eigenvalues --   -0.84368  -0.83626  -0.83382  -0.82980  -0.81972
 Alpha  occ. eigenvalues --   -0.81708  -0.80452  -0.80177  -0.78843  -0.78367
 Alpha  occ. eigenvalues --   -0.78103  -0.77694  -0.76868  -0.76665  -0.76067
 Alpha  occ. eigenvalues --   -0.75141  -0.74938  -0.73409  -0.72173  -0.70740
 Alpha  occ. eigenvalues --   -0.70454  -0.70243  -0.69159  -0.68742  -0.68076
 Alpha  occ. eigenvalues --   -0.67285  -0.67222  -0.66999  -0.66600  -0.66391
 Alpha  occ. eigenvalues --   -0.66032  -0.65534  -0.64920  -0.64199  -0.62173
 Alpha  occ. eigenvalues --   -0.61863  -0.61564  -0.61168  -0.60052  -0.59494
 Alpha  occ. eigenvalues --   -0.59150  -0.58600  -0.58142  -0.57974  -0.57784
 Alpha  occ. eigenvalues --   -0.57451  -0.56923  -0.56482  -0.56092  -0.55961
 Alpha  occ. eigenvalues --   -0.55510  -0.55191  -0.55098  -0.55039  -0.54554
 Alpha  occ. eigenvalues --   -0.54461  -0.54173  -0.54100  -0.53882  -0.53796
 Alpha  occ. eigenvalues --   -0.53591  -0.53451  -0.53022  -0.52814  -0.52582
 Alpha  occ. eigenvalues --   -0.52431  -0.52170  -0.51995  -0.51828  -0.51478
 Alpha  occ. eigenvalues --   -0.51214  -0.51152  -0.50908  -0.50630  -0.50411
 Alpha  occ. eigenvalues --   -0.50318  -0.50276  -0.50074  -0.49798  -0.49605
 Alpha  occ. eigenvalues --   -0.49394  -0.49250  -0.49010  -0.48939  -0.48844
 Alpha  occ. eigenvalues --   -0.48508  -0.48161  -0.48004  -0.47899  -0.47858
 Alpha  occ. eigenvalues --   -0.47603  -0.47554  -0.47366  -0.47088  -0.46979
 Alpha  occ. eigenvalues --   -0.46740  -0.46579  -0.46221  -0.45965  -0.45873
 Alpha  occ. eigenvalues --   -0.45574  -0.45503  -0.45467  -0.45333  -0.44911
 Alpha  occ. eigenvalues --   -0.44877  -0.44658  -0.44553  -0.44140  -0.44043
 Alpha  occ. eigenvalues --   -0.43799  -0.43708  -0.43362  -0.43070  -0.42975
 Alpha  occ. eigenvalues --   -0.42814  -0.42622  -0.42469  -0.42338  -0.42225
 Alpha  occ. eigenvalues --   -0.41986  -0.41431  -0.41402  -0.41237  -0.41035
 Alpha  occ. eigenvalues --   -0.40511  -0.40361  -0.40168  -0.39658  -0.39551
 Alpha  occ. eigenvalues --   -0.39507  -0.39486  -0.38850  -0.38503  -0.38323
 Alpha  occ. eigenvalues --   -0.37773  -0.37595  -0.37159  -0.36322  -0.36148
 Alpha  occ. eigenvalues --   -0.35838  -0.35725  -0.35124  -0.33420  -0.32352
 Alpha  occ. eigenvalues --   -0.32345  -0.32108  -0.31616  -0.31516  -0.25650
 Alpha  occ. eigenvalues --   -0.23306
 Alpha virt. eigenvalues --   -0.07287   0.00301   0.02373   0.04195   0.04574
 Alpha virt. eigenvalues --    0.04704   0.06477   0.07750   0.08401   0.09934
 Alpha virt. eigenvalues --    0.11019   0.11099   0.11330   0.11816   0.12487

 Mulliken charges:
               1
     1  Mg   0.947742
     2  C   -0.024324
     3  C   -0.078150
     4  C   -0.089777
     5  C   -0.099606
     6  N   -0.270034
     7  C    0.001754
     8  C   -0.072014
     9  C   -0.119873
    10  C   -0.018427
    11  C    0.049586
    12  C   -0.007420
    13  C    0.019069
    14  C    0.230575
    15  O   -0.282897
    16  O   -0.367575
    17  N   -0.473026
    18  C    0.205241
    19  C   -0.155660
    20  C   -0.071816
    21  C    0.191696
    22  C    0.051455
    23  C    0.032960
    24  O   -0.260910
    25  C    0.002827
    26  N   -0.430739
    27  C    0.098636
    28  C   -0.123999
    29  C   -0.043127
    30  C    0.097181
    31  C    0.007446
    32  C   -0.005516
    33  C   -0.079835
    34  N   -0.427976
    35  C    0.118505
    36  C   -0.191839
    37  C   -0.052792
    38  C    0.162232
    39  C    0.083406
    40  C    0.147670
    41  O   -0.221299
    42  C   -0.104529
    43  C    0.256193
    44  O   -0.244586
    45  O   -0.359619
    46  C    0.128334
    47  C    0.253820
    48  C   -0.140861
    49  C   -0.227418
    50  C    0.043559
    51  C    0.022194
    52  C   -0.005166
    53  C   -0.014341
    54  C   -0.188694
    55  C   -0.000955
    56  C    0.029771
    57  C   -0.025023
    58  C    0.012225
    59  C   -0.191139
    60  C   -0.015934
    61  C    0.016175
    62  C   -0.036758
    63  C    0.007338
    64  C   -0.207389
    65  C   -0.010578
    66  C    0.009780
    67  H    0.000184
    68  H    0.027930
    69  H   -0.000362
    70  H    0.056300
    71  H    0.040915
    72  H    0.033617
    73  H    0.050743
    74  H    0.056263
    75  H    0.034722
    76  H    0.041727
    77  H    0.054831
    78  H    0.069505
    79  H    0.065240
    80  H    0.043682
    81  H    0.036314
    82  H    0.028552
    83  H    0.063005
    84  H    0.053917
    85  H    0.047785
    86  H    0.047606
    87  H    0.045307
    88  H    0.039681
    89  H    0.042458
    90  H    0.036044
    91  H    0.029886
    92  H    0.033299
    93  H    0.026241
    94  H    0.030311
    95  H    0.051292
    96  H    0.059723
    97  H    0.058252
    98  H    0.069146
    99  H    0.039373
   100  H    0.052423
   101  H    0.072225
   102  H    0.057080
   103  H    0.054314
   104  H    0.035752
   105  H    0.045894
   106  H    0.040584
   107  H    0.050818
   108  H    0.040635
   109  H    0.007856
   110  H    0.024409
   111  H    0.030608
   112  H    0.018809
   113  H    0.008570
   114  H    0.024603
   115  H    0.030436
   116  H    0.007900
   117  H    0.035713
   118  H    0.008436
   119  H    0.008946
   120  H    0.020117
   121  H    0.020023
   122  H    0.010613
   123  H    0.016120
   124  H    0.028874
   125  H    0.031356
   126  H    0.025640
   127  H    0.025915
   128  H    0.017829
   129  H    0.011013
   130  H    0.014402
   131  H    0.020473
   132  H    0.007789
   133  H    0.006650
   134  H    0.023699
   135  H    0.035314
   136  H    0.017119
   137  H    0.026819
   138  H    0.033391
   139  H    0.020736
   140  H    0.030856
 Sum of Mulliken charges =  -0.00000

 Dipole moment (field-independent basis, Debye):
    X=              6.1917    Y=              1.9289    Z=             -5.5191  Tot=              8.5158
 Quadrupole moment (field-independent basis, Debye-Ang):
   XX=           -380.9025   YY=           -441.8389   ZZ=           -404.8713
   XY=            -16.6346   XZ=             24.1168   YZ=              7.2271

 Normal termination of Gaussian 16 at Thu May  5 12:29:50 2022.
