 Gaussian 16, Revision A.03,
 Gaussian 16:  ES64L-G16RevA.03 25-Dec-2016

 --------------------
 #p ZINDO=(nstates=5)
 --------------------

 ----------------------------
 step_851_chromophore_3 ZINDO
 ----------------------------
 Symbolic Z-matrix:
 Charge =  0 Multiplicity = 1

                         Standard orientation:
 ---------------------------------------------------------------------
 Center     Atomic      Atomic             Coordinates (Angstroms)
 Number     Number       Type             X           Y           Z
 ---------------------------------------------------------------------
      1         12           0       -5.432417    0.844709   -0.267474
      2          6           0       -4.470227   -2.511701    0.126332
      3          6           0       -2.034499    1.647058    0.054753
      4          6           0       -6.262028    4.057244    0.107513
      5          6           0       -8.782649   -0.203212   -0.122556
      6          7           0       -3.435549   -0.435936    0.085526
      7          6           0       -3.293056   -1.733736    0.123700
      8          6           0       -1.806074   -2.094040   -0.009482
      9          6           0       -1.030355   -0.733818    0.013179
     10          6           0       -2.229451    0.227801   -0.014909
     11          6           0       -0.155909   -0.560741    1.179881
     12          6           0       -1.653433   -2.772372   -1.461479
     13          6           0       -0.329979   -3.590203   -1.588572
     14          6           0        0.865600   -3.382899   -0.517391
     15          8           0        0.927066   -3.864274    0.622839
     16          8           0        1.909180   -2.692885   -1.108880
     17          7           0       -4.346997    2.641655    0.132937
     18          6           0       -2.930926    2.710278    0.261308
     19          6           0       -2.586740    4.093737    0.325346
     20          6           0       -3.800791    4.843640    0.443635
     21          6           0       -4.885417    3.864191    0.348713
     22          6           0       -1.155141    4.559005    0.447048
     23          6           0       -4.052562    6.307281    0.401037
     24          8           0       -5.157422    6.865410    0.527142
     25          6           0       -2.902779    7.247501    0.355123
     26          7           0       -7.254137    1.717001    0.080836
     27          6           0       -7.311543    3.086221    0.030762
     28          6           0       -8.756737    3.545717   -0.338602
     29          6           0       -9.569134    2.216250   -0.216657
     30          6           0       -8.493238    1.121025   -0.154260
     31          6           0       -9.401665    4.697975    0.508920
     32          6           0      -10.508851    1.951757   -1.352818
     33          6           0      -12.004665    2.007880   -0.895503
     34          7           0       -6.437602   -0.962518   -0.015358
     35          6           0       -7.821504   -1.304837   -0.005349
     36          6           0       -8.047320   -2.681799    0.250020
     37          6           0       -6.728583   -3.231973    0.235765
     38          6           0       -5.815911   -2.123541    0.094043
     39          6           0       -9.361245   -3.353211    0.298376
     40          6           0       -5.922428   -4.441108    0.364844
     41          8           0       -6.146594   -5.623875    0.632038
     42          6           0       -4.469590   -4.028312    0.094637
     43          6           0       -3.634478   -4.575017    1.193137
     44          8           0       -3.710967   -4.135749    2.337593
     45          8           0       -2.743047   -5.447536    0.628806
     46          6           0       -1.586036   -5.795334    1.426110
     47          6           0        3.160356   -2.729572   -0.286733
     48          6           0        4.208120   -2.259707   -1.250011
     49          6           0        5.543122   -2.537894   -1.151383
     50          6           0        6.279986   -3.008074    0.062070
     51          6           0        6.370281   -2.337021   -2.441207
     52          6           0        6.808534   -0.824308   -2.745759
     53          6           0        8.265356   -0.621019   -3.250932
     54          6           0        9.221891    0.018579   -2.184110
     55          6           0        9.461290   -0.802107   -0.890926
     56          6           0       10.573721    0.403250   -2.856680
     57          6           0       11.025511    1.859191   -2.603545
     58          6           0       12.522328    1.990050   -2.243629
     59          6           0       12.713009    2.646482   -0.831581
     60          6           0       13.914179    3.729448   -0.906881
     61          6           0       12.973587    1.550715    0.320731
     62          6           0       11.859733    1.503246    1.390747
     63          6           0       12.043204    0.394838    2.443772
     64          6           0       12.034591    0.861010    3.955621
     65          6           0       13.199751    0.154093    4.708057
     66          6           0       10.708022    0.839939    4.663382
     67          1           0       -0.974251    1.867194   -0.090116
     68          1           0       -6.648509    5.077652    0.058386
     69          1           0       -9.847114   -0.444625   -0.099234
     70          1           0       -1.527486   -2.776034    0.793568
     71          1           0       -0.510129   -0.452467   -0.902172
     72          1           0        0.726791   -0.135737    0.703220
     73          1           0        0.127726   -1.537348    1.572512
     74          1           0       -0.665635   -0.013194    1.972643
     75          1           0       -1.619685   -1.988652   -2.218006
     76          1           0       -2.427860   -3.494142   -1.722794
     77          1           0        0.037447   -3.282776   -2.568018
     78          1           0       -0.693177   -4.616607   -1.543587
     79          1           0       -0.749262    4.787548   -0.538370
     80          1           0       -0.522113    3.856854    0.988423
     81          1           0       -1.104300    5.374975    1.169213
     82          1           0       -2.294022    7.028796   -0.522431
     83          1           0       -2.242026    7.070194    1.204695
     84          1           0       -3.271732    8.245157    0.120061
     85          1           0       -8.721143    3.982099   -1.336729
     86          1           0      -10.099610    2.122813    0.730592
     87          1           0       -8.666332    4.824971    1.302440
     88          1           0      -10.370461    4.421966    0.925464
     89          1           0       -9.471472    5.646553   -0.023470
     90          1           0      -10.451080    0.958614   -1.799206
     91          1           0      -10.406950    2.665667   -2.170194
     92          1           0      -12.141428    2.205876    0.167515
     93          1           0      -12.463466    1.054369   -1.157889
     94          1           0      -12.656491    2.700578   -1.428862
     95          1           0       -9.915410   -3.015916   -0.577634
     96          1           0       -9.785521   -3.071146    1.262481
     97          1           0       -9.245281   -4.434007    0.223627
     98          1           0       -4.035012   -4.469068   -0.802918
     99          1           0       -0.701830   -5.813170    0.789655
    100          1           0       -1.710135   -6.828935    1.749087
    101          1           0       -1.274075   -5.139851    2.239513
    102          1           0        3.420896   -3.703937    0.125987
    103          1           0        3.092795   -2.070193    0.578382
    104          1           0        3.847329   -1.761062   -2.149800
    105          1           0        5.865864   -2.518011    0.943242
    106          1           0        7.363131   -2.904108    0.020267
    107          1           0        6.043992   -4.067415    0.165785
    108          1           0        5.965328   -2.745129   -3.366446
    109          1           0        7.303140   -2.869273   -2.254175
    110          1           0        6.657879   -0.269367   -1.819809
    111          1           0        6.156817   -0.430305   -3.525059
    112          1           0        8.384254   -0.085879   -4.193480
    113          1           0        8.707044   -1.564973   -3.570598
    114          1           0        8.690531    0.906306   -1.842638
    115          1           0       10.499374   -1.025910   -0.646026
    116          1           0        9.010234   -1.794912   -0.913918
    117          1           0        9.065803   -0.283099   -0.016750
    118          1           0       10.538379    0.210687   -3.928665
    119          1           0       11.368934   -0.277972   -2.553857
    120          1           0       10.369425    2.369986   -1.898692
    121          1           0       10.941064    2.455088   -3.511433
    122          1           0       12.983342    2.567552   -3.045521
    123          1           0       13.068666    1.052234   -2.346093
    124          1           0       11.844479    3.226317   -0.518521
    125          1           0       14.374126    3.857360   -1.886053
    126          1           0       14.672839    3.505527   -0.157625
    127          1           0       13.476392    4.697550   -0.663731
    128          1           0       13.970991    1.721937    0.725001
    129          1           0       13.050881    0.564932   -0.136689
    130          1           0       10.877814    1.308534    0.959414
    131          1           0       11.771194    2.488811    1.845617
    132          1           0       12.917364   -0.210226    2.200983
    133          1           0       11.278649   -0.375021    2.342245
    134          1           0       12.267032    1.922662    3.886591
    135          1           0       13.719151   -0.690488    4.256820
    136          1           0       12.827535   -0.166771    5.680758
    137          1           0       13.990971    0.878330    4.901387
    138          1           0       10.539696    0.026431    5.368465
    139          1           0        9.873401    0.818294    3.962231
    140          1           0       10.664218    1.803570    5.171089
 ---------------------------------------------------------------------

 SCF Done:  E(RZINDO/S) =  -474.063974301     A.U. after   19 cycles

 Excitation energies and oscillator strengths:

 Excited State   1:      Singlet-A      1.2478 eV  993.63 nm  f=0.6162  <S**2>=0.000
     175 ->178         0.20155
     176 ->177         0.65981
 This state for optimization and/or second-order correction.
 Total Energy, E(CIS/TDA) =  -474.018118729
 Copying the excited state density for this state as the 1-particle RhoCI density.

 Excited State   2:      Singlet-A      1.8687 eV  663.46 nm  f=0.1153  <S**2>=0.000
     175 ->177         0.58975
     176 ->178        -0.35930

 Excited State   3:      Singlet-A      2.8692 eV  432.12 nm  f=0.0119  <S**2>=0.000
     168 ->177         0.21292
     168 ->179        -0.28845
     168 ->182         0.17676
     168 ->186        -0.16831
     169 ->177         0.23666
     169 ->179        -0.30263
     169 ->182         0.18890
     169 ->186        -0.17363

 Excited State   4:      Singlet-A      2.9260 eV  423.73 nm  f=0.0188  <S**2>=0.000
     168 ->177        -0.12966
     168 ->182        -0.13929
     169 ->177         0.18708
     169 ->179         0.14141
     169 ->182         0.18596
     170 ->177         0.29932
     170 ->178        -0.11919
     170 ->179         0.20807
     170 ->182         0.29873
     170 ->186         0.13806
     170 ->187        -0.10917

 Excited State   5:      Singlet-A      2.9901 eV  414.65 nm  f=0.8993  <S**2>=0.000
     171 ->177         0.11475
     175 ->177         0.30711
     176 ->178         0.54619
     176 ->179        -0.14243
     176 ->182        -0.10751

 The electronic state is 1-A.
 Alpha  occ. eigenvalues --   -1.84124  -1.80006  -1.79398  -1.72823  -1.72052
 Alpha  occ. eigenvalues --   -1.70180  -1.63000  -1.58729  -1.58612  -1.58388
 Alpha  occ. eigenvalues --   -1.54127  -1.50207  -1.48346  -1.48067  -1.46584
 Alpha  occ. eigenvalues --   -1.44878  -1.42972  -1.40804  -1.40394  -1.38469
 Alpha  occ. eigenvalues --   -1.37199  -1.34909  -1.32907  -1.31384  -1.27107
 Alpha  occ. eigenvalues --   -1.26524  -1.24371  -1.21904  -1.21030  -1.19030
 Alpha  occ. eigenvalues --   -1.17939  -1.16543  -1.15880  -1.14656  -1.12440
 Alpha  occ. eigenvalues --   -1.11800  -1.11570  -1.10371  -1.04408  -1.03474
 Alpha  occ. eigenvalues --   -1.01820  -1.01330  -0.98797  -0.98196  -0.96251
 Alpha  occ. eigenvalues --   -0.95465  -0.94867  -0.93906  -0.92649  -0.92309
 Alpha  occ. eigenvalues --   -0.91249  -0.90848  -0.89322  -0.88397  -0.88044
 Alpha  occ. eigenvalues --   -0.86916  -0.86008  -0.83779  -0.82506  -0.80346
 Alpha  occ. eigenvalues --   -0.79993  -0.78753  -0.76690  -0.76428  -0.75700
 Alpha  occ. eigenvalues --   -0.74730  -0.74489  -0.73940  -0.73748  -0.72833
 Alpha  occ. eigenvalues --   -0.72442  -0.72385  -0.71675  -0.70733  -0.70284
 Alpha  occ. eigenvalues --   -0.69861  -0.69510  -0.68829  -0.68481  -0.67935
 Alpha  occ. eigenvalues --   -0.67497  -0.66820  -0.66577  -0.66142  -0.66035
 Alpha  occ. eigenvalues --   -0.65332  -0.64669  -0.64318  -0.63960  -0.63696
 Alpha  occ. eigenvalues --   -0.63398  -0.62933  -0.62706  -0.62588  -0.62292
 Alpha  occ. eigenvalues --   -0.62074  -0.61353  -0.60581  -0.60481  -0.60252
 Alpha  occ. eigenvalues --   -0.59906  -0.59759  -0.59388  -0.59253  -0.58934
 Alpha  occ. eigenvalues --   -0.58209  -0.57563  -0.57280  -0.57195  -0.56804
 Alpha  occ. eigenvalues --   -0.55969  -0.55306  -0.55166  -0.54961  -0.54349
 Alpha  occ. eigenvalues --   -0.54304  -0.53798  -0.53646  -0.53228  -0.52993
 Alpha  occ. eigenvalues --   -0.52778  -0.52328  -0.52224  -0.51993  -0.51811
 Alpha  occ. eigenvalues --   -0.51431  -0.51048  -0.50692  -0.50570  -0.50487
 Alpha  occ. eigenvalues --   -0.50155  -0.50131  -0.49852  -0.49691  -0.49526
 Alpha  occ. eigenvalues --   -0.49407  -0.48981  -0.48267  -0.48177  -0.47776
 Alpha  occ. eigenvalues --   -0.47584  -0.47537  -0.46930  -0.46826  -0.46653
 Alpha  occ. eigenvalues --   -0.46503  -0.45782  -0.45728  -0.45396  -0.45298
 Alpha  occ. eigenvalues --   -0.44851  -0.44792  -0.44412  -0.44183  -0.43992
 Alpha  occ. eigenvalues --   -0.43550  -0.43462  -0.43154  -0.42431  -0.42284
 Alpha  occ. eigenvalues --   -0.42234  -0.41572  -0.40852  -0.39802  -0.38479
 Alpha  occ. eigenvalues --   -0.37462  -0.36924  -0.35072  -0.34684  -0.34502
 Alpha  occ. eigenvalues --   -0.33126  -0.32354  -0.31929  -0.31752  -0.26188
 Alpha  occ. eigenvalues --   -0.22129
 Alpha virt. eigenvalues --   -0.08864  -0.02033  -0.00477   0.00456   0.00854
 Alpha virt. eigenvalues --    0.01575   0.02849   0.03210   0.03727   0.04846
 Alpha virt. eigenvalues --    0.06410   0.07407   0.07484   0.07756   0.08091

 Mulliken charges:
               1
     1  Mg   0.439524
     2  C   -0.021924
     3  C   -0.054814
     4  C   -0.080728
     5  C   -0.075657
     6  N   -0.263335
     7  C    0.124052
     8  C    0.012441
     9  C    0.010358
    10  C    0.103859
    11  C   -0.048415
    12  C   -0.029357
    13  C   -0.006121
    14  C    0.456395
    15  O   -0.515360
    16  O   -0.265990
    17  N   -0.340308
    18  C    0.088158
    19  C    0.032398
    20  C   -0.053483
    21  C    0.161852
    22  C   -0.045961
    23  C    0.326711
    24  O   -0.540309
    25  C   -0.033215
    26  N   -0.285897
    27  C    0.154637
    28  C   -0.001455
    29  C    0.010444
    30  C    0.113368
    31  C   -0.059577
    32  C   -0.027381
    33  C   -0.069032
    34  N   -0.321321
    35  C    0.076498
    36  C    0.030261
    37  C   -0.063419
    38  C    0.122482
    39  C   -0.033717
    40  C    0.338716
    41  O   -0.526952
    42  C    0.043145
    43  C    0.494982
    44  O   -0.527727
    45  O   -0.263488
    46  C    0.069868
    47  C    0.108914
    48  C   -0.099727
    49  C   -0.008283
    50  C   -0.035989
    51  C   -0.030775
    52  C   -0.033490
    53  C   -0.036481
    54  C   -0.008062
    55  C   -0.058027
    56  C   -0.034452
    57  C   -0.037163
    58  C   -0.032476
    59  C   -0.022491
    60  C   -0.069258
    61  C   -0.035749
    62  C   -0.029925
    63  C   -0.040123
    64  C   -0.006598
    65  C   -0.058967
    66  C   -0.048373
    67  H    0.025119
    68  H    0.045625
    69  H    0.025441
    70  H    0.056382
    71  H    0.032249
    72  H    0.021599
    73  H    0.027606
    74  H    0.035625
    75  H    0.025507
    76  H    0.030545
    77  H    0.034545
    78  H    0.048986
    79  H    0.040673
    80  H    0.023563
    81  H    0.025001
    82  H    0.018060
    83  H    0.047467
    84  H    0.043388
    85  H    0.036515
    86  H    0.041300
    87  H    0.024523
    88  H    0.024389
    89  H    0.025553
    90  H    0.024096
    91  H    0.019494
    92  H    0.022511
    93  H    0.011792
    94  H    0.015888
    95  H    0.030155
    96  H    0.040280
    97  H    0.031562
    98  H    0.054209
    99  H    0.028134
   100  H    0.038175
   101  H    0.056867
   102  H    0.056998
   103  H    0.048439
   104  H    0.036438
   105  H    0.025232
   106  H    0.032728
   107  H    0.030032
   108  H    0.029337
   109  H    0.013196
   110  H    0.023476
   111  H    0.018278
   112  H    0.019978
   113  H    0.012364
   114  H    0.018715
   115  H    0.018914
   116  H    0.016478
   117  H    0.015279
   118  H    0.014524
   119  H    0.018524
   120  H    0.023870
   121  H    0.011844
   122  H    0.012841
   123  H    0.022465
   124  H    0.026387
   125  H    0.024291
   126  H    0.021121
   127  H    0.012632
   128  H    0.023836
   129  H    0.015935
   130  H    0.017552
   131  H    0.019745
   132  H    0.016272
   133  H    0.010233
   134  H    0.016275
   135  H    0.025796
   136  H    0.013251
   137  H    0.012803
   138  H    0.023702
   139  H    0.013773
   140  H    0.015910
 Sum of Mulliken charges =  -0.00000

 Dipole moment (field-independent basis, Debye):
    X=              7.9509    Y=              3.0285    Z=             -8.0260  Tot=             11.6964
 N-N= 4.305267754310D+03 E-N= 0.000000000000D+00  KE=-9.284473391051D+03
 Leave Link  601 at Thu May  5 12:42:20 2022, MaxMem=  6710886400 cpu:               0.8 elap:               0.1
 (Enter /sw/apps/gaussian-16.0/g16/l9999.exe)
 1\1\GINC-BP1-COMPUTE123\SP\RZINDO CIS\STO-3G\C55H74Mg1N4O6\OF15641\05-
 May-2022\0\\#p ZINDO=(nstates=5)\\step_851_chromophore_3 ZINDO\\0,1\Mg
 ,0,2.397,8.654,26.565\C,0,2.738,10.967,29.188\C,0,3.2,6.177,28.913\C,0
 ,2.827,6.477,24.07\C,0,2.05,11.363,24.355\N,0,2.94,8.674,28.901\C,0,2.
 929,9.68,29.734\C,0,2.972,9.156,31.177\C,0,3.166,7.606,31.066\C,0,3.03
 2,7.455,29.542\C,0,4.444,7.121,31.602\C,0,1.519,9.47,31.795\C,0,1.523,
 9.416,33.355\C,0,2.75,8.717,34.146\O,0,3.862,9.215,34.372\O,0,2.336,7.

 Normal termination of Gaussian 16 at Thu May  5 12:42:21 2022.
