 Gaussian 16, Revision A.03,
 Gaussian 16:  ES64L-G16RevA.03 25-Dec-2016

 ------------------------------
 #p blyp/Def2SVP td=(nstates=5)
 ------------------------------

 --------------------------------------------------
 step_701_chromophore_21 TDDFT with blyp functional
 --------------------------------------------------
 Symbolic Z-matrix:
 Charge =  0 Multiplicity = 1

                         Standard orientation:
 ---------------------------------------------------------------------
 Center     Atomic      Atomic             Coordinates (Angstroms)
 Number     Number       Type             X           Y           Z
 ---------------------------------------------------------------------
      1         12           0       -4.821208    1.050946   -0.115201
      2          6           0       -4.522379   -2.410863   -0.250771
      3          6           0       -1.462263    1.310740    0.388434
      4          6           0       -5.229324    4.387028    0.119442
      5          6           0       -8.344143    0.721544   -0.217315
      6          7           0       -3.166671   -0.353351   -0.053441
      7          6           0       -3.288992   -1.740065   -0.187570
      8          6           0       -1.907177   -2.359534   -0.354637
      9          6           0       -1.014910   -1.300211    0.402874
     10          6           0       -1.906519    0.006132    0.210104
     11          6           0       -0.732044   -1.651608    1.937684
     12          6           0       -1.485809   -2.651896   -1.799929
     13          6           0       -0.438709   -3.759928   -2.071325
     14          6           0        0.278555   -4.244054   -0.844285
     15          8           0       -0.036143   -5.158725   -0.125715
     16          8           0        1.445650   -3.572037   -0.702924
     17          7           0       -3.511955    2.643616    0.222958
     18          6           0       -2.150411    2.513105    0.362126
     19          6           0       -1.570559    3.846434    0.493832
     20          6           0       -2.689534    4.691938    0.562390
     21          6           0       -3.883858    3.964909    0.253321
     22          6           0       -0.073993    4.152041    0.640385
     23          6           0       -2.706931    6.160383    0.843848
     24          8           0       -3.758813    6.784996    0.832582
     25          6           0       -1.373931    6.866321    1.169841
     26          7           0       -6.525880    2.381563    0.081937
     27          6           0       -6.429024    3.724801   -0.003128
     28          6           0       -7.817814    4.409021   -0.309789
     29          6           0       -8.823431    3.185200   -0.024582
     30          6           0       -7.853897    2.014436   -0.070586
     31          6           0       -8.061757    5.690052    0.550183
     32          6           0      -10.030395    3.189937   -1.002526
     33          6           0      -11.412023    3.445007   -0.340963
     34          7           0       -6.163935   -0.506133   -0.097311
     35          6           0       -7.538941   -0.494037   -0.269668
     36          6           0       -8.047004   -1.823326   -0.439846
     37          6           0       -6.858462   -2.609575   -0.421754
     38          6           0       -5.776596   -1.805280   -0.215568
     39          6           0       -9.467290   -2.317613   -0.724223
     40          6           0       -6.372018   -3.964042   -0.463433
     41          8           0       -6.973484   -5.034943   -0.584492
     42          6           0       -4.827845   -3.917395   -0.373641
     43          6           0       -4.397841   -4.813458    0.732419
     44          8           0       -4.586924   -4.615539    1.933553
     45          8           0       -3.703929   -5.917795    0.196206
     46          6           0       -2.776991   -6.569460    1.131636
     47          6           0        2.239001   -3.979040    0.416707
     48          6           0        3.639822   -3.410134    0.300169
     49          6           0        4.840984   -3.936966    0.575726
     50          6           0        5.088640   -5.127963    1.406954
     51          6           0        6.052623   -3.147734   -0.002084
     52          6           0        6.337942   -1.791910    0.601497
     53          6           0        7.809523   -1.461859    0.685254
     54          6           0        8.296520   -0.776937   -0.613462
     55          6           0        9.115268   -1.781208   -1.459379
     56          6           0        9.154353    0.401749   -0.369698
     57          6           0        8.714956    1.698772   -1.161636
     58          6           0        9.919476    2.195137   -2.031565
     59          6           0       10.860960    3.140781   -1.249806
     60          6           0       10.357076    4.591908   -1.255862
     61          6           0       12.290788    2.919848   -1.600279
     62          6           0       13.271405    2.889943   -0.413163
     63          6           0       13.907241    1.587351   -0.036478
     64          6           0       13.301804    1.042912    1.274740
     65          6           0       14.326287    1.021393    2.511890
     66          6           0       12.522909   -0.261567    1.009652
     67          1           0       -0.380395    1.375294    0.525017
     68          1           0       -5.305580    5.474154    0.056463
     69          1           0       -9.372886    0.492562   -0.502387
     70          1           0       -1.808530   -3.286746    0.210230
     71          1           0       -0.033571   -1.204873   -0.060710
     72          1           0       -1.598611   -2.243563    2.230436
     73          1           0       -0.570824   -0.828242    2.634003
     74          1           0        0.143461   -2.290149    2.054090
     75          1           0       -1.017642   -1.754927   -2.206249
     76          1           0       -2.405090   -2.803283   -2.366569
     77          1           0        0.282733   -3.371146   -2.788809
     78          1           0       -0.895445   -4.618263   -2.563543
     79          1           0        0.254924    4.985623    0.020670
     80          1           0        0.512118    3.245296    0.488883
     81          1           0        0.131923    4.526352    1.644080
     82          1           0       -0.798954    6.454507    1.999903
     83          1           0       -1.548599    7.863678    1.573607
     84          1           0       -0.906569    7.036969    0.200161
     85          1           0       -7.756124    4.658739   -1.368085
     86          1           0       -9.281560    3.294024    0.958563
     87          1           0       -8.992775    5.560646    1.101592
     88          1           0       -8.021569    6.599534   -0.050007
     89          1           0       -7.191451    5.947450    1.154785
     90          1           0      -10.048864    2.439894   -1.793012
     91          1           0       -9.904349    4.067304   -1.637211
     92          1           0      -11.368418    2.994782    0.650707
     93          1           0      -12.227319    2.968712   -0.884541
     94          1           0      -11.591959    4.517928   -0.275650
     95          1           0      -10.202029   -1.525240   -0.579763
     96          1           0       -9.842943   -3.176255   -0.167759
     97          1           0       -9.411666   -2.645528   -1.762227
     98          1           0       -4.462774   -4.273003   -1.336995
     99          1           0       -3.242339   -7.373827    1.701519
    100          1           0       -2.274452   -5.894212    1.824272
    101          1           0       -1.877540   -6.913725    0.622803
    102          1           0        2.364045   -5.062010    0.429342
    103          1           0        1.735148   -3.664056    1.331243
    104          1           0        3.669856   -2.511597   -0.316088
    105          1           0        6.112244   -5.207579    1.772689
    106          1           0        4.890245   -5.935885    0.701946
    107          1           0        4.357968   -5.032638    2.210954
    108          1           0        5.872397   -3.180513   -1.076240
    109          1           0        6.891708   -3.792952    0.256413
    110          1           0        5.955799   -1.755640    1.621780
    111          1           0        5.966254   -0.998159   -0.047029
    112          1           0        8.392630   -2.377594    0.789317
    113          1           0        7.997341   -0.834762    1.556490
    114          1           0        7.509563   -0.580331   -1.341274
    115          1           0        9.439097   -1.321178   -2.393028
    116          1           0        8.510960   -2.622127   -1.798437
    117          1           0        9.901082   -2.210465   -0.836816
    118          1           0       10.166895    0.238196   -0.737809
    119          1           0        9.320172    0.581758    0.693116
    120          1           0        8.412976    2.472594   -0.456784
    121          1           0        7.846463    1.452923   -1.773261
    122          1           0        9.504771    2.710222   -2.897889
    123          1           0       10.384574    1.367074   -2.567206
    124          1           0       10.687019    2.908537   -0.199016
    125          1           0        9.854039    4.928472   -0.350195
    126          1           0        9.635357    4.650280   -2.071146
    127          1           0       11.177810    5.296107   -1.389658
    128          1           0       12.721978    3.714538   -2.209704
    129          1           0       12.425006    2.003174   -2.175987
    130          1           0       12.803431    3.428487    0.410110
    131          1           0       14.080542    3.528277   -0.769064
    132          1           0       14.962467    1.744098    0.186896
    133          1           0       14.004452    0.873842   -0.855059
    134          1           0       12.596215    1.799571    1.616756
    135          1           0       14.146194    0.246389    3.256829
    136          1           0       14.436046    1.989212    3.002456
    137          1           0       15.379754    0.926342    2.250631
    138          1           0       11.595200   -0.117422    1.561264
    139          1           0       13.085101   -1.167295    1.235700
    140          1           0       12.245679   -0.414174   -0.033729
 ---------------------------------------------------------------------

 SCF Done:  E(RB-LYP) =  -3007.38646886     A.U. after   21 cycles

 Excitation energies and oscillator strengths:

 Excited State   1:      Singlet-A      1.7088 eV  725.55 nm  f=0.0026  <S**2>=0.000
     244 -> 247        0.69755
 This state for optimization and/or second-order correction.
 Total Energy, E(TD-HF/TD-DFT) =  -3007.32367090
 Copying the excited state density for this state as the 1-particle RhoCI density.

 Excited State   2:      Singlet-A      1.8372 eV  674.86 nm  f=0.2888  <S**2>=0.000
     245 -> 248        0.19010
     246 -> 247        0.68175
     246 <- 247       -0.14481

 Excited State   3:      Singlet-A      1.9229 eV  644.78 nm  f=0.0334  <S**2>=0.000
     243 -> 247        0.60458
     245 -> 247        0.34137

 Excited State   4:      Singlet-A      2.0446 eV  606.40 nm  f=0.0848  <S**2>=0.000
     243 -> 247       -0.35583
     245 -> 247        0.56042
     246 -> 248       -0.20711

 Excited State   5:      Singlet-A      2.3190 eV  534.64 nm  f=0.0002  <S**2>=0.000
     241 -> 247        0.70686

 The electronic state is 1-A.
 Alpha  occ. eigenvalues --  -46.26538 -18.83261 -18.80703 -18.77932 -18.76252
 Alpha  occ. eigenvalues --  -18.75831 -18.74739 -14.03527 -14.02926 -14.00872
 Alpha  occ. eigenvalues --  -14.00458 -10.04876 -10.03397  -9.99959  -9.98653
 Alpha  occ. eigenvalues --   -9.98349  -9.96837  -9.96769  -9.96274  -9.96143
 Alpha  occ. eigenvalues --   -9.95758  -9.95736  -9.95733  -9.95356  -9.94669
 Alpha  occ. eigenvalues --   -9.94334  -9.94196  -9.94148  -9.94068  -9.94016
 Alpha  occ. eigenvalues --   -9.93955  -9.93910  -9.93765  -9.93756  -9.93497
 Alpha  occ. eigenvalues --   -9.93422  -9.92974  -9.92879  -9.92869  -9.92736
 Alpha  occ. eigenvalues --   -9.92611  -9.92465  -9.92453  -9.92339  -9.92286
 Alpha  occ. eigenvalues --   -9.92266  -9.92133  -9.92006  -9.91910  -9.91663
 Alpha  occ. eigenvalues --   -9.91640  -9.91610  -9.91550  -9.91527  -9.91365
 Alpha  occ. eigenvalues --   -9.91184  -9.91183  -9.91168  -9.91012  -9.90986
 Alpha  occ. eigenvalues --   -9.90849  -9.90702  -9.90684  -9.90572  -9.90524
 Alpha  occ. eigenvalues --   -9.90252  -2.91196  -1.71636  -1.71063  -1.70913
 Alpha  occ. eigenvalues --   -1.00428  -0.95271  -0.91873  -0.91847  -0.89958
 Alpha  occ. eigenvalues --   -0.88276  -0.86391  -0.85575  -0.85548  -0.84742
 Alpha  occ. eigenvalues --   -0.75498  -0.74697  -0.73807  -0.73440  -0.72798
 Alpha  occ. eigenvalues --   -0.72161  -0.71393  -0.71122  -0.70459  -0.70124
 Alpha  occ. eigenvalues --   -0.69639  -0.69343  -0.68540  -0.67145  -0.66863
 Alpha  occ. eigenvalues --   -0.66594  -0.66025  -0.65523  -0.64733  -0.64356
 Alpha  occ. eigenvalues --   -0.64305  -0.62873  -0.62650  -0.61528  -0.61289
 Alpha  occ. eigenvalues --   -0.60489  -0.60323  -0.60003  -0.59705  -0.59421
 Alpha  occ. eigenvalues --   -0.58578  -0.57792  -0.56574  -0.55961  -0.54513
 Alpha  occ. eigenvalues --   -0.54427  -0.53797  -0.52815  -0.52509  -0.51521
 Alpha  occ. eigenvalues --   -0.51426  -0.51022  -0.50880  -0.50643  -0.50394
 Alpha  occ. eigenvalues --   -0.50314  -0.50067  -0.49259  -0.47693  -0.47075
 Alpha  occ. eigenvalues --   -0.46791  -0.45940  -0.45497  -0.45074  -0.44263
 Alpha  occ. eigenvalues --   -0.43932  -0.43849  -0.43327  -0.43248  -0.42569
 Alpha  occ. eigenvalues --   -0.41997  -0.41717  -0.41606  -0.41488  -0.41065
 Alpha  occ. eigenvalues --   -0.40946  -0.40785  -0.40719  -0.40500  -0.40160
 Alpha  occ. eigenvalues --   -0.39992  -0.39792  -0.39494  -0.39360  -0.39175
 Alpha  occ. eigenvalues --   -0.38958  -0.38755  -0.38732  -0.38683  -0.38204
 Alpha  occ. eigenvalues --   -0.38102  -0.37932  -0.37767  -0.37523  -0.37430
 Alpha  occ. eigenvalues --   -0.37309  -0.36981  -0.36883  -0.36575  -0.36388
 Alpha  occ. eigenvalues --   -0.36362  -0.36175  -0.36058  -0.35886  -0.35561
 Alpha  occ. eigenvalues --   -0.35391  -0.35137  -0.35119  -0.34797  -0.34563
 Alpha  occ. eigenvalues --   -0.34290  -0.34234  -0.34206  -0.34146  -0.33839
 Alpha  occ. eigenvalues --   -0.33799  -0.33740  -0.33405  -0.33243  -0.33178
 Alpha  occ. eigenvalues --   -0.33122  -0.33018  -0.32479  -0.32434  -0.32291
 Alpha  occ. eigenvalues --   -0.32082  -0.32064  -0.31755  -0.31578  -0.31399
 Alpha  occ. eigenvalues --   -0.31196  -0.31179  -0.31141  -0.30949  -0.30677
 Alpha  occ. eigenvalues --   -0.30444  -0.30224  -0.30051  -0.30041  -0.29856
 Alpha  occ. eigenvalues --   -0.29742  -0.29522  -0.29252  -0.28964  -0.28792
 Alpha  occ. eigenvalues --   -0.28758  -0.28503  -0.28344  -0.28251  -0.28204
 Alpha  occ. eigenvalues --   -0.27864  -0.27573  -0.27529  -0.26713  -0.26665
 Alpha  occ. eigenvalues --   -0.26630  -0.26551  -0.26162  -0.25567  -0.25111
 Alpha  occ. eigenvalues --   -0.24803  -0.24165  -0.24017  -0.23676  -0.23647
 Alpha  occ. eigenvalues --   -0.23291  -0.23052  -0.22338  -0.21151  -0.20806
 Alpha  occ. eigenvalues --   -0.20317  -0.20110  -0.18859  -0.17999  -0.17311
 Alpha  occ. eigenvalues --   -0.16181
 Alpha virt. eigenvalues --   -0.11795  -0.06605  -0.05992  -0.04331  -0.03690
 Alpha virt. eigenvalues --   -0.02835  -0.02277  -0.02075  -0.01260   0.00563
 Alpha virt. eigenvalues --    0.01333   0.01867   0.01997   0.02456   0.02747

 Mulliken charges:
               1
     1  Mg   0.687663
     2  C    0.019220
     3  C   -0.076663
     4  C   -0.026592
     5  C   -0.072873
     6  N   -0.215236
     7  C   -0.068961
     8  C   -0.023199
     9  C   -0.017727
    10  C    0.027356
    11  C    0.107505
    12  C    0.126368
    13  C    0.202069
    14  C    0.034665
    15  O   -0.178084
    16  O   -0.252364
    17  N   -0.290690
    18  C    0.162441
    19  C   -0.147280
    20  C    0.063585
    21  C    0.077590
    22  C    0.201183
    23  C   -0.093133
    24  O   -0.160472
    25  C    0.121223
    26  N   -0.204070
    27  C    0.003282
    28  C    0.003597
    29  C    0.048059
    30  C    0.082785
    31  C    0.125304
    32  C    0.080049
    33  C    0.049094
    34  N   -0.275474
    35  C    0.060703
    36  C   -0.163173
    37  C    0.118431
    38  C    0.065394
    39  C    0.160863
    40  C   -0.100075
    41  O   -0.145898
    42  C    0.131566
    43  C    0.134723
    44  O   -0.178685
    45  O   -0.293031
    46  C    0.221020
    47  C    0.318868
    48  C   -0.095367
    49  C   -0.241002
    50  C    0.171112
    51  C    0.136524
    52  C    0.126397
    53  C    0.122974
    54  C   -0.082012
    55  C    0.072255
    56  C    0.116362
    57  C    0.068560
    58  C    0.075756
    59  C   -0.054580
    60  C    0.119879
    61  C    0.148880
    62  C    0.053084
    63  C    0.140593
    64  C   -0.076794
    65  C    0.077872
    66  C    0.096319
    67  H   -0.072564
    68  H   -0.044080
    69  H   -0.053679
    70  H   -0.010377
    71  H   -0.037105
    72  H    0.012315
    73  H   -0.002285
    74  H   -0.015310
    75  H   -0.023883
    76  H   -0.016605
    77  H   -0.012403
    78  H   -0.001339
    79  H   -0.004746
    80  H   -0.007956
    81  H   -0.004862
    82  H    0.009625
    83  H   -0.024111
    84  H    0.015305
    85  H   -0.008491
    86  H   -0.013966
    87  H    0.000841
    88  H   -0.019106
    89  H    0.006628
    90  H   -0.024393
    91  H   -0.038068
    92  H   -0.005314
    93  H   -0.008091
    94  H    0.004440
    95  H   -0.015774
    96  H    0.012266
    97  H    0.012582
    98  H   -0.009157
    99  H    0.010582
   100  H   -0.000946
   101  H    0.011220
   102  H   -0.010238
   103  H   -0.001341
   104  H   -0.041983
   105  H   -0.007067
   106  H    0.015848
   107  H    0.013021
   108  H   -0.005640
   109  H   -0.053215
   110  H   -0.036929
   111  H   -0.026454
   112  H   -0.042422
   113  H   -0.038162
   114  H   -0.034880
   115  H   -0.016500
   116  H   -0.031674
   117  H   -0.009161
   118  H   -0.032845
   119  H   -0.035897
   120  H   -0.035076
   121  H   -0.039639
   122  H   -0.050941
   123  H   -0.038158
   124  H   -0.033569
   125  H   -0.018737
   126  H   -0.021951
   127  H   -0.021520
   128  H   -0.044774
   129  H   -0.050010
   130  H   -0.032791
   131  H   -0.051059
   132  H   -0.054218
   133  H   -0.038793
   134  H   -0.028926
   135  H   -0.012801
   136  H   -0.023339
   137  H   -0.027358
   138  H   -0.011093
   139  H   -0.016314
   140  H   -0.002317
 Sum of Mulliken charges =  -0.00000

 Dipole moment (field-independent basis, Debye):
    X=              6.2614    Y=              3.8905    Z=             -2.4543  Tot=              7.7695
 Quadrupole moment (field-independent basis, Debye-Ang):
   XX=           -392.4997   YY=           -438.7170   ZZ=           -403.1317
   XY=            -39.9120   XZ=             19.0194   YZ=              1.5243

 Normal termination of Gaussian 16 at Sat Apr 30 11:28:44 2022.
