 Gaussian 16, Revision A.03,
 Gaussian 16:  ES64L-G16RevA.03 25-Dec-2016

 -----------------------------------
 #p cam-b3lyp/Def2SVP td=(nstates=5)
 -----------------------------------

 -------------------------------------------------------
 step_701_chromophore_21 TDDFT with cam-b3lyp functional
 -------------------------------------------------------
 Symbolic Z-matrix:
 Charge =  0 Multiplicity = 1

                         Standard orientation:
 ---------------------------------------------------------------------
 Center     Atomic      Atomic             Coordinates (Angstroms)
 Number     Number       Type             X           Y           Z
 ---------------------------------------------------------------------
      1         12           0       -4.821208    1.050946   -0.115201
      2          6           0       -4.522379   -2.410863   -0.250771
      3          6           0       -1.462263    1.310740    0.388434
      4          6           0       -5.229324    4.387028    0.119442
      5          6           0       -8.344143    0.721544   -0.217315
      6          7           0       -3.166671   -0.353351   -0.053441
      7          6           0       -3.288992   -1.740065   -0.187570
      8          6           0       -1.907177   -2.359534   -0.354637
      9          6           0       -1.014910   -1.300211    0.402874
     10          6           0       -1.906519    0.006132    0.210104
     11          6           0       -0.732044   -1.651608    1.937684
     12          6           0       -1.485809   -2.651896   -1.799929
     13          6           0       -0.438709   -3.759928   -2.071325
     14          6           0        0.278555   -4.244054   -0.844285
     15          8           0       -0.036143   -5.158725   -0.125715
     16          8           0        1.445650   -3.572037   -0.702924
     17          7           0       -3.511955    2.643616    0.222958
     18          6           0       -2.150411    2.513105    0.362126
     19          6           0       -1.570559    3.846434    0.493832
     20          6           0       -2.689534    4.691938    0.562390
     21          6           0       -3.883858    3.964909    0.253321
     22          6           0       -0.073993    4.152041    0.640385
     23          6           0       -2.706931    6.160383    0.843848
     24          8           0       -3.758813    6.784996    0.832582
     25          6           0       -1.373931    6.866321    1.169841
     26          7           0       -6.525880    2.381563    0.081937
     27          6           0       -6.429024    3.724801   -0.003128
     28          6           0       -7.817814    4.409021   -0.309789
     29          6           0       -8.823431    3.185200   -0.024582
     30          6           0       -7.853897    2.014436   -0.070586
     31          6           0       -8.061757    5.690052    0.550183
     32          6           0      -10.030395    3.189937   -1.002526
     33          6           0      -11.412023    3.445007   -0.340963
     34          7           0       -6.163935   -0.506133   -0.097311
     35          6           0       -7.538941   -0.494037   -0.269668
     36          6           0       -8.047004   -1.823326   -0.439846
     37          6           0       -6.858462   -2.609575   -0.421754
     38          6           0       -5.776596   -1.805280   -0.215568
     39          6           0       -9.467290   -2.317613   -0.724223
     40          6           0       -6.372018   -3.964042   -0.463433
     41          8           0       -6.973484   -5.034943   -0.584492
     42          6           0       -4.827845   -3.917395   -0.373641
     43          6           0       -4.397841   -4.813458    0.732419
     44          8           0       -4.586924   -4.615539    1.933553
     45          8           0       -3.703929   -5.917795    0.196206
     46          6           0       -2.776991   -6.569460    1.131636
     47          6           0        2.239001   -3.979040    0.416707
     48          6           0        3.639822   -3.410134    0.300169
     49          6           0        4.840984   -3.936966    0.575726
     50          6           0        5.088640   -5.127963    1.406954
     51          6           0        6.052623   -3.147734   -0.002084
     52          6           0        6.337942   -1.791910    0.601497
     53          6           0        7.809523   -1.461859    0.685254
     54          6           0        8.296520   -0.776937   -0.613462
     55          6           0        9.115268   -1.781208   -1.459379
     56          6           0        9.154353    0.401749   -0.369698
     57          6           0        8.714956    1.698772   -1.161636
     58          6           0        9.919476    2.195137   -2.031565
     59          6           0       10.860960    3.140781   -1.249806
     60          6           0       10.357076    4.591908   -1.255862
     61          6           0       12.290788    2.919848   -1.600279
     62          6           0       13.271405    2.889943   -0.413163
     63          6           0       13.907241    1.587351   -0.036478
     64          6           0       13.301804    1.042912    1.274740
     65          6           0       14.326287    1.021393    2.511890
     66          6           0       12.522909   -0.261567    1.009652
     67          1           0       -0.380395    1.375294    0.525017
     68          1           0       -5.305580    5.474154    0.056463
     69          1           0       -9.372886    0.492562   -0.502387
     70          1           0       -1.808530   -3.286746    0.210230
     71          1           0       -0.033571   -1.204873   -0.060710
     72          1           0       -1.598611   -2.243563    2.230436
     73          1           0       -0.570824   -0.828242    2.634003
     74          1           0        0.143461   -2.290149    2.054090
     75          1           0       -1.017642   -1.754927   -2.206249
     76          1           0       -2.405090   -2.803283   -2.366569
     77          1           0        0.282733   -3.371146   -2.788809
     78          1           0       -0.895445   -4.618263   -2.563543
     79          1           0        0.254924    4.985623    0.020670
     80          1           0        0.512118    3.245296    0.488883
     81          1           0        0.131923    4.526352    1.644080
     82          1           0       -0.798954    6.454507    1.999903
     83          1           0       -1.548599    7.863678    1.573607
     84          1           0       -0.906569    7.036969    0.200161
     85          1           0       -7.756124    4.658739   -1.368085
     86          1           0       -9.281560    3.294024    0.958563
     87          1           0       -8.992775    5.560646    1.101592
     88          1           0       -8.021569    6.599534   -0.050007
     89          1           0       -7.191451    5.947450    1.154785
     90          1           0      -10.048864    2.439894   -1.793012
     91          1           0       -9.904349    4.067304   -1.637211
     92          1           0      -11.368418    2.994782    0.650707
     93          1           0      -12.227319    2.968712   -0.884541
     94          1           0      -11.591959    4.517928   -0.275650
     95          1           0      -10.202029   -1.525240   -0.579763
     96          1           0       -9.842943   -3.176255   -0.167759
     97          1           0       -9.411666   -2.645528   -1.762227
     98          1           0       -4.462774   -4.273003   -1.336995
     99          1           0       -3.242339   -7.373827    1.701519
    100          1           0       -2.274452   -5.894212    1.824272
    101          1           0       -1.877540   -6.913725    0.622803
    102          1           0        2.364045   -5.062010    0.429342
    103          1           0        1.735148   -3.664056    1.331243
    104          1           0        3.669856   -2.511597   -0.316088
    105          1           0        6.112244   -5.207579    1.772689
    106          1           0        4.890245   -5.935885    0.701946
    107          1           0        4.357968   -5.032638    2.210954
    108          1           0        5.872397   -3.180513   -1.076240
    109          1           0        6.891708   -3.792952    0.256413
    110          1           0        5.955799   -1.755640    1.621780
    111          1           0        5.966254   -0.998159   -0.047029
    112          1           0        8.392630   -2.377594    0.789317
    113          1           0        7.997341   -0.834762    1.556490
    114          1           0        7.509563   -0.580331   -1.341274
    115          1           0        9.439097   -1.321178   -2.393028
    116          1           0        8.510960   -2.622127   -1.798437
    117          1           0        9.901082   -2.210465   -0.836816
    118          1           0       10.166895    0.238196   -0.737809
    119          1           0        9.320172    0.581758    0.693116
    120          1           0        8.412976    2.472594   -0.456784
    121          1           0        7.846463    1.452923   -1.773261
    122          1           0        9.504771    2.710222   -2.897889
    123          1           0       10.384574    1.367074   -2.567206
    124          1           0       10.687019    2.908537   -0.199016
    125          1           0        9.854039    4.928472   -0.350195
    126          1           0        9.635357    4.650280   -2.071146
    127          1           0       11.177810    5.296107   -1.389658
    128          1           0       12.721978    3.714538   -2.209704
    129          1           0       12.425006    2.003174   -2.175987
    130          1           0       12.803431    3.428487    0.410110
    131          1           0       14.080542    3.528277   -0.769064
    132          1           0       14.962467    1.744098    0.186896
    133          1           0       14.004452    0.873842   -0.855059
    134          1           0       12.596215    1.799571    1.616756
    135          1           0       14.146194    0.246389    3.256829
    136          1           0       14.436046    1.989212    3.002456
    137          1           0       15.379754    0.926342    2.250631
    138          1           0       11.595200   -0.117422    1.561264
    139          1           0       13.085101   -1.167295    1.235700
    140          1           0       12.245679   -0.414174   -0.033729
 ---------------------------------------------------------------------

 SCF Done:  E(RCAM-B3LYP) =  -3007.18939301     A.U. after   17 cycles

 Excitation energies and oscillator strengths:

 Excited State   1:      Singlet-A      1.7595 eV  704.67 nm  f=0.3749  <S**2>=0.000
     245 -> 248       -0.17266
     246 -> 247        0.68714
     245 <- 248       -0.10452
 This state for optimization and/or second-order correction.
 Total Energy, E(TD-HF/TD-DFT) =  -3007.12473414
 Copying the excited state density for this state as the 1-particle RhoCI density.

 Excited State   2:      Singlet-A      2.2138 eV  560.04 nm  f=0.1597  <S**2>=0.000
     245 -> 247        0.65554
     246 -> 248        0.24859

 Excited State   3:      Singlet-A      3.2924 eV  376.58 nm  f=0.0045  <S**2>=0.000
     241 -> 247       -0.31482
     244 -> 247        0.61917

 Excited State   4:      Singlet-A      3.4411 eV  360.31 nm  f=0.0021  <S**2>=0.000
     240 -> 247       -0.19784
     241 -> 247        0.55105
     244 -> 247        0.29864
     246 -> 248       -0.15885

 Excited State   5:      Singlet-A      3.4908 eV  355.17 nm  f=0.0000  <S**2>=0.000
     243 -> 247        0.57700
     243 -> 249        0.24438
     243 -> 250        0.25206

 The electronic state is 1-A.
 Alpha  occ. eigenvalues --  -46.88013 -19.26147 -19.23491 -19.20945 -19.19473
 Alpha  occ. eigenvalues --  -19.19268 -19.17544 -14.42547 -14.41677 -14.39495
 Alpha  occ. eigenvalues --  -14.38567 -10.40111 -10.38803 -10.35584 -10.33625
 Alpha  occ. eigenvalues --  -10.32392 -10.31636 -10.31099 -10.30872 -10.30637
 Alpha  occ. eigenvalues --  -10.30617 -10.30312 -10.29591 -10.29590 -10.29051
 Alpha  occ. eigenvalues --  -10.28905 -10.28227 -10.28195 -10.28187 -10.28118
 Alpha  occ. eigenvalues --  -10.27986 -10.27868 -10.27778 -10.27673 -10.27541
 Alpha  occ. eigenvalues --  -10.27223 -10.27193 -10.27180 -10.27164 -10.26746
 Alpha  occ. eigenvalues --  -10.26547 -10.26492 -10.26457 -10.26077 -10.26073
 Alpha  occ. eigenvalues --  -10.25904 -10.25783 -10.25643 -10.25636 -10.25550
 Alpha  occ. eigenvalues --  -10.25395 -10.25342 -10.25319 -10.25315 -10.25234
 Alpha  occ. eigenvalues --  -10.24906 -10.24879 -10.24857 -10.24656 -10.24649
 Alpha  occ. eigenvalues --  -10.24481 -10.24339 -10.24322 -10.24228 -10.24222
 Alpha  occ. eigenvalues --  -10.23832  -3.16578  -1.91494  -1.91019  -1.90890
 Alpha  occ. eigenvalues --   -1.18957  -1.13655  -1.10669  -1.09788  -1.07991
 Alpha  occ. eigenvalues --   -1.06047  -1.04203  -1.03336  -1.03025  -1.02195
 Alpha  occ. eigenvalues --   -0.92419  -0.91660  -0.90671  -0.90251  -0.89573
 Alpha  occ. eigenvalues --   -0.88925  -0.88092  -0.87742  -0.87500  -0.86672
 Alpha  occ. eigenvalues --   -0.85991  -0.85493  -0.84854  -0.83334  -0.82877
 Alpha  occ. eigenvalues --   -0.82714  -0.81968  -0.81726  -0.80882  -0.80206
 Alpha  occ. eigenvalues --   -0.80081  -0.78942  -0.78198  -0.76900  -0.76723
 Alpha  occ. eigenvalues --   -0.75897  -0.75606  -0.75359  -0.74964  -0.74726
 Alpha  occ. eigenvalues --   -0.73656  -0.72710  -0.71481  -0.70784  -0.69142
 Alpha  occ. eigenvalues --   -0.69042  -0.68489  -0.67372  -0.66923  -0.65723
 Alpha  occ. eigenvalues --   -0.65496  -0.65266  -0.65043  -0.64558  -0.64506
 Alpha  occ. eigenvalues --   -0.64163  -0.64110  -0.63206  -0.61288  -0.60831
 Alpha  occ. eigenvalues --   -0.60699  -0.59376  -0.58901  -0.58332  -0.57563
 Alpha  occ. eigenvalues --   -0.57294  -0.57146  -0.56820  -0.56444  -0.55732
 Alpha  occ. eigenvalues --   -0.55279  -0.54694  -0.54619  -0.54393  -0.53926
 Alpha  occ. eigenvalues --   -0.53725  -0.53558  -0.53377  -0.53268  -0.52827
 Alpha  occ. eigenvalues --   -0.52735  -0.52465  -0.52393  -0.52257  -0.51932
 Alpha  occ. eigenvalues --   -0.51706  -0.51228  -0.51099  -0.50913  -0.50697
 Alpha  occ. eigenvalues --   -0.50611  -0.50274  -0.50197  -0.50101  -0.49776
 Alpha  occ. eigenvalues --   -0.49711  -0.49459  -0.49192  -0.49007  -0.48632
 Alpha  occ. eigenvalues --   -0.48529  -0.48363  -0.48255  -0.48095  -0.47984
 Alpha  occ. eigenvalues --   -0.47667  -0.47380  -0.47200  -0.46895  -0.46490
 Alpha  occ. eigenvalues --   -0.46330  -0.46077  -0.46028  -0.45862  -0.45762
 Alpha  occ. eigenvalues --   -0.45583  -0.45450  -0.45239  -0.45018  -0.44849
 Alpha  occ. eigenvalues --   -0.44697  -0.44617  -0.44137  -0.44039  -0.43982
 Alpha  occ. eigenvalues --   -0.43740  -0.43552  -0.43491  -0.43221  -0.43079
 Alpha  occ. eigenvalues --   -0.42857  -0.42720  -0.42618  -0.42559  -0.42211
 Alpha  occ. eigenvalues --   -0.41742  -0.41567  -0.41430  -0.41212  -0.41167
 Alpha  occ. eigenvalues --   -0.41045  -0.40555  -0.40531  -0.40151  -0.39981
 Alpha  occ. eigenvalues --   -0.39871  -0.39752  -0.39517  -0.39395  -0.39225
 Alpha  occ. eigenvalues --   -0.38795  -0.38512  -0.38508  -0.38077  -0.37711
 Alpha  occ. eigenvalues --   -0.37562  -0.37367  -0.37085  -0.36499  -0.35705
 Alpha  occ. eigenvalues --   -0.35362  -0.35297  -0.35173  -0.34636  -0.34194
 Alpha  occ. eigenvalues --   -0.34170  -0.33617  -0.33041  -0.31808  -0.31227
 Alpha  occ. eigenvalues --   -0.30451  -0.30049  -0.29858  -0.28969  -0.24066
 Alpha  occ. eigenvalues --   -0.21646
 Alpha virt. eigenvalues --   -0.08958  -0.01332   0.00515   0.02761   0.02945
 Alpha virt. eigenvalues --    0.04098   0.05070   0.05195   0.05847   0.06759
 Alpha virt. eigenvalues --    0.08193   0.08324   0.08545   0.08858   0.08989

 Mulliken charges:
               1
     1  Mg   0.820049
     2  C   -0.008441
     3  C   -0.093206
     4  C   -0.055436
     5  C   -0.072641
     6  N   -0.284263
     7  C   -0.030626
     8  C   -0.077493
     9  C   -0.067489
    10  C    0.046088
    11  C    0.060122
    12  C    0.078858
    13  C    0.133133
    14  C    0.107419
    15  O   -0.218989
    16  O   -0.314606
    17  N   -0.382249
    18  C    0.176525
    19  C   -0.148031
    20  C   -0.011105
    21  C    0.112687
    22  C    0.144376
    23  C   -0.010723
    24  O   -0.200166
    25  C    0.036412
    26  N   -0.278978
    27  C    0.033873
    28  C   -0.047264
    29  C   -0.005040
    30  C    0.096339
    31  C    0.065803
    32  C    0.016586
    33  C   -0.007317
    34  N   -0.364083
    35  C    0.062654
    36  C   -0.167510
    37  C    0.037562
    38  C    0.097905
    39  C    0.115450
    40  C   -0.000683
    41  O   -0.187519
    42  C    0.057108
    43  C    0.222033
    44  O   -0.214923
    45  O   -0.356986
    46  C    0.182865
    47  C    0.288360
    48  C   -0.116681
    49  C   -0.254928
    50  C    0.102013
    51  C    0.079372
    52  C    0.064138
    53  C    0.067268
    54  C   -0.141797
    55  C    0.023878
    56  C    0.067007
    57  C    0.016291
    58  C    0.020285
    59  C   -0.114036
    60  C    0.064019
    61  C    0.092842
    62  C   -0.002708
    63  C    0.078313
    64  C   -0.135493
    65  C    0.021952
    66  C    0.042064
    67  H   -0.036486
    68  H   -0.004720
    69  H   -0.021003
    70  H    0.020856
    71  H   -0.001320
    72  H    0.035317
    73  H    0.023422
    74  H    0.005209
    75  H    0.005698
    76  H    0.014945
    77  H    0.023860
    78  H    0.032095
    79  H    0.023942
    80  H    0.021149
    81  H    0.023924
    82  H    0.038740
    83  H    0.014500
    84  H    0.044259
    85  H    0.025447
    86  H    0.019049
    87  H    0.024424
    88  H    0.006958
    89  H    0.031585
    90  H    0.006752
    91  H   -0.008006
    92  H    0.016198
    93  H    0.016881
    94  H    0.025018
    95  H    0.005594
    96  H    0.037272
    97  H    0.035388
    98  H    0.034747
    99  H    0.033849
   100  H    0.020400
   101  H    0.034658
   102  H    0.019398
   103  H    0.022361
   104  H   -0.008842
   105  H    0.019057
   106  H    0.040105
   107  H    0.036158
   108  H    0.022890
   109  H   -0.023867
   110  H   -0.004118
   111  H    0.000940
   112  H   -0.013452
   113  H   -0.006514
   114  H   -0.004546
   115  H    0.006509
   116  H   -0.006867
   117  H    0.012191
   118  H   -0.008074
   119  H   -0.009354
   120  H   -0.006689
   121  H   -0.009549
   122  H   -0.020251
   123  H   -0.010259
   124  H   -0.004448
   125  H    0.005239
   126  H    0.001977
   127  H    0.003270
   128  H   -0.013697
   129  H   -0.020203
   130  H   -0.005543
   131  H   -0.018658
   132  H   -0.021934
   133  H   -0.008449
   134  H    0.001206
   135  H    0.011627
   136  H    0.000894
   137  H   -0.003943
   138  H    0.009480
   139  H    0.008615
   140  H    0.016501
 Sum of Mulliken charges =  -0.00000

 Dipole moment (field-independent basis, Debye):
    X=              7.5010    Y=              5.1318    Z=             -2.4409  Tot=              9.4106
 Quadrupole moment (field-independent basis, Debye-Ang):
   XX=           -399.0125   YY=           -434.1550   ZZ=           -402.7877
   XY=            -43.9302   XZ=             19.7577   YZ=              2.5163

 Normal termination of Gaussian 16 at Sat Apr 30 10:22:33 2022.
