 Gaussian 16, Revision A.03,
 Gaussian 16:  ES64L-G16RevA.03 25-Dec-2016

 ---------------------------------
 #p PBE1PBE/Def2SVP td=(nstates=5)
 ---------------------------------

 -----------------------------------------------------
 step_701_chromophore_21 TDDFT with PBE1PBE functional
 -----------------------------------------------------
 Symbolic Z-matrix:
 Charge =  0 Multiplicity = 1

                         Standard orientation:
 ---------------------------------------------------------------------
 Center     Atomic      Atomic             Coordinates (Angstroms)
 Number     Number       Type             X           Y           Z
 ---------------------------------------------------------------------
      1         12           0       -4.821208    1.050946   -0.115201
      2          6           0       -4.522379   -2.410863   -0.250771
      3          6           0       -1.462263    1.310740    0.388434
      4          6           0       -5.229324    4.387028    0.119442
      5          6           0       -8.344143    0.721544   -0.217315
      6          7           0       -3.166671   -0.353351   -0.053441
      7          6           0       -3.288992   -1.740065   -0.187570
      8          6           0       -1.907177   -2.359534   -0.354637
      9          6           0       -1.014910   -1.300211    0.402874
     10          6           0       -1.906519    0.006132    0.210104
     11          6           0       -0.732044   -1.651608    1.937684
     12          6           0       -1.485809   -2.651896   -1.799929
     13          6           0       -0.438709   -3.759928   -2.071325
     14          6           0        0.278555   -4.244054   -0.844285
     15          8           0       -0.036143   -5.158725   -0.125715
     16          8           0        1.445650   -3.572037   -0.702924
     17          7           0       -3.511955    2.643616    0.222958
     18          6           0       -2.150411    2.513105    0.362126
     19          6           0       -1.570559    3.846434    0.493832
     20          6           0       -2.689534    4.691938    0.562390
     21          6           0       -3.883858    3.964909    0.253321
     22          6           0       -0.073993    4.152041    0.640385
     23          6           0       -2.706931    6.160383    0.843848
     24          8           0       -3.758813    6.784996    0.832582
     25          6           0       -1.373931    6.866321    1.169841
     26          7           0       -6.525880    2.381563    0.081937
     27          6           0       -6.429024    3.724801   -0.003128
     28          6           0       -7.817814    4.409021   -0.309789
     29          6           0       -8.823431    3.185200   -0.024582
     30          6           0       -7.853897    2.014436   -0.070586
     31          6           0       -8.061757    5.690052    0.550183
     32          6           0      -10.030395    3.189937   -1.002526
     33          6           0      -11.412023    3.445007   -0.340963
     34          7           0       -6.163935   -0.506133   -0.097311
     35          6           0       -7.538941   -0.494037   -0.269668
     36          6           0       -8.047004   -1.823326   -0.439846
     37          6           0       -6.858462   -2.609575   -0.421754
     38          6           0       -5.776596   -1.805280   -0.215568
     39          6           0       -9.467290   -2.317613   -0.724223
     40          6           0       -6.372018   -3.964042   -0.463433
     41          8           0       -6.973484   -5.034943   -0.584492
     42          6           0       -4.827845   -3.917395   -0.373641
     43          6           0       -4.397841   -4.813458    0.732419
     44          8           0       -4.586924   -4.615539    1.933553
     45          8           0       -3.703929   -5.917795    0.196206
     46          6           0       -2.776991   -6.569460    1.131636
     47          6           0        2.239001   -3.979040    0.416707
     48          6           0        3.639822   -3.410134    0.300169
     49          6           0        4.840984   -3.936966    0.575726
     50          6           0        5.088640   -5.127963    1.406954
     51          6           0        6.052623   -3.147734   -0.002084
     52          6           0        6.337942   -1.791910    0.601497
     53          6           0        7.809523   -1.461859    0.685254
     54          6           0        8.296520   -0.776937   -0.613462
     55          6           0        9.115268   -1.781208   -1.459379
     56          6           0        9.154353    0.401749   -0.369698
     57          6           0        8.714956    1.698772   -1.161636
     58          6           0        9.919476    2.195137   -2.031565
     59          6           0       10.860960    3.140781   -1.249806
     60          6           0       10.357076    4.591908   -1.255862
     61          6           0       12.290788    2.919848   -1.600279
     62          6           0       13.271405    2.889943   -0.413163
     63          6           0       13.907241    1.587351   -0.036478
     64          6           0       13.301804    1.042912    1.274740
     65          6           0       14.326287    1.021393    2.511890
     66          6           0       12.522909   -0.261567    1.009652
     67          1           0       -0.380395    1.375294    0.525017
     68          1           0       -5.305580    5.474154    0.056463
     69          1           0       -9.372886    0.492562   -0.502387
     70          1           0       -1.808530   -3.286746    0.210230
     71          1           0       -0.033571   -1.204873   -0.060710
     72          1           0       -1.598611   -2.243563    2.230436
     73          1           0       -0.570824   -0.828242    2.634003
     74          1           0        0.143461   -2.290149    2.054090
     75          1           0       -1.017642   -1.754927   -2.206249
     76          1           0       -2.405090   -2.803283   -2.366569
     77          1           0        0.282733   -3.371146   -2.788809
     78          1           0       -0.895445   -4.618263   -2.563543
     79          1           0        0.254924    4.985623    0.020670
     80          1           0        0.512118    3.245296    0.488883
     81          1           0        0.131923    4.526352    1.644080
     82          1           0       -0.798954    6.454507    1.999903
     83          1           0       -1.548599    7.863678    1.573607
     84          1           0       -0.906569    7.036969    0.200161
     85          1           0       -7.756124    4.658739   -1.368085
     86          1           0       -9.281560    3.294024    0.958563
     87          1           0       -8.992775    5.560646    1.101592
     88          1           0       -8.021569    6.599534   -0.050007
     89          1           0       -7.191451    5.947450    1.154785
     90          1           0      -10.048864    2.439894   -1.793012
     91          1           0       -9.904349    4.067304   -1.637211
     92          1           0      -11.368418    2.994782    0.650707
     93          1           0      -12.227319    2.968712   -0.884541
     94          1           0      -11.591959    4.517928   -0.275650
     95          1           0      -10.202029   -1.525240   -0.579763
     96          1           0       -9.842943   -3.176255   -0.167759
     97          1           0       -9.411666   -2.645528   -1.762227
     98          1           0       -4.462774   -4.273003   -1.336995
     99          1           0       -3.242339   -7.373827    1.701519
    100          1           0       -2.274452   -5.894212    1.824272
    101          1           0       -1.877540   -6.913725    0.622803
    102          1           0        2.364045   -5.062010    0.429342
    103          1           0        1.735148   -3.664056    1.331243
    104          1           0        3.669856   -2.511597   -0.316088
    105          1           0        6.112244   -5.207579    1.772689
    106          1           0        4.890245   -5.935885    0.701946
    107          1           0        4.357968   -5.032638    2.210954
    108          1           0        5.872397   -3.180513   -1.076240
    109          1           0        6.891708   -3.792952    0.256413
    110          1           0        5.955799   -1.755640    1.621780
    111          1           0        5.966254   -0.998159   -0.047029
    112          1           0        8.392630   -2.377594    0.789317
    113          1           0        7.997341   -0.834762    1.556490
    114          1           0        7.509563   -0.580331   -1.341274
    115          1           0        9.439097   -1.321178   -2.393028
    116          1           0        8.510960   -2.622127   -1.798437
    117          1           0        9.901082   -2.210465   -0.836816
    118          1           0       10.166895    0.238196   -0.737809
    119          1           0        9.320172    0.581758    0.693116
    120          1           0        8.412976    2.472594   -0.456784
    121          1           0        7.846463    1.452923   -1.773261
    122          1           0        9.504771    2.710222   -2.897889
    123          1           0       10.384574    1.367074   -2.567206
    124          1           0       10.687019    2.908537   -0.199016
    125          1           0        9.854039    4.928472   -0.350195
    126          1           0        9.635357    4.650280   -2.071146
    127          1           0       11.177810    5.296107   -1.389658
    128          1           0       12.721978    3.714538   -2.209704
    129          1           0       12.425006    2.003174   -2.175987
    130          1           0       12.803431    3.428487    0.410110
    131          1           0       14.080542    3.528277   -0.769064
    132          1           0       14.962467    1.744098    0.186896
    133          1           0       14.004452    0.873842   -0.855059
    134          1           0       12.596215    1.799571    1.616756
    135          1           0       14.146194    0.246389    3.256829
    136          1           0       14.436046    1.989212    3.002456
    137          1           0       15.379754    0.926342    2.250631
    138          1           0       11.595200   -0.117422    1.561264
    139          1           0       13.085101   -1.167295    1.235700
    140          1           0       12.245679   -0.414174   -0.033729
 ---------------------------------------------------------------------

 SCF Done:  E(RPBE1PBE) =  -3005.37585565     A.U. after   15 cycles

 Excitation energies and oscillator strengths:

 Excited State   1:      Singlet-A      1.8850 eV  657.73 nm  f=0.3626  <S**2>=0.000
     245 -> 248       -0.17115
     246 -> 247        0.69331
     246 <- 247       -0.10390
 This state for optimization and/or second-order correction.
 Total Energy, E(TD-HF/TD-DFT) =  -3005.30658250
 Copying the excited state density for this state as the 1-particle RhoCI density.

 Excited State   2:      Singlet-A      2.2233 eV  557.66 nm  f=0.1501  <S**2>=0.000
     245 -> 247        0.66428
     246 -> 248        0.23113

 Excited State   3:      Singlet-A      2.8458 eV  435.67 nm  f=0.0006  <S**2>=0.000
     243 -> 247       -0.32520
     244 -> 247        0.60215

 Excited State   4:      Singlet-A      2.9276 eV  423.50 nm  f=0.0036  <S**2>=0.000
     243 -> 247        0.60675
     244 -> 247        0.33265

 Excited State   5:      Singlet-A      3.0167 eV  411.00 nm  f=0.0020  <S**2>=0.000
     240 -> 247        0.34997
     240 -> 249       -0.11024
     241 -> 247        0.58290
     241 -> 249       -0.10364

 The electronic state is 1-A.
 Alpha  occ. eigenvalues --  -46.91431 -19.26789 -19.24249 -19.21183 -19.19585
 Alpha  occ. eigenvalues --  -19.19436 -19.18051 -14.41996 -14.41264 -14.39049
 Alpha  occ. eigenvalues --  -14.38435 -10.37128 -10.35921 -10.32459 -10.31006
 Alpha  occ. eigenvalues --  -10.29766 -10.29088 -10.29059 -10.28387 -10.28286
 Alpha  occ. eigenvalues --  -10.27961 -10.27930 -10.27180 -10.26895 -10.26849
 Alpha  occ. eigenvalues --  -10.26642 -10.26047 -10.26019 -10.26016 -10.25703
 Alpha  occ. eigenvalues --  -10.25522 -10.25505 -10.25483 -10.25415 -10.25359
 Alpha  occ. eigenvalues --  -10.25282 -10.24806 -10.24666 -10.24507 -10.24395
 Alpha  occ. eigenvalues --  -10.23857 -10.23855 -10.23821 -10.23802 -10.23743
 Alpha  occ. eigenvalues --  -10.23498 -10.23443 -10.23262 -10.23089 -10.23051
 Alpha  occ. eigenvalues --  -10.22964 -10.22940 -10.22921 -10.22897 -10.22833
 Alpha  occ. eigenvalues --  -10.22483 -10.22436 -10.22250 -10.22057 -10.22007
 Alpha  occ. eigenvalues --  -10.21874 -10.21854 -10.21840 -10.21832 -10.21760
 Alpha  occ. eigenvalues --  -10.21739  -3.13576  -1.86434  -1.85935  -1.85811
 Alpha  occ. eigenvalues --   -1.13759  -1.08488  -1.05143  -1.04639  -1.02966
 Alpha  occ. eigenvalues --   -1.00969  -0.98747  -0.97872  -0.97783  -0.96923
 Alpha  occ. eigenvalues --   -0.86956  -0.85776  -0.84792  -0.84417  -0.83709
 Alpha  occ. eigenvalues --   -0.83173  -0.82336  -0.81831  -0.81533  -0.80989
 Alpha  occ. eigenvalues --   -0.80256  -0.80018  -0.79007  -0.77606  -0.77263
 Alpha  occ. eigenvalues --   -0.76876  -0.76204  -0.75828  -0.75048  -0.74484
 Alpha  occ. eigenvalues --   -0.74333  -0.73019  -0.72504  -0.71280  -0.70892
 Alpha  occ. eigenvalues --   -0.69985  -0.69946  -0.69478  -0.69315  -0.68861
 Alpha  occ. eigenvalues --   -0.67986  -0.67219  -0.65891  -0.65105  -0.63449
 Alpha  occ. eigenvalues --   -0.63300  -0.62907  -0.61813  -0.61149  -0.60112
 Alpha  occ. eigenvalues --   -0.59957  -0.59576  -0.59457  -0.59041  -0.58773
 Alpha  occ. eigenvalues --   -0.58598  -0.58216  -0.57396  -0.55947  -0.55223
 Alpha  occ. eigenvalues --   -0.55096  -0.53893  -0.53515  -0.53030  -0.52206
 Alpha  occ. eigenvalues --   -0.51821  -0.51618  -0.51332  -0.51055  -0.50208
 Alpha  occ. eigenvalues --   -0.49815  -0.49250  -0.49120  -0.48781  -0.48231
 Alpha  occ. eigenvalues --   -0.48180  -0.47989  -0.47803  -0.47787  -0.47446
 Alpha  occ. eigenvalues --   -0.47243  -0.47105  -0.46870  -0.46750  -0.46464
 Alpha  occ. eigenvalues --   -0.46229  -0.45830  -0.45623  -0.45400  -0.45299
 Alpha  occ. eigenvalues --   -0.45195  -0.44804  -0.44739  -0.44596  -0.44274
 Alpha  occ. eigenvalues --   -0.44150  -0.43986  -0.43743  -0.43638  -0.43345
 Alpha  occ. eigenvalues --   -0.43159  -0.42993  -0.42885  -0.42744  -0.42626
 Alpha  occ. eigenvalues --   -0.42389  -0.41873  -0.41830  -0.41559  -0.41222
 Alpha  occ. eigenvalues --   -0.40990  -0.40827  -0.40641  -0.40488  -0.40451
 Alpha  occ. eigenvalues --   -0.40391  -0.40097  -0.40041  -0.39943  -0.39645
 Alpha  occ. eigenvalues --   -0.39425  -0.39342  -0.38959  -0.38758  -0.38620
 Alpha  occ. eigenvalues --   -0.38560  -0.38260  -0.38216  -0.38015  -0.37764
 Alpha  occ. eigenvalues --   -0.37663  -0.37497  -0.37371  -0.37226  -0.37065
 Alpha  occ. eigenvalues --   -0.36633  -0.36462  -0.36335  -0.36052  -0.35955
 Alpha  occ. eigenvalues --   -0.35798  -0.35507  -0.35383  -0.34969  -0.34841
 Alpha  occ. eigenvalues --   -0.34721  -0.34498  -0.34330  -0.34215  -0.33942
 Alpha  occ. eigenvalues --   -0.33615  -0.33488  -0.33264  -0.33019  -0.32728
 Alpha  occ. eigenvalues --   -0.32343  -0.32195  -0.32174  -0.31560  -0.30574
 Alpha  occ. eigenvalues --   -0.30285  -0.30260  -0.29992  -0.29496  -0.29447
 Alpha  occ. eigenvalues --   -0.29016  -0.28958  -0.28241  -0.27205  -0.26014
 Alpha  occ. eigenvalues --   -0.25799  -0.25304  -0.24996  -0.24816  -0.20999
 Alpha  occ. eigenvalues --   -0.19195
 Alpha virt. eigenvalues --   -0.11425  -0.04911  -0.03688  -0.01729  -0.00517
 Alpha virt. eigenvalues --    0.00104   0.00441   0.00729   0.01448   0.03499
 Alpha virt. eigenvalues --    0.04087   0.04845   0.04873   0.05394   0.05621

 Mulliken charges:
               1
     1  Mg   0.970653
     2  C   -0.029850
     3  C   -0.087759
     4  C   -0.056538
     5  C   -0.056805
     6  N   -0.390325
     7  C    0.045732
     8  C   -0.157251
     9  C   -0.140151
    10  C    0.087560
    11  C   -0.001140
    12  C    0.035695
    13  C    0.060671
    14  C    0.169245
    15  O   -0.254011
    16  O   -0.346396
    17  N   -0.498906
    18  C    0.196197
    19  C   -0.171019
    20  C   -0.075785
    21  C    0.154921
    22  C    0.082730
    23  C    0.044382
    24  O   -0.240092
    25  C   -0.037471
    26  N   -0.382038
    27  C    0.071128
    28  C   -0.124261
    29  C   -0.081259
    30  C    0.129234
    31  C    0.009505
    32  C   -0.041973
    33  C   -0.079754
    34  N   -0.492758
    35  C    0.086496
    36  C   -0.176949
    37  C   -0.017985
    38  C    0.155305
    39  C    0.062630
    40  C    0.095624
    41  O   -0.231709
    42  C   -0.049738
    43  C    0.309488
    44  O   -0.249269
    45  O   -0.388424
    46  C    0.127945
    47  C    0.245025
    48  C   -0.125055
    49  C   -0.295173
    50  C    0.034472
    51  C    0.017836
    52  C   -0.008312
    53  C    0.015411
    54  C   -0.226683
    55  C   -0.041042
    56  C    0.011063
    57  C   -0.045138
    58  C   -0.041663
    59  C   -0.201233
    60  C    0.009459
    61  C    0.042589
    62  C   -0.070357
    63  C    0.025039
    64  C   -0.226951
    65  C   -0.037520
    66  C   -0.019472
    67  H   -0.003521
    68  H    0.028333
    69  H    0.012156
    70  H    0.066294
    71  H    0.034848
    72  H    0.061492
    73  H    0.050995
    74  H    0.038203
    75  H    0.039147
    76  H    0.047867
    77  H    0.056295
    78  H    0.063528
    79  H    0.050699
    80  H    0.047394
    81  H    0.051007
    82  H    0.063515
    83  H    0.041721
    84  H    0.070994
    85  H    0.061906
    86  H    0.056372
    87  H    0.051143
    88  H    0.034708
    89  H    0.058484
    90  H    0.036906
    91  H    0.027455
    92  H    0.043569
    93  H    0.044995
    94  H    0.052760
    95  H    0.033499
    96  H    0.065276
    97  H    0.064683
    98  H    0.072735
    99  H    0.056671
   100  H    0.041929
   101  H    0.057886
   102  H    0.046846
   103  H    0.052463
   104  H    0.022216
   105  H    0.045615
   106  H    0.067861
   107  H    0.063279
   108  H    0.054260
   109  H    0.009325
   110  H    0.029782
   111  H    0.035001
   112  H    0.019241
   113  H    0.025565
   114  H    0.031276
   115  H    0.035978
   116  H    0.023252
   117  H    0.040733
   118  H    0.034216
   119  H    0.021946
   120  H    0.027158
   121  H    0.022741
   122  H    0.013096
   123  H    0.020558
   124  H    0.036220
   125  H    0.031666
   126  H    0.028748
   127  H    0.030450
   128  H    0.018867
   129  H    0.011825
   130  H    0.026393
   131  H    0.015148
   132  H    0.011954
   133  H    0.021792
   134  H    0.039211
   135  H    0.038672
   136  H    0.028266
   137  H    0.022687
   138  H    0.037987
   139  H    0.036003
   140  H    0.041946
 Sum of Mulliken charges =  -0.00000

 Dipole moment (field-independent basis, Debye):
    X=              6.9633    Y=              4.6092    Z=             -2.5628  Tot=              8.7350
 Quadrupole moment (field-independent basis, Debye-Ang):
   XX=           -388.0559   YY=           -432.2022   ZZ=           -400.4006
   XY=            -42.7094   XZ=             20.6681   YZ=              2.2403

 Normal termination of Gaussian 16 at Sat Apr 30 10:40:53 2022.
