 Gaussian 16, Revision A.03,
 Gaussian 16:  ES64L-G16RevA.03 25-Dec-2016

 --------------------------------
 #p wB97XD/Def2SVP td=(nstates=5)
 --------------------------------

 ----------------------------------------------------
 step_701_chromophore_21 TDDFT with wB97XD functional
 ----------------------------------------------------
 Symbolic Z-matrix:
 Charge =  0 Multiplicity = 1

                         Standard orientation:
 ---------------------------------------------------------------------
 Center     Atomic      Atomic             Coordinates (Angstroms)
 Number     Number       Type             X           Y           Z
 ---------------------------------------------------------------------
      1         12           0       -4.821208    1.050946   -0.115201
      2          6           0       -4.522379   -2.410863   -0.250771
      3          6           0       -1.462263    1.310740    0.388434
      4          6           0       -5.229324    4.387028    0.119442
      5          6           0       -8.344143    0.721544   -0.217315
      6          7           0       -3.166671   -0.353351   -0.053441
      7          6           0       -3.288992   -1.740065   -0.187570
      8          6           0       -1.907177   -2.359534   -0.354637
      9          6           0       -1.014910   -1.300211    0.402874
     10          6           0       -1.906519    0.006132    0.210104
     11          6           0       -0.732044   -1.651608    1.937684
     12          6           0       -1.485809   -2.651896   -1.799929
     13          6           0       -0.438709   -3.759928   -2.071325
     14          6           0        0.278555   -4.244054   -0.844285
     15          8           0       -0.036143   -5.158725   -0.125715
     16          8           0        1.445650   -3.572037   -0.702924
     17          7           0       -3.511955    2.643616    0.222958
     18          6           0       -2.150411    2.513105    0.362126
     19          6           0       -1.570559    3.846434    0.493832
     20          6           0       -2.689534    4.691938    0.562390
     21          6           0       -3.883858    3.964909    0.253321
     22          6           0       -0.073993    4.152041    0.640385
     23          6           0       -2.706931    6.160383    0.843848
     24          8           0       -3.758813    6.784996    0.832582
     25          6           0       -1.373931    6.866321    1.169841
     26          7           0       -6.525880    2.381563    0.081937
     27          6           0       -6.429024    3.724801   -0.003128
     28          6           0       -7.817814    4.409021   -0.309789
     29          6           0       -8.823431    3.185200   -0.024582
     30          6           0       -7.853897    2.014436   -0.070586
     31          6           0       -8.061757    5.690052    0.550183
     32          6           0      -10.030395    3.189937   -1.002526
     33          6           0      -11.412023    3.445007   -0.340963
     34          7           0       -6.163935   -0.506133   -0.097311
     35          6           0       -7.538941   -0.494037   -0.269668
     36          6           0       -8.047004   -1.823326   -0.439846
     37          6           0       -6.858462   -2.609575   -0.421754
     38          6           0       -5.776596   -1.805280   -0.215568
     39          6           0       -9.467290   -2.317613   -0.724223
     40          6           0       -6.372018   -3.964042   -0.463433
     41          8           0       -6.973484   -5.034943   -0.584492
     42          6           0       -4.827845   -3.917395   -0.373641
     43          6           0       -4.397841   -4.813458    0.732419
     44          8           0       -4.586924   -4.615539    1.933553
     45          8           0       -3.703929   -5.917795    0.196206
     46          6           0       -2.776991   -6.569460    1.131636
     47          6           0        2.239001   -3.979040    0.416707
     48          6           0        3.639822   -3.410134    0.300169
     49          6           0        4.840984   -3.936966    0.575726
     50          6           0        5.088640   -5.127963    1.406954
     51          6           0        6.052623   -3.147734   -0.002084
     52          6           0        6.337942   -1.791910    0.601497
     53          6           0        7.809523   -1.461859    0.685254
     54          6           0        8.296520   -0.776937   -0.613462
     55          6           0        9.115268   -1.781208   -1.459379
     56          6           0        9.154353    0.401749   -0.369698
     57          6           0        8.714956    1.698772   -1.161636
     58          6           0        9.919476    2.195137   -2.031565
     59          6           0       10.860960    3.140781   -1.249806
     60          6           0       10.357076    4.591908   -1.255862
     61          6           0       12.290788    2.919848   -1.600279
     62          6           0       13.271405    2.889943   -0.413163
     63          6           0       13.907241    1.587351   -0.036478
     64          6           0       13.301804    1.042912    1.274740
     65          6           0       14.326287    1.021393    2.511890
     66          6           0       12.522909   -0.261567    1.009652
     67          1           0       -0.380395    1.375294    0.525017
     68          1           0       -5.305580    5.474154    0.056463
     69          1           0       -9.372886    0.492562   -0.502387
     70          1           0       -1.808530   -3.286746    0.210230
     71          1           0       -0.033571   -1.204873   -0.060710
     72          1           0       -1.598611   -2.243563    2.230436
     73          1           0       -0.570824   -0.828242    2.634003
     74          1           0        0.143461   -2.290149    2.054090
     75          1           0       -1.017642   -1.754927   -2.206249
     76          1           0       -2.405090   -2.803283   -2.366569
     77          1           0        0.282733   -3.371146   -2.788809
     78          1           0       -0.895445   -4.618263   -2.563543
     79          1           0        0.254924    4.985623    0.020670
     80          1           0        0.512118    3.245296    0.488883
     81          1           0        0.131923    4.526352    1.644080
     82          1           0       -0.798954    6.454507    1.999903
     83          1           0       -1.548599    7.863678    1.573607
     84          1           0       -0.906569    7.036969    0.200161
     85          1           0       -7.756124    4.658739   -1.368085
     86          1           0       -9.281560    3.294024    0.958563
     87          1           0       -8.992775    5.560646    1.101592
     88          1           0       -8.021569    6.599534   -0.050007
     89          1           0       -7.191451    5.947450    1.154785
     90          1           0      -10.048864    2.439894   -1.793012
     91          1           0       -9.904349    4.067304   -1.637211
     92          1           0      -11.368418    2.994782    0.650707
     93          1           0      -12.227319    2.968712   -0.884541
     94          1           0      -11.591959    4.517928   -0.275650
     95          1           0      -10.202029   -1.525240   -0.579763
     96          1           0       -9.842943   -3.176255   -0.167759
     97          1           0       -9.411666   -2.645528   -1.762227
     98          1           0       -4.462774   -4.273003   -1.336995
     99          1           0       -3.242339   -7.373827    1.701519
    100          1           0       -2.274452   -5.894212    1.824272
    101          1           0       -1.877540   -6.913725    0.622803
    102          1           0        2.364045   -5.062010    0.429342
    103          1           0        1.735148   -3.664056    1.331243
    104          1           0        3.669856   -2.511597   -0.316088
    105          1           0        6.112244   -5.207579    1.772689
    106          1           0        4.890245   -5.935885    0.701946
    107          1           0        4.357968   -5.032638    2.210954
    108          1           0        5.872397   -3.180513   -1.076240
    109          1           0        6.891708   -3.792952    0.256413
    110          1           0        5.955799   -1.755640    1.621780
    111          1           0        5.966254   -0.998159   -0.047029
    112          1           0        8.392630   -2.377594    0.789317
    113          1           0        7.997341   -0.834762    1.556490
    114          1           0        7.509563   -0.580331   -1.341274
    115          1           0        9.439097   -1.321178   -2.393028
    116          1           0        8.510960   -2.622127   -1.798437
    117          1           0        9.901082   -2.210465   -0.836816
    118          1           0       10.166895    0.238196   -0.737809
    119          1           0        9.320172    0.581758    0.693116
    120          1           0        8.412976    2.472594   -0.456784
    121          1           0        7.846463    1.452923   -1.773261
    122          1           0        9.504771    2.710222   -2.897889
    123          1           0       10.384574    1.367074   -2.567206
    124          1           0       10.687019    2.908537   -0.199016
    125          1           0        9.854039    4.928472   -0.350195
    126          1           0        9.635357    4.650280   -2.071146
    127          1           0       11.177810    5.296107   -1.389658
    128          1           0       12.721978    3.714538   -2.209704
    129          1           0       12.425006    2.003174   -2.175987
    130          1           0       12.803431    3.428487    0.410110
    131          1           0       14.080542    3.528277   -0.769064
    132          1           0       14.962467    1.744098    0.186896
    133          1           0       14.004452    0.873842   -0.855059
    134          1           0       12.596215    1.799571    1.616756
    135          1           0       14.146194    0.246389    3.256829
    136          1           0       14.436046    1.989212    3.002456
    137          1           0       15.379754    0.926342    2.250631
    138          1           0       11.595200   -0.117422    1.561264
    139          1           0       13.085101   -1.167295    1.235700
    140          1           0       12.245679   -0.414174   -0.033729
 ---------------------------------------------------------------------

 SCF Done:  E(RwB97XD) =  -3007.88902252     A.U. after   19 cycles

 Excitation energies and oscillator strengths:

 Excited State   1:      Singlet-A      1.7212 eV  720.34 nm  f=0.3747  <S**2>=0.000
     245 -> 248       -0.17597
     246 -> 247        0.68515
     245 <- 248       -0.11179
 This state for optimization and/or second-order correction.
 Total Energy, E(TD-HF/TD-DFT) =  -3007.82576974
 Copying the excited state density for this state as the 1-particle RhoCI density.

 Excited State   2:      Singlet-A      2.1618 eV  573.52 nm  f=0.1546  <S**2>=0.000
     245 -> 247        0.65240
     246 -> 248        0.25140

 Excited State   3:      Singlet-A      3.3275 eV  372.60 nm  f=0.0046  <S**2>=0.000
     241 -> 247       -0.42483
     244 -> 247        0.53776

 Excited State   4:      Singlet-A      3.4678 eV  357.53 nm  f=0.0018  <S**2>=0.000
     239 -> 247        0.11010
     240 -> 247       -0.21302
     240 -> 249        0.10436
     241 -> 247        0.46070
     244 -> 247        0.40624
     246 -> 248       -0.17126

 Excited State   5:      Singlet-A      3.5466 eV  349.58 nm  f=0.0167  <S**2>=0.000
     239 -> 247        0.19568
     239 -> 249       -0.12784
     240 -> 247        0.43443
     240 -> 249       -0.25628
     240 -> 250       -0.10561
     243 -> 247        0.27577
     243 -> 249        0.13047
     243 -> 250       -0.13962
     246 -> 248       -0.14700

 The electronic state is 1-A.
 Alpha  occ. eigenvalues --  -46.94376 -19.31347 -19.28719 -19.25834 -19.24561
 Alpha  occ. eigenvalues --  -19.24207 -19.22549 -14.47177 -14.46285 -14.44153
 Alpha  occ. eigenvalues --  -14.43146 -10.43888 -10.42660 -10.39612 -10.37588
 Alpha  occ. eigenvalues --  -10.36277 -10.35736 -10.35112 -10.34961 -10.34782
 Alpha  occ. eigenvalues --  -10.34763 -10.34288 -10.33858 -10.33336 -10.33004
 Alpha  occ. eigenvalues --  -10.32994 -10.32305 -10.32304 -10.32252 -10.32139
 Alpha  occ. eigenvalues --  -10.31862 -10.31828 -10.31813 -10.31687 -10.31452
 Alpha  occ. eigenvalues --  -10.31349 -10.31309 -10.31229 -10.31162 -10.30675
 Alpha  occ. eigenvalues --  -10.30551 -10.30339 -10.30312 -10.30045 -10.30015
 Alpha  occ. eigenvalues --  -10.29861 -10.29727 -10.29600 -10.29524 -10.29363
 Alpha  occ. eigenvalues --  -10.29340 -10.29299 -10.29287 -10.29247 -10.29227
 Alpha  occ. eigenvalues --  -10.28860 -10.28821 -10.28692 -10.28520 -10.28478
 Alpha  occ. eigenvalues --  -10.28312 -10.28235 -10.28221 -10.28170 -10.28141
 Alpha  occ. eigenvalues --  -10.27792  -3.20367  -1.93975  -1.93477  -1.93351
 Alpha  occ. eigenvalues --   -1.21108  -1.15804  -1.12940  -1.11953  -1.10170
 Alpha  occ. eigenvalues --   -1.08244  -1.06244  -1.05402  -1.05042  -1.04226
 Alpha  occ. eigenvalues --   -0.94378  -0.93463  -0.92463  -0.92068  -0.91381
 Alpha  occ. eigenvalues --   -0.90870  -0.89996  -0.89546  -0.89492  -0.88614
 Alpha  occ. eigenvalues --   -0.87860  -0.87394  -0.86688  -0.85263  -0.84766
 Alpha  occ. eigenvalues --   -0.84555  -0.83875  -0.83661  -0.82815  -0.82060
 Alpha  occ. eigenvalues --   -0.82022  -0.80949  -0.80077  -0.78809  -0.78578
 Alpha  occ. eigenvalues --   -0.77677  -0.77552  -0.77175  -0.76898  -0.76563
 Alpha  occ. eigenvalues --   -0.75581  -0.74675  -0.73465  -0.72719  -0.71047
 Alpha  occ. eigenvalues --   -0.70931  -0.70483  -0.69402  -0.68806  -0.67687
 Alpha  occ. eigenvalues --   -0.67410  -0.67137  -0.67052  -0.66510  -0.66318
 Alpha  occ. eigenvalues --   -0.66154  -0.65905  -0.65042  -0.63271  -0.62853
 Alpha  occ. eigenvalues --   -0.62667  -0.61314  -0.60896  -0.60313  -0.59514
 Alpha  occ. eigenvalues --   -0.59230  -0.59061  -0.58783  -0.58429  -0.57645
 Alpha  occ. eigenvalues --   -0.57261  -0.56615  -0.56535  -0.56269  -0.55884
 Alpha  occ. eigenvalues --   -0.55640  -0.55442  -0.55259  -0.55182  -0.54798
 Alpha  occ. eigenvalues --   -0.54639  -0.54418  -0.54349  -0.54134  -0.53814
 Alpha  occ. eigenvalues --   -0.53603  -0.53130  -0.52996  -0.52781  -0.52643
 Alpha  occ. eigenvalues --   -0.52512  -0.52188  -0.52154  -0.52006  -0.51749
 Alpha  occ. eigenvalues --   -0.51608  -0.51327  -0.51086  -0.50955  -0.50574
 Alpha  occ. eigenvalues --   -0.50452  -0.50269  -0.50166  -0.50035  -0.49930
 Alpha  occ. eigenvalues --   -0.49568  -0.49391  -0.49107  -0.48788  -0.48383
 Alpha  occ. eigenvalues --   -0.48269  -0.47968  -0.47907  -0.47722  -0.47704
 Alpha  occ. eigenvalues --   -0.47508  -0.47314  -0.47169  -0.46923  -0.46736
 Alpha  occ. eigenvalues --   -0.46568  -0.46537  -0.46091  -0.45945  -0.45864
 Alpha  occ. eigenvalues --   -0.45694  -0.45461  -0.45430  -0.45172  -0.45034
 Alpha  occ. eigenvalues --   -0.44767  -0.44660  -0.44520  -0.44434  -0.44122
 Alpha  occ. eigenvalues --   -0.43656  -0.43496  -0.43328  -0.43073  -0.43053
 Alpha  occ. eigenvalues --   -0.42914  -0.42477  -0.42427  -0.42082  -0.41840
 Alpha  occ. eigenvalues --   -0.41768  -0.41584  -0.41391  -0.41281  -0.41071
 Alpha  occ. eigenvalues --   -0.40659  -0.40448  -0.40356  -0.40067  -0.39695
 Alpha  occ. eigenvalues --   -0.39406  -0.39224  -0.39206  -0.38436  -0.37563
 Alpha  occ. eigenvalues --   -0.37281  -0.37212  -0.37067  -0.36470  -0.36201
 Alpha  occ. eigenvalues --   -0.36005  -0.35699  -0.35156  -0.33977  -0.33281
 Alpha  occ. eigenvalues --   -0.32700  -0.32100  -0.31777  -0.31085  -0.26015
 Alpha  occ. eigenvalues --   -0.23481
 Alpha virt. eigenvalues --   -0.07301   0.00574   0.02539   0.04862   0.05944
 Alpha virt. eigenvalues --    0.06431   0.07223   0.07447   0.08133   0.09707
 Alpha virt. eigenvalues --    0.10761   0.11485   0.11596   0.12084   0.12168

 Mulliken charges:
               1
     1  Mg   0.960035
     2  C   -0.026716
     3  C   -0.105213
     4  C   -0.072416
     5  C   -0.071974
     6  N   -0.355537
     7  C    0.008171
     8  C   -0.114815
     9  C   -0.117723
    10  C    0.070586
    11  C    0.015041
    12  C    0.039488
    13  C    0.073979
    14  C    0.156492
    15  O   -0.249453
    16  O   -0.343293
    17  N   -0.467547
    18  C    0.194956
    19  C   -0.162632
    20  C   -0.061534
    21  C    0.145079
    22  C    0.098039
    23  C    0.038287
    24  O   -0.231856
    25  C   -0.026828
    26  N   -0.352104
    27  C    0.064456
    28  C   -0.099633
    29  C   -0.053009
    30  C    0.115618
    31  C    0.019849
    32  C   -0.030965
    33  C   -0.061637
    34  N   -0.454233
    35  C    0.076123
    36  C   -0.181175
    37  C   -0.010024
    38  C    0.133517
    39  C    0.075476
    40  C    0.075533
    41  O   -0.224349
    42  C   -0.009555
    43  C    0.286493
    44  O   -0.244005
    45  O   -0.387644
    46  C    0.142514
    47  C    0.262171
    48  C   -0.137557
    49  C   -0.278429
    50  C    0.046304
    51  C    0.036484
    52  C    0.012530
    53  C    0.030677
    54  C   -0.199844
    55  C   -0.020493
    56  C    0.041924
    57  C   -0.029975
    58  C   -0.017982
    59  C   -0.168424
    60  C    0.017841
    61  C    0.053789
    62  C   -0.049339
    63  C    0.035662
    64  C   -0.196053
    65  C   -0.025017
    66  C   -0.004019
    67  H   -0.010075
    68  H    0.021065
    69  H    0.001689
    70  H    0.042000
    71  H    0.025521
    72  H    0.055714
    73  H    0.045991
    74  H    0.027297
    75  H    0.030335
    76  H    0.040253
    77  H    0.051567
    78  H    0.059574
    79  H    0.046231
    80  H    0.044899
    81  H    0.046234
    82  H    0.059401
    83  H    0.041340
    84  H    0.066816
    85  H    0.052106
    86  H    0.043247
    87  H    0.046251
    88  H    0.029651
    89  H    0.051470
    90  H    0.030788
    91  H    0.016910
    92  H    0.036164
    93  H    0.040101
    94  H    0.046061
    95  H    0.026477
    96  H    0.060102
    97  H    0.057287
    98  H    0.066043
    99  H    0.053676
   100  H    0.037072
   101  H    0.054087
   102  H    0.040440
   103  H    0.043962
   104  H    0.017762
   105  H    0.041731
   106  H    0.062234
   107  H    0.058010
   108  H    0.047084
   109  H   -0.003041
   110  H    0.022378
   111  H    0.024143
   112  H    0.007915
   113  H    0.018739
   114  H    0.016590
   115  H    0.028776
   116  H    0.015442
   117  H    0.032328
   118  H    0.001281
   119  H    0.011313
   120  H    0.018375
   121  H    0.015123
   122  H    0.003869
   123  H    0.010697
   124  H    0.016476
   125  H    0.027137
   126  H    0.021788
   127  H    0.024900
   128  H    0.011413
   129  H    0.001413
   130  H    0.015724
   131  H    0.008377
   132  H    0.002979
   133  H    0.015049
   134  H    0.024842
   135  H    0.033731
   136  H    0.022385
   137  H    0.015675
   138  H    0.029915
   139  H    0.031685
   140  H    0.033903
 Sum of Mulliken charges =  -0.00000

 Dipole moment (field-independent basis, Debye):
    X=              7.7088    Y=              5.3426    Z=             -2.4547  Tot=              9.6951
 Quadrupole moment (field-independent basis, Debye-Ang):
   XX=           -395.1221   YY=           -429.5276   ZZ=           -400.0247
   XY=            -44.8057   XZ=             20.3437   YZ=              2.6204

 Normal termination of Gaussian 16 at Sat Apr 30 11:14:37 2022.
