 Gaussian 16, Revision A.03,
 Gaussian 16:  ES64L-G16RevA.03 25-Dec-2016

 --------------------
 #p ZINDO=(nstates=5)
 --------------------

 -----------------------------
 step_701_chromophore_21 ZINDO
 -----------------------------
 Symbolic Z-matrix:
 Charge =  0 Multiplicity = 1

                         Standard orientation:
 ---------------------------------------------------------------------
 Center     Atomic      Atomic             Coordinates (Angstroms)
 Number     Number       Type             X           Y           Z
 ---------------------------------------------------------------------
      1         12           0       -4.821208    1.050946   -0.115201
      2          6           0       -4.522379   -2.410863   -0.250771
      3          6           0       -1.462263    1.310740    0.388434
      4          6           0       -5.229324    4.387028    0.119442
      5          6           0       -8.344143    0.721544   -0.217315
      6          7           0       -3.166671   -0.353351   -0.053441
      7          6           0       -3.288992   -1.740065   -0.187570
      8          6           0       -1.907177   -2.359534   -0.354637
      9          6           0       -1.014910   -1.300211    0.402874
     10          6           0       -1.906519    0.006132    0.210104
     11          6           0       -0.732044   -1.651608    1.937684
     12          6           0       -1.485809   -2.651896   -1.799929
     13          6           0       -0.438709   -3.759928   -2.071325
     14          6           0        0.278555   -4.244054   -0.844285
     15          8           0       -0.036143   -5.158725   -0.125715
     16          8           0        1.445650   -3.572037   -0.702924
     17          7           0       -3.511955    2.643616    0.222958
     18          6           0       -2.150411    2.513105    0.362126
     19          6           0       -1.570559    3.846434    0.493832
     20          6           0       -2.689534    4.691938    0.562390
     21          6           0       -3.883858    3.964909    0.253321
     22          6           0       -0.073993    4.152041    0.640385
     23          6           0       -2.706931    6.160383    0.843848
     24          8           0       -3.758813    6.784996    0.832582
     25          6           0       -1.373931    6.866321    1.169841
     26          7           0       -6.525880    2.381563    0.081937
     27          6           0       -6.429024    3.724801   -0.003128
     28          6           0       -7.817814    4.409021   -0.309789
     29          6           0       -8.823431    3.185200   -0.024582
     30          6           0       -7.853897    2.014436   -0.070586
     31          6           0       -8.061757    5.690052    0.550183
     32          6           0      -10.030395    3.189937   -1.002526
     33          6           0      -11.412023    3.445007   -0.340963
     34          7           0       -6.163935   -0.506133   -0.097311
     35          6           0       -7.538941   -0.494037   -0.269668
     36          6           0       -8.047004   -1.823326   -0.439846
     37          6           0       -6.858462   -2.609575   -0.421754
     38          6           0       -5.776596   -1.805280   -0.215568
     39          6           0       -9.467290   -2.317613   -0.724223
     40          6           0       -6.372018   -3.964042   -0.463433
     41          8           0       -6.973484   -5.034943   -0.584492
     42          6           0       -4.827845   -3.917395   -0.373641
     43          6           0       -4.397841   -4.813458    0.732419
     44          8           0       -4.586924   -4.615539    1.933553
     45          8           0       -3.703929   -5.917795    0.196206
     46          6           0       -2.776991   -6.569460    1.131636
     47          6           0        2.239001   -3.979040    0.416707
     48          6           0        3.639822   -3.410134    0.300169
     49          6           0        4.840984   -3.936966    0.575726
     50          6           0        5.088640   -5.127963    1.406954
     51          6           0        6.052623   -3.147734   -0.002084
     52          6           0        6.337942   -1.791910    0.601497
     53          6           0        7.809523   -1.461859    0.685254
     54          6           0        8.296520   -0.776937   -0.613462
     55          6           0        9.115268   -1.781208   -1.459379
     56          6           0        9.154353    0.401749   -0.369698
     57          6           0        8.714956    1.698772   -1.161636
     58          6           0        9.919476    2.195137   -2.031565
     59          6           0       10.860960    3.140781   -1.249806
     60          6           0       10.357076    4.591908   -1.255862
     61          6           0       12.290788    2.919848   -1.600279
     62          6           0       13.271405    2.889943   -0.413163
     63          6           0       13.907241    1.587351   -0.036478
     64          6           0       13.301804    1.042912    1.274740
     65          6           0       14.326287    1.021393    2.511890
     66          6           0       12.522909   -0.261567    1.009652
     67          1           0       -0.380395    1.375294    0.525017
     68          1           0       -5.305580    5.474154    0.056463
     69          1           0       -9.372886    0.492562   -0.502387
     70          1           0       -1.808530   -3.286746    0.210230
     71          1           0       -0.033571   -1.204873   -0.060710
     72          1           0       -1.598611   -2.243563    2.230436
     73          1           0       -0.570824   -0.828242    2.634003
     74          1           0        0.143461   -2.290149    2.054090
     75          1           0       -1.017642   -1.754927   -2.206249
     76          1           0       -2.405090   -2.803283   -2.366569
     77          1           0        0.282733   -3.371146   -2.788809
     78          1           0       -0.895445   -4.618263   -2.563543
     79          1           0        0.254924    4.985623    0.020670
     80          1           0        0.512118    3.245296    0.488883
     81          1           0        0.131923    4.526352    1.644080
     82          1           0       -0.798954    6.454507    1.999903
     83          1           0       -1.548599    7.863678    1.573607
     84          1           0       -0.906569    7.036969    0.200161
     85          1           0       -7.756124    4.658739   -1.368085
     86          1           0       -9.281560    3.294024    0.958563
     87          1           0       -8.992775    5.560646    1.101592
     88          1           0       -8.021569    6.599534   -0.050007
     89          1           0       -7.191451    5.947450    1.154785
     90          1           0      -10.048864    2.439894   -1.793012
     91          1           0       -9.904349    4.067304   -1.637211
     92          1           0      -11.368418    2.994782    0.650707
     93          1           0      -12.227319    2.968712   -0.884541
     94          1           0      -11.591959    4.517928   -0.275650
     95          1           0      -10.202029   -1.525240   -0.579763
     96          1           0       -9.842943   -3.176255   -0.167759
     97          1           0       -9.411666   -2.645528   -1.762227
     98          1           0       -4.462774   -4.273003   -1.336995
     99          1           0       -3.242339   -7.373827    1.701519
    100          1           0       -2.274452   -5.894212    1.824272
    101          1           0       -1.877540   -6.913725    0.622803
    102          1           0        2.364045   -5.062010    0.429342
    103          1           0        1.735148   -3.664056    1.331243
    104          1           0        3.669856   -2.511597   -0.316088
    105          1           0        6.112244   -5.207579    1.772689
    106          1           0        4.890245   -5.935885    0.701946
    107          1           0        4.357968   -5.032638    2.210954
    108          1           0        5.872397   -3.180513   -1.076240
    109          1           0        6.891708   -3.792952    0.256413
    110          1           0        5.955799   -1.755640    1.621780
    111          1           0        5.966254   -0.998159   -0.047029
    112          1           0        8.392630   -2.377594    0.789317
    113          1           0        7.997341   -0.834762    1.556490
    114          1           0        7.509563   -0.580331   -1.341274
    115          1           0        9.439097   -1.321178   -2.393028
    116          1           0        8.510960   -2.622127   -1.798437
    117          1           0        9.901082   -2.210465   -0.836816
    118          1           0       10.166895    0.238196   -0.737809
    119          1           0        9.320172    0.581758    0.693116
    120          1           0        8.412976    2.472594   -0.456784
    121          1           0        7.846463    1.452923   -1.773261
    122          1           0        9.504771    2.710222   -2.897889
    123          1           0       10.384574    1.367074   -2.567206
    124          1           0       10.687019    2.908537   -0.199016
    125          1           0        9.854039    4.928472   -0.350195
    126          1           0        9.635357    4.650280   -2.071146
    127          1           0       11.177810    5.296107   -1.389658
    128          1           0       12.721978    3.714538   -2.209704
    129          1           0       12.425006    2.003174   -2.175987
    130          1           0       12.803431    3.428487    0.410110
    131          1           0       14.080542    3.528277   -0.769064
    132          1           0       14.962467    1.744098    0.186896
    133          1           0       14.004452    0.873842   -0.855059
    134          1           0       12.596215    1.799571    1.616756
    135          1           0       14.146194    0.246389    3.256829
    136          1           0       14.436046    1.989212    3.002456
    137          1           0       15.379754    0.926342    2.250631
    138          1           0       11.595200   -0.117422    1.561264
    139          1           0       13.085101   -1.167295    1.235700
    140          1           0       12.245679   -0.414174   -0.033729
 ---------------------------------------------------------------------

 SCF Done:  E(RZINDO/S) =  -474.497030023     A.U. after   20 cycles

 Excitation energies and oscillator strengths:

 Excited State   1:      Singlet-A      1.3268 eV  934.45 nm  f=0.5653  <S**2>=0.000
     175 ->178        -0.16352
     176 ->177         0.67127
 This state for optimization and/or second-order correction.
 Total Energy, E(CIS/TDA) =  -474.448270481
 Copying the excited state density for this state as the 1-particle RhoCI density.

 Excited State   2:      Singlet-A      1.9647 eV  631.07 nm  f=0.0931  <S**2>=0.000
     175 ->177         0.57524
     176 ->178         0.37494

 Excited State   3:      Singlet-A      2.8877 eV  429.35 nm  f=0.0099  <S**2>=0.000
     167 ->179        -0.15259
     168 ->177         0.32119
     168 ->179        -0.43688
     168 ->180         0.17517
     168 ->186        -0.19099
     170 ->177         0.12586
     170 ->179        -0.11023

 Excited State   4:      Singlet-A      3.0099 eV  411.93 nm  f=0.0001  <S**2>=0.000
     171 ->177         0.29547
     171 ->178         0.20757
     171 ->179         0.23377
     171 ->180         0.39054
     171 ->184         0.12335
     171 ->186         0.21427
     171 ->187         0.16075
     171 ->188        -0.11040
     171 ->205        -0.13215

 Excited State   5:      Singlet-A      3.0887 eV  401.41 nm  f=0.9588  <S**2>=0.000
     170 ->177         0.16647
     175 ->177        -0.32590
     176 ->178         0.53424
     176 ->179         0.13203
     176 ->180         0.15010

 The electronic state is 1-A.
 Alpha  occ. eigenvalues --   -1.83807  -1.82192  -1.79427  -1.76755  -1.70874
 Alpha  occ. eigenvalues --   -1.68780  -1.68558  -1.63522  -1.59680  -1.57331
 Alpha  occ. eigenvalues --   -1.55829  -1.52714  -1.49369  -1.47675  -1.46084
 Alpha  occ. eigenvalues --   -1.44511  -1.42731  -1.40643  -1.40573  -1.37351
 Alpha  occ. eigenvalues --   -1.34786  -1.34505  -1.33523  -1.31088  -1.28201
 Alpha  occ. eigenvalues --   -1.26330  -1.24526  -1.22282  -1.21169  -1.18393
 Alpha  occ. eigenvalues --   -1.17618  -1.16880  -1.16430  -1.14849  -1.13670
 Alpha  occ. eigenvalues --   -1.12451  -1.12033  -1.11740  -1.04575  -1.03443
 Alpha  occ. eigenvalues --   -1.02836  -1.00923  -1.00216  -0.97759  -0.96675
 Alpha  occ. eigenvalues --   -0.95855  -0.94876  -0.94839  -0.93791  -0.92957
 Alpha  occ. eigenvalues --   -0.92426  -0.90498  -0.89822  -0.88773  -0.87613
 Alpha  occ. eigenvalues --   -0.86368  -0.85434  -0.84228  -0.83179  -0.80436
 Alpha  occ. eigenvalues --   -0.79651  -0.78784  -0.77293  -0.76584  -0.75810
 Alpha  occ. eigenvalues --   -0.75598  -0.74796  -0.74145  -0.73743  -0.73292
 Alpha  occ. eigenvalues --   -0.72730  -0.72658  -0.71900  -0.71669  -0.70060
 Alpha  occ. eigenvalues --   -0.69926  -0.69509  -0.69295  -0.68811  -0.67893
 Alpha  occ. eigenvalues --   -0.67434  -0.67260  -0.66859  -0.66599  -0.66352
 Alpha  occ. eigenvalues --   -0.65616  -0.65109  -0.64885  -0.64130  -0.64061
 Alpha  occ. eigenvalues --   -0.63686  -0.62632  -0.62344  -0.62119  -0.61774
 Alpha  occ. eigenvalues --   -0.61117  -0.60830  -0.60710  -0.59936  -0.59786
 Alpha  occ. eigenvalues --   -0.59479  -0.59394  -0.58670  -0.58549  -0.58491
 Alpha  occ. eigenvalues --   -0.58118  -0.57611  -0.57277  -0.57230  -0.56555
 Alpha  occ. eigenvalues --   -0.56063  -0.55985  -0.55300  -0.54790  -0.54669
 Alpha  occ. eigenvalues --   -0.54399  -0.54131  -0.53544  -0.53310  -0.52938
 Alpha  occ. eigenvalues --   -0.52755  -0.52490  -0.52190  -0.51593  -0.51445
 Alpha  occ. eigenvalues --   -0.51222  -0.51104  -0.50693  -0.50337  -0.49860
 Alpha  occ. eigenvalues --   -0.49734  -0.49377  -0.49229  -0.48860  -0.48802
 Alpha  occ. eigenvalues --   -0.48444  -0.48384  -0.48136  -0.47909  -0.47789
 Alpha  occ. eigenvalues --   -0.47309  -0.47062  -0.46774  -0.46723  -0.46560
 Alpha  occ. eigenvalues --   -0.46400  -0.46190  -0.46115  -0.45835  -0.45614
 Alpha  occ. eigenvalues --   -0.45069  -0.44630  -0.44545  -0.44098  -0.43618
 Alpha  occ. eigenvalues --   -0.43453  -0.42741  -0.42581  -0.42224  -0.41914
 Alpha  occ. eigenvalues --   -0.41780  -0.41419  -0.40753  -0.39313  -0.38962
 Alpha  occ. eigenvalues --   -0.37874  -0.36980  -0.35913  -0.34823  -0.34291
 Alpha  occ. eigenvalues --   -0.33606  -0.32827  -0.32097  -0.31332  -0.26838
 Alpha  occ. eigenvalues --   -0.22305
 Alpha virt. eigenvalues --   -0.08716  -0.01783  -0.00510   0.01523   0.01965
 Alpha virt. eigenvalues --    0.02821   0.02974   0.03339   0.04649   0.05127
 Alpha virt. eigenvalues --    0.06440   0.06512   0.07173   0.07725   0.08374

 Mulliken charges:
               1
     1  Mg   0.421131
     2  C   -0.020146
     3  C   -0.074955
     4  C   -0.071507
     5  C   -0.071689
     6  N   -0.269377
     7  C    0.084109
     8  C    0.007621
     9  C   -0.002245
    10  C    0.163392
    11  C   -0.054086
    12  C   -0.012985
    13  C    0.007751
    14  C    0.479996
    15  O   -0.521766
    16  O   -0.268245
    17  N   -0.341681
    18  C    0.139791
    19  C    0.022623
    20  C   -0.020349
    21  C    0.160519
    22  C   -0.040638
    23  C    0.322965
    24  O   -0.513265
    25  C   -0.040179
    26  N   -0.275507
    27  C    0.172256
    28  C   -0.001169
    29  C    0.004331
    30  C    0.098802
    31  C   -0.060430
    32  C   -0.039671
    33  C   -0.056498
    34  N   -0.327227
    35  C    0.071384
    36  C   -0.001205
    37  C   -0.053394
    38  C    0.104375
    39  C   -0.037824
    40  C    0.330482
    41  O   -0.538567
    42  C    0.060658
    43  C    0.497509
    44  O   -0.513710
    45  O   -0.272779
    46  C    0.071310
    47  C    0.108495
    48  C   -0.113069
    49  C   -0.002271
    50  C   -0.039357
    51  C   -0.024462
    52  C   -0.023998
    53  C   -0.033775
    54  C   -0.010417
    55  C   -0.060299
    56  C   -0.035487
    57  C   -0.042407
    58  C   -0.035778
    59  C    0.000726
    60  C   -0.056878
    61  C   -0.027504
    62  C   -0.033125
    63  C   -0.025627
    64  C   -0.010504
    65  C   -0.066754
    66  C   -0.057278
    67  H    0.019326
    68  H    0.039594
    69  H    0.035252
    70  H    0.035994
    71  H    0.023775
    72  H    0.029925
    73  H    0.026751
    74  H    0.021799
    75  H    0.017590
    76  H    0.027097
    77  H    0.031821
    78  H    0.040242
    79  H    0.034337
    80  H    0.030052
    81  H    0.031822
    82  H    0.042944
    83  H    0.025631
    84  H    0.045803
    85  H    0.041809
    86  H    0.040669
    87  H    0.030424
    88  H    0.020309
    89  H    0.031465
    90  H    0.030511
    91  H    0.003497
    92  H    0.019286
    93  H    0.020607
    94  H    0.023254
    95  H    0.017996
    96  H    0.038088
    97  H    0.030910
    98  H    0.050303
    99  H    0.046720
   100  H    0.038166
   101  H    0.036046
   102  H    0.046697
   103  H    0.047582
   104  H    0.015615
   105  H    0.027183
   106  H    0.038475
   107  H    0.033122
   108  H    0.031578
   109  H    0.013819
   110  H    0.020387
   111  H    0.024678
   112  H    0.019442
   113  H    0.016798
   114  H    0.025416
   115  H    0.016768
   116  H    0.003861
   117  H    0.020964
   118  H    0.016076
   119  H    0.017347
   120  H    0.019087
   121  H    0.017890
   122  H    0.003650
   123  H    0.021379
   124  H    0.015476
   125  H    0.017882
   126  H    0.018926
   127  H    0.017499
   128  H    0.015184
   129  H    0.016449
   130  H    0.023871
   131  H    0.003860
   132  H    0.006877
   133  H    0.025298
   134  H    0.018001
   135  H    0.021540
   136  H    0.017004
   137  H    0.014488
   138  H    0.019202
   139  H    0.024234
   140  H    0.016446
 Sum of Mulliken charges =  -0.00000

 Dipole moment (field-independent basis, Debye):
    X=             11.6151    Y=              8.0276    Z=             -4.2180  Tot=             14.7358
 N-N= 4.353435659084D+03 E-N= 0.000000000000D+00  KE=-9.381241100346D+03
 Leave Link  601 at Sat Apr 30 11:28:51 2022, MaxMem=  6710886400 cpu:               1.1 elap:               0.1
 (Enter /sw/apps/gaussian-16.0/g16/l9999.exe)
 1\1\GINC-BP1-COMPUTE142\SP\RZINDO CIS\STO-3G\C55H74Mg1N4O6\OF15641\30-
 Apr-2022\0\\#p ZINDO=(nstates=5)\\step_701_chromophore_21 ZINDO\\0,1\M
 g,0,15.649,51.705,26.058\C,0,17.458,50.624,28.824\C,0,13.063,52.569,28
 .1\C,0,13.93,52.615,23.307\C,0,18.173,50.413,23.939\N,0,15.327,51.713,
 28.205\C,0,16.25,51.262,29.154\C,0,15.785,51.664,30.548\C,0,14.223,51.
 733,30.33\C,0,14.172,52.072,28.774\C,0,13.443,50.389,30.71\C,0,16.421,
 52.94,31.113\C,0,16.5,53.128,32.648\C,0,15.671,52.152,33.432\O,0,16.01

 Normal termination of Gaussian 16 at Sat Apr 30 11:28:51 2022.
