 Gaussian 16, Revision A.03,
 Gaussian 16:  ES64L-G16RevA.03 25-Dec-2016

 ------------------------------
 #p blyp/Def2SVP td=(nstates=5)
 ------------------------------

 -------------------------------------------------
 step_251_chromophore_3 TDDFT with blyp functional
 -------------------------------------------------
 Symbolic Z-matrix:
 Charge =  0 Multiplicity = 1

                         Standard orientation:
 ---------------------------------------------------------------------
 Center     Atomic      Atomic             Coordinates (Angstroms)
 Number     Number       Type             X           Y           Z
 ---------------------------------------------------------------------
      1         12           0       -5.278841    0.699730    0.087413
      2          6           0       -4.319870   -2.544836   -0.012021
      3          6           0       -1.947817    1.682752    0.139312
      4          6           0       -6.238394    3.944657    0.193134
      5          6           0       -8.568012   -0.284414    0.529973
      6          7           0       -3.451090   -0.337388   -0.043988
      7          6           0       -3.244857   -1.678602   -0.044523
      8          6           0       -1.806600   -2.039600   -0.310038
      9          6           0       -1.035500   -0.704583    0.016526
     10          6           0       -2.235522    0.298236    0.008954
     11          6           0       -0.091181   -0.614673    1.287329
     12          6           0       -1.570680   -2.448155   -1.833581
     13          6           0       -0.325816   -3.365041   -2.019241
     14          6           0        0.866964   -3.321509   -1.049434
     15          8           0        0.984063   -3.785149    0.047975
     16          8           0        1.904248   -2.537112   -1.508580
     17          7           0       -4.258935    2.603779    0.238301
     18          6           0       -2.847004    2.750694    0.230321
     19          6           0       -2.512655    4.141993    0.283179
     20          6           0       -3.768914    4.845974    0.317464
     21          6           0       -4.813972    3.764135    0.231526
     22          6           0       -1.128606    4.685157    0.211678
     23          6           0       -4.034512    6.345713    0.385459
     24          8           0       -5.169074    6.888883    0.528695
     25          6           0       -2.866525    7.313442    0.298804
     26          7           0       -7.111334    1.693267    0.393926
     27          6           0       -7.297098    3.063887    0.206670
     28          6           0       -8.780855    3.499528    0.033605
     29          6           0       -9.482789    2.029993    0.107993
     30          6           0       -8.363063    1.079428    0.325565
     31          6           0       -9.162218    4.444815    1.180095
     32          6           0      -10.357477    1.702050   -1.066017
     33          6           0      -11.763866    1.339834   -0.682836
     34          7           0       -6.299435   -0.949860    0.347464
     35          6           0       -7.645460   -1.262433    0.491631
     36          6           0       -7.814484   -2.665641    0.577571
     37          6           0       -6.532422   -3.260402    0.431885
     38          6           0       -5.644712   -2.191616    0.186520
     39          6           0       -9.061244   -3.447950    0.737249
     40          6           0       -5.790883   -4.500443    0.501562
     41          8           0       -6.072289   -5.659307    0.736731
     42          6           0       -4.304253   -4.033623    0.129352
     43          6           0       -3.272362   -4.729437    0.941902
     44          8           0       -3.311883   -4.940834    2.127045
     45          8           0       -2.234101   -5.172220    0.215840
     46          6           0       -1.176715   -5.861252    1.009051
     47          6           0        3.174101   -2.380430   -0.768754
     48          6           0        4.309850   -2.037930   -1.646046
     49          6           0        5.493266   -2.615524   -1.977137
     50          6           0        6.099839   -3.807015   -1.247746
     51          6           0        6.414763   -2.031827   -2.935226
     52          6           0        7.408228   -0.978633   -2.223854
     53          6           0        7.337057    0.342015   -2.873816
     54          6           0        8.741967    0.867331   -3.330761
     55          6           0        8.637604    1.340253   -4.787615
     56          6           0        9.263935    2.005386   -2.493651
     57          6           0       10.105777    1.541609   -1.266068
     58          6           0       10.395831    2.751882   -0.374761
     59          6           0       11.821215    2.696462    0.134641
     60          6           0       12.841004    3.040670   -1.063648
     61          6           0       12.188868    1.366379    0.812311
     62          6           0       12.849506    1.578424    2.144277
     63          6           0       13.280810    0.293025    2.924528
     64          6           0       12.711140    0.084123    4.370216
     65          6           0       13.510168   -0.936098    5.140054
     66          6           0       11.247678   -0.473311    4.265626
     67          1           0       -0.888683    1.872242    0.326489
     68          1           0       -6.527005    4.984306    0.360818
     69          1           0       -9.585631   -0.679623    0.553777
     70          1           0       -1.416766   -2.755888    0.412997
     71          1           0       -0.443451   -0.431220   -0.856297
     72          1           0       -0.043534   -1.611998    1.724720
     73          1           0       -0.355700    0.100756    2.064362
     74          1           0        0.879302   -0.273302    0.926649
     75          1           0       -1.487967   -1.494547   -2.355306
     76          1           0       -2.464473   -2.975815   -2.166686
     77          1           0        0.005438   -3.100422   -3.023574
     78          1           0       -0.710913   -4.378982   -2.124248
     79          1           0       -0.704365    4.773419   -0.788537
     80          1           0       -0.531735    4.031884    0.846901
     81          1           0       -1.003448    5.614827    0.765995
     82          1           0       -2.459575    7.379032    1.307744
     83          1           0       -3.315975    8.268409    0.027641
     84          1           0       -2.076460    6.997059   -0.382455
     85          1           0       -8.820836    4.061718   -0.899448
     86          1           0      -10.130774    2.002908    0.984704
     87          1           0       -8.427706    4.544921    1.979475
     88          1           0      -10.163386    4.190829    1.527502
     89          1           0       -9.194673    5.442317    0.740921
     90          1           0      -10.015488    0.832794   -1.627899
     91          1           0      -10.424228    2.488531   -1.817849
     92          1           0      -12.516496    1.871087   -1.264730
     93          1           0      -11.960533    1.565162    0.364993
     94          1           0      -11.786708    0.252270   -0.757985
     95          1           0       -9.859964   -2.966541    1.302296
     96          1           0       -8.779519   -4.215821    1.458315
     97          1           0       -9.413546   -3.790512   -0.235763
     98          1           0       -4.282306   -4.472306   -0.868657
     99          1           0       -1.462235   -6.879788    1.275857
    100          1           0       -0.829407   -5.250806    1.842786
    101          1           0       -0.293327   -5.962913    0.378185
    102          1           0        3.429336   -3.230554   -0.135758
    103          1           0        3.001081   -1.519528   -0.123609
    104          1           0        4.137866   -1.139859   -2.239087
    105          1           0        5.372219   -4.213752   -0.545559
    106          1           0        7.031957   -3.512438   -0.764413
    107          1           0        6.364828   -4.634652   -1.906317
    108          1           0        5.922459   -1.594957   -3.803124
    109          1           0        6.980503   -2.830367   -3.414264
    110          1           0        8.360179   -1.491809   -2.083225
    111          1           0        6.958524   -0.925430   -1.231900
    112          1           0        6.761743    0.875831   -2.117386
    113          1           0        6.544384    0.345964   -3.622217
    114          1           0        9.418594    0.025778   -3.481174
    115          1           0        9.622809    1.435535   -5.244764
    116          1           0        8.160336    2.311039   -4.922937
    117          1           0        8.213021    0.641123   -5.507311
    118          1           0        8.405965    2.568934   -2.127449
    119          1           0        9.918352    2.643285   -3.087072
    120          1           0       10.949607    0.999343   -1.691743
    121          1           0        9.406090    0.830342   -0.827863
    122          1           0        9.783784    2.732357    0.526797
    123          1           0       10.203256    3.731509   -0.813754
    124          1           0       11.863183    3.473434    0.899331
    125          1           0       13.423791    2.178367   -1.389208
    126          1           0       13.479338    3.810135   -0.630694
    127          1           0       12.444336    3.549470   -1.942401
    128          1           0       12.956615    0.847580    0.237633
    129          1           0       11.380374    0.635986    0.818453
    130          1           0       12.263404    2.244678    2.778217
    131          1           0       13.832233    1.959249    1.865491
    132          1           0       14.356386    0.256535    3.096946
    133          1           0       13.002837   -0.588896    2.346621
    134          1           0       12.748108    1.013288    4.940881
    135          1           0       12.921607   -1.735387    5.589800
    136          1           0       14.005943   -0.292738    5.867963
    137          1           0       14.274269   -1.424717    4.535630
    138          1           0       10.836956   -0.168702    3.303461
    139          1           0       10.701918    0.133715    4.987825
    140          1           0       11.078387   -1.542298    4.398824
 ---------------------------------------------------------------------

 SCF Done:  E(RB-LYP) =  -3007.36378048     A.U. after   21 cycles

 Excitation energies and oscillator strengths:

 Excited State   1:      Singlet-A      1.7389 eV  712.99 nm  f=0.2354  <S**2>=0.000
     243 -> 247        0.12415
     244 -> 247        0.12126
     245 -> 247        0.15196
     245 -> 248       -0.16574
     246 -> 247        0.65948
     246 <- 247       -0.15077
 This state for optimization and/or second-order correction.
 Total Energy, E(TD-HF/TD-DFT) =  -3007.29987544
 Copying the excited state density for this state as the 1-particle RhoCI density.

 Excited State   2:      Singlet-A      1.8310 eV  677.13 nm  f=0.0062  <S**2>=0.000
     244 -> 247        0.68915
     245 -> 247       -0.10361

 Excited State   3:      Singlet-A      1.8908 eV  655.72 nm  f=0.1134  <S**2>=0.000
     243 -> 247        0.39248
     245 -> 247        0.51470
     246 -> 247       -0.21039
     246 -> 248        0.14387

 Excited State   4:      Singlet-A      2.0774 eV  596.82 nm  f=0.0408  <S**2>=0.000
     242 -> 247        0.10084
     243 -> 247        0.55793
     245 -> 247       -0.35893
     246 -> 248       -0.19739

 Excited State   5:      Singlet-A      2.3780 eV  521.39 nm  f=0.0019  <S**2>=0.000
     240 -> 247        0.19440
     241 -> 247        0.12719
     242 -> 247        0.64901

 The electronic state is 1-A.
 Alpha  occ. eigenvalues --  -46.25586 -18.81519 -18.81388 -18.77593 -18.75765
 Alpha  occ. eigenvalues --  -18.75169 -18.75035 -14.03695 -14.02767 -14.00913
 Alpha  occ. eigenvalues --  -14.00224 -10.05135 -10.02663  -9.99748  -9.99488
 Alpha  occ. eigenvalues --   -9.98501  -9.96713  -9.96364  -9.96350  -9.96174
 Alpha  occ. eigenvalues --   -9.95945  -9.95560  -9.95404  -9.94629  -9.94589
 Alpha  occ. eigenvalues --   -9.94536  -9.94424  -9.94116  -9.94043  -9.93905
 Alpha  occ. eigenvalues --   -9.93850  -9.93804  -9.93552  -9.93220  -9.93178
 Alpha  occ. eigenvalues --   -9.93159  -9.93115  -9.93092  -9.92928  -9.92630
 Alpha  occ. eigenvalues --   -9.92581  -9.92555  -9.92180  -9.92096  -9.92090
 Alpha  occ. eigenvalues --   -9.92025  -9.92007  -9.91956  -9.91919  -9.91882
 Alpha  occ. eigenvalues --   -9.91802  -9.91536  -9.91510  -9.91466  -9.91400
 Alpha  occ. eigenvalues --   -9.91258  -9.91233  -9.91197  -9.91187  -9.91181
 Alpha  occ. eigenvalues --   -9.91111  -9.91045  -9.90908  -9.90872  -9.90665
 Alpha  occ. eigenvalues --   -9.90394  -2.90525  -1.70944  -1.70375  -1.70273
 Alpha  occ. eigenvalues --   -0.98689  -0.97933  -0.91440  -0.90198  -0.88971
 Alpha  occ. eigenvalues --   -0.88607  -0.86607  -0.85814  -0.84980  -0.83809
 Alpha  occ. eigenvalues --   -0.75961  -0.74886  -0.73733  -0.72923  -0.72838
 Alpha  occ. eigenvalues --   -0.72571  -0.71923  -0.71343  -0.70976  -0.70493
 Alpha  occ. eigenvalues --   -0.69758  -0.69418  -0.68434  -0.67955  -0.67421
 Alpha  occ. eigenvalues --   -0.66631  -0.66027  -0.65608  -0.64778  -0.64312
 Alpha  occ. eigenvalues --   -0.64199  -0.62708  -0.62375  -0.61993  -0.61194
 Alpha  occ. eigenvalues --   -0.60594  -0.59915  -0.59822  -0.59744  -0.59241
 Alpha  occ. eigenvalues --   -0.58894  -0.57696  -0.56774  -0.56189  -0.54578
 Alpha  occ. eigenvalues --   -0.54056  -0.53993  -0.52702  -0.52353  -0.52242
 Alpha  occ. eigenvalues --   -0.51634  -0.51128  -0.50588  -0.50560  -0.50005
 Alpha  occ. eigenvalues --   -0.49945  -0.49097  -0.47959  -0.47917  -0.46939
 Alpha  occ. eigenvalues --   -0.46561  -0.46282  -0.45472  -0.44871  -0.44517
 Alpha  occ. eigenvalues --   -0.44161  -0.43883  -0.43202  -0.42748  -0.42647
 Alpha  occ. eigenvalues --   -0.42006  -0.41796  -0.41653  -0.41424  -0.41395
 Alpha  occ. eigenvalues --   -0.41093  -0.40754  -0.40642  -0.40332  -0.40266
 Alpha  occ. eigenvalues --   -0.40097  -0.39738  -0.39475  -0.39454  -0.39268
 Alpha  occ. eigenvalues --   -0.39131  -0.38907  -0.38865  -0.38595  -0.38528
 Alpha  occ. eigenvalues --   -0.38372  -0.37935  -0.37830  -0.37493  -0.37200
 Alpha  occ. eigenvalues --   -0.37080  -0.36918  -0.36882  -0.36436  -0.36338
 Alpha  occ. eigenvalues --   -0.36217  -0.36137  -0.35955  -0.35915  -0.35554
 Alpha  occ. eigenvalues --   -0.35499  -0.35104  -0.35036  -0.34814  -0.34747
 Alpha  occ. eigenvalues --   -0.34508  -0.34490  -0.34449  -0.34249  -0.34164
 Alpha  occ. eigenvalues --   -0.34081  -0.33758  -0.33586  -0.33354  -0.33224
 Alpha  occ. eigenvalues --   -0.33009  -0.32901  -0.32709  -0.32363  -0.32098
 Alpha  occ. eigenvalues --   -0.32068  -0.31846  -0.31747  -0.31525  -0.31396
 Alpha  occ. eigenvalues --   -0.31263  -0.30925  -0.30709  -0.30692  -0.30612
 Alpha  occ. eigenvalues --   -0.30555  -0.30511  -0.30345  -0.30084  -0.29809
 Alpha  occ. eigenvalues --   -0.29733  -0.29282  -0.29128  -0.28961  -0.28879
 Alpha  occ. eigenvalues --   -0.28807  -0.28731  -0.28584  -0.28165  -0.27843
 Alpha  occ. eigenvalues --   -0.27706  -0.27157  -0.26910  -0.26638  -0.26601
 Alpha  occ. eigenvalues --   -0.26049  -0.25950  -0.25904  -0.25876  -0.25308
 Alpha  occ. eigenvalues --   -0.25210  -0.24490  -0.24475  -0.24382  -0.24101
 Alpha  occ. eigenvalues --   -0.23440  -0.22626  -0.22026  -0.20915  -0.20752
 Alpha  occ. eigenvalues --   -0.20606  -0.20014  -0.18815  -0.18263  -0.17259
 Alpha  occ. eigenvalues --   -0.15653
 Alpha virt. eigenvalues --   -0.11641  -0.06642  -0.06217  -0.04524  -0.03860
 Alpha virt. eigenvalues --   -0.03386  -0.02139  -0.01397  -0.01143   0.00648
 Alpha virt. eigenvalues --    0.01466   0.01799   0.02147   0.02427   0.02981

 Mulliken charges:
               1
     1  Mg   0.704829
     2  C    0.058226
     3  C   -0.089541
     4  C   -0.035161
     5  C   -0.123771
     6  N   -0.232950
     7  C   -0.086552
     8  C    0.008776
     9  C   -0.040024
    10  C    0.026322
    11  C    0.124393
    12  C    0.124360
    13  C    0.157889
    14  C    0.087503
    15  O   -0.174852
    16  O   -0.290404
    17  N   -0.222702
    18  C    0.158056
    19  C   -0.138148
    20  C    0.044873
    21  C    0.037456
    22  C    0.175314
    23  C   -0.074569
    24  O   -0.202823
    25  C    0.123771
    26  N   -0.248673
    27  C    0.018023
    28  C    0.001654
    29  C    0.092042
    30  C    0.064166
    31  C    0.116921
    32  C    0.097166
    33  C    0.052342
    34  N   -0.350673
    35  C    0.176992
    36  C   -0.178555
    37  C    0.064571
    38  C    0.076293
    39  C    0.168550
    40  C   -0.034179
    41  O   -0.105407
    42  C    0.047442
    43  C    0.071824
    44  O   -0.161535
    45  O   -0.272761
    46  C    0.227334
    47  C    0.374486
    48  C   -0.107509
    49  C   -0.153563
    50  C    0.137944
    51  C    0.113433
    52  C    0.040720
    53  C    0.149807
    54  C   -0.003948
    55  C    0.072365
    56  C    0.095556
    57  C    0.058261
    58  C    0.135251
    59  C   -0.066514
    60  C    0.088853
    61  C    0.080147
    62  C    0.103704
    63  C    0.084967
    64  C   -0.125011
    65  C    0.120739
    66  C    0.101053
    67  H   -0.063728
    68  H   -0.046691
    69  H   -0.077412
    70  H   -0.002542
    71  H   -0.023503
    72  H    0.013018
    73  H   -0.002644
    74  H   -0.008176
    75  H   -0.010822
    76  H   -0.014330
    77  H   -0.013667
    78  H    0.009569
    79  H    0.021216
    80  H   -0.014584
    81  H   -0.020191
    82  H    0.016938
    83  H   -0.002825
    84  H   -0.000302
    85  H   -0.004607
    86  H   -0.023011
    87  H    0.013503
    88  H   -0.008897
    89  H   -0.005358
    90  H   -0.023379
    91  H   -0.028004
    92  H   -0.004602
    93  H   -0.020544
    94  H   -0.004317
    95  H   -0.022613
    96  H    0.012277
    97  H    0.018559
    98  H   -0.006131
    99  H    0.015051
   100  H    0.022408
   101  H    0.001541
   102  H   -0.012407
   103  H   -0.019917
   104  H   -0.052124
   105  H   -0.018207
   106  H    0.000970
   107  H   -0.009215
   108  H   -0.026102
   109  H   -0.040459
   110  H   -0.012403
   111  H   -0.025032
   112  H   -0.046792
   113  H   -0.040741
   114  H   -0.037667
   115  H   -0.032073
   116  H   -0.018095
   117  H   -0.030102
   118  H   -0.031181
   119  H   -0.034702
   120  H   -0.020454
   121  H   -0.029409
   122  H   -0.044948
   123  H   -0.030109
   124  H   -0.040978
   125  H   -0.007580
   126  H   -0.017345
   127  H   -0.017869
   128  H   -0.046472
   129  H   -0.023255
   130  H   -0.021894
   131  H   -0.033853
   132  H   -0.039598
   133  H   -0.038126
   134  H   -0.030289
   135  H   -0.014450
   136  H   -0.018304
   137  H   -0.021563
   138  H   -0.029466
   139  H   -0.021366
   140  H   -0.002172
 Sum of Mulliken charges =  -0.00000

 Dipole moment (field-independent basis, Debye):
    X=              5.1274    Y=              2.3650    Z=             -4.3621  Tot=              7.1353
 Quadrupole moment (field-independent basis, Debye-Ang):
   XX=           -367.7997   YY=           -448.7319   ZZ=           -407.8080
   XY=            -14.8910   XZ=             13.2008   YZ=             15.7814

 Normal termination of Gaussian 16 at Wed May  4 18:40:14 2022.
