 Gaussian 16, Revision A.03,
 Gaussian 16:  ES64L-G16RevA.03 25-Dec-2016

 -----------------------------------
 #p cam-b3lyp/Def2SVP td=(nstates=5)
 -----------------------------------

 ------------------------------------------------------
 step_251_chromophore_3 TDDFT with cam-b3lyp functional
 ------------------------------------------------------
 Symbolic Z-matrix:
 Charge =  0 Multiplicity = 1

                         Standard orientation:
 ---------------------------------------------------------------------
 Center     Atomic      Atomic             Coordinates (Angstroms)
 Number     Number       Type             X           Y           Z
 ---------------------------------------------------------------------
      1         12           0       -5.278841    0.699730    0.087413
      2          6           0       -4.319870   -2.544836   -0.012021
      3          6           0       -1.947817    1.682752    0.139312
      4          6           0       -6.238394    3.944657    0.193134
      5          6           0       -8.568012   -0.284414    0.529973
      6          7           0       -3.451090   -0.337388   -0.043988
      7          6           0       -3.244857   -1.678602   -0.044523
      8          6           0       -1.806600   -2.039600   -0.310038
      9          6           0       -1.035500   -0.704583    0.016526
     10          6           0       -2.235522    0.298236    0.008954
     11          6           0       -0.091181   -0.614673    1.287329
     12          6           0       -1.570680   -2.448155   -1.833581
     13          6           0       -0.325816   -3.365041   -2.019241
     14          6           0        0.866964   -3.321509   -1.049434
     15          8           0        0.984063   -3.785149    0.047975
     16          8           0        1.904248   -2.537112   -1.508580
     17          7           0       -4.258935    2.603779    0.238301
     18          6           0       -2.847004    2.750694    0.230321
     19          6           0       -2.512655    4.141993    0.283179
     20          6           0       -3.768914    4.845974    0.317464
     21          6           0       -4.813972    3.764135    0.231526
     22          6           0       -1.128606    4.685157    0.211678
     23          6           0       -4.034512    6.345713    0.385459
     24          8           0       -5.169074    6.888883    0.528695
     25          6           0       -2.866525    7.313442    0.298804
     26          7           0       -7.111334    1.693267    0.393926
     27          6           0       -7.297098    3.063887    0.206670
     28          6           0       -8.780855    3.499528    0.033605
     29          6           0       -9.482789    2.029993    0.107993
     30          6           0       -8.363063    1.079428    0.325565
     31          6           0       -9.162218    4.444815    1.180095
     32          6           0      -10.357477    1.702050   -1.066017
     33          6           0      -11.763866    1.339834   -0.682836
     34          7           0       -6.299435   -0.949860    0.347464
     35          6           0       -7.645460   -1.262433    0.491631
     36          6           0       -7.814484   -2.665641    0.577571
     37          6           0       -6.532422   -3.260402    0.431885
     38          6           0       -5.644712   -2.191616    0.186520
     39          6           0       -9.061244   -3.447950    0.737249
     40          6           0       -5.790883   -4.500443    0.501562
     41          8           0       -6.072289   -5.659307    0.736731
     42          6           0       -4.304253   -4.033623    0.129352
     43          6           0       -3.272362   -4.729437    0.941902
     44          8           0       -3.311883   -4.940834    2.127045
     45          8           0       -2.234101   -5.172220    0.215840
     46          6           0       -1.176715   -5.861252    1.009051
     47          6           0        3.174101   -2.380430   -0.768754
     48          6           0        4.309850   -2.037930   -1.646046
     49          6           0        5.493266   -2.615524   -1.977137
     50          6           0        6.099839   -3.807015   -1.247746
     51          6           0        6.414763   -2.031827   -2.935226
     52          6           0        7.408228   -0.978633   -2.223854
     53          6           0        7.337057    0.342015   -2.873816
     54          6           0        8.741967    0.867331   -3.330761
     55          6           0        8.637604    1.340253   -4.787615
     56          6           0        9.263935    2.005386   -2.493651
     57          6           0       10.105777    1.541609   -1.266068
     58          6           0       10.395831    2.751882   -0.374761
     59          6           0       11.821215    2.696462    0.134641
     60          6           0       12.841004    3.040670   -1.063648
     61          6           0       12.188868    1.366379    0.812311
     62          6           0       12.849506    1.578424    2.144277
     63          6           0       13.280810    0.293025    2.924528
     64          6           0       12.711140    0.084123    4.370216
     65          6           0       13.510168   -0.936098    5.140054
     66          6           0       11.247678   -0.473311    4.265626
     67          1           0       -0.888683    1.872242    0.326489
     68          1           0       -6.527005    4.984306    0.360818
     69          1           0       -9.585631   -0.679623    0.553777
     70          1           0       -1.416766   -2.755888    0.412997
     71          1           0       -0.443451   -0.431220   -0.856297
     72          1           0       -0.043534   -1.611998    1.724720
     73          1           0       -0.355700    0.100756    2.064362
     74          1           0        0.879302   -0.273302    0.926649
     75          1           0       -1.487967   -1.494547   -2.355306
     76          1           0       -2.464473   -2.975815   -2.166686
     77          1           0        0.005438   -3.100422   -3.023574
     78          1           0       -0.710913   -4.378982   -2.124248
     79          1           0       -0.704365    4.773419   -0.788537
     80          1           0       -0.531735    4.031884    0.846901
     81          1           0       -1.003448    5.614827    0.765995
     82          1           0       -2.459575    7.379032    1.307744
     83          1           0       -3.315975    8.268409    0.027641
     84          1           0       -2.076460    6.997059   -0.382455
     85          1           0       -8.820836    4.061718   -0.899448
     86          1           0      -10.130774    2.002908    0.984704
     87          1           0       -8.427706    4.544921    1.979475
     88          1           0      -10.163386    4.190829    1.527502
     89          1           0       -9.194673    5.442317    0.740921
     90          1           0      -10.015488    0.832794   -1.627899
     91          1           0      -10.424228    2.488531   -1.817849
     92          1           0      -12.516496    1.871087   -1.264730
     93          1           0      -11.960533    1.565162    0.364993
     94          1           0      -11.786708    0.252270   -0.757985
     95          1           0       -9.859964   -2.966541    1.302296
     96          1           0       -8.779519   -4.215821    1.458315
     97          1           0       -9.413546   -3.790512   -0.235763
     98          1           0       -4.282306   -4.472306   -0.868657
     99          1           0       -1.462235   -6.879788    1.275857
    100          1           0       -0.829407   -5.250806    1.842786
    101          1           0       -0.293327   -5.962913    0.378185
    102          1           0        3.429336   -3.230554   -0.135758
    103          1           0        3.001081   -1.519528   -0.123609
    104          1           0        4.137866   -1.139859   -2.239087
    105          1           0        5.372219   -4.213752   -0.545559
    106          1           0        7.031957   -3.512438   -0.764413
    107          1           0        6.364828   -4.634652   -1.906317
    108          1           0        5.922459   -1.594957   -3.803124
    109          1           0        6.980503   -2.830367   -3.414264
    110          1           0        8.360179   -1.491809   -2.083225
    111          1           0        6.958524   -0.925430   -1.231900
    112          1           0        6.761743    0.875831   -2.117386
    113          1           0        6.544384    0.345964   -3.622217
    114          1           0        9.418594    0.025778   -3.481174
    115          1           0        9.622809    1.435535   -5.244764
    116          1           0        8.160336    2.311039   -4.922937
    117          1           0        8.213021    0.641123   -5.507311
    118          1           0        8.405965    2.568934   -2.127449
    119          1           0        9.918352    2.643285   -3.087072
    120          1           0       10.949607    0.999343   -1.691743
    121          1           0        9.406090    0.830342   -0.827863
    122          1           0        9.783784    2.732357    0.526797
    123          1           0       10.203256    3.731509   -0.813754
    124          1           0       11.863183    3.473434    0.899331
    125          1           0       13.423791    2.178367   -1.389208
    126          1           0       13.479338    3.810135   -0.630694
    127          1           0       12.444336    3.549470   -1.942401
    128          1           0       12.956615    0.847580    0.237633
    129          1           0       11.380374    0.635986    0.818453
    130          1           0       12.263404    2.244678    2.778217
    131          1           0       13.832233    1.959249    1.865491
    132          1           0       14.356386    0.256535    3.096946
    133          1           0       13.002837   -0.588896    2.346621
    134          1           0       12.748108    1.013288    4.940881
    135          1           0       12.921607   -1.735387    5.589800
    136          1           0       14.005943   -0.292738    5.867963
    137          1           0       14.274269   -1.424717    4.535630
    138          1           0       10.836956   -0.168702    3.303461
    139          1           0       10.701918    0.133715    4.987825
    140          1           0       11.078387   -1.542298    4.398824
 ---------------------------------------------------------------------

 SCF Done:  E(RCAM-B3LYP) =  -3007.16610809     A.U. after   17 cycles

 Excitation energies and oscillator strengths:

 Excited State   1:      Singlet-A      1.6451 eV  753.67 nm  f=0.3851  <S**2>=0.000
     245 -> 248       -0.17012
     246 -> 247        0.68913
     245 <- 248       -0.10761
 This state for optimization and/or second-order correction.
 Total Energy, E(TD-HF/TD-DFT) =  -3007.10565253
 Copying the excited state density for this state as the 1-particle RhoCI density.

 Excited State   2:      Singlet-A      2.2261 eV  556.95 nm  f=0.1181  <S**2>=0.000
     245 -> 247        0.63841
     246 -> 248        0.29137

 Excited State   3:      Singlet-A      3.2918 eV  376.65 nm  f=0.0111  <S**2>=0.000
     244 -> 247        0.67897

 Excited State   4:      Singlet-A      3.4417 eV  360.25 nm  f=0.3071  <S**2>=0.000
     239 -> 247       -0.14383
     241 -> 247       -0.37033
     241 -> 249        0.11770
     243 -> 247        0.10117
     245 -> 247       -0.19726
     246 -> 248        0.45286

 Excited State   5:      Singlet-A      3.4567 eV  358.67 nm  f=0.0007  <S**2>=0.000
     240 -> 247        0.44484
     240 -> 249        0.28444
     240 -> 250       -0.16488
     243 -> 247       -0.37840

 The electronic state is 1-A.
 Alpha  occ. eigenvalues --  -46.87038 -19.24332 -19.24325 -19.20633 -19.19011
 Alpha  occ. eigenvalues --  -19.18408 -19.18104 -14.42755 -14.41574 -14.39417
 Alpha  occ. eigenvalues --  -14.38631 -10.40449 -10.37956 -10.35140 -10.34920
 Alpha  occ. eigenvalues --  -10.32595 -10.31242 -10.30878 -10.30622 -10.30388
 Alpha  occ. eigenvalues --  -10.30373 -10.30004 -10.29738 -10.28804 -10.28734
 Alpha  occ. eigenvalues --  -10.28642 -10.28597 -10.28558 -10.28124 -10.28051
 Alpha  occ. eigenvalues --  -10.27941 -10.27941 -10.27660 -10.27569 -10.27507
 Alpha  occ. eigenvalues --  -10.27421 -10.27418 -10.27371 -10.27123 -10.26338
 Alpha  occ. eigenvalues --  -10.26303 -10.26220 -10.25991 -10.25886 -10.25826
 Alpha  occ. eigenvalues --  -10.25810 -10.25712 -10.25693 -10.25691 -10.25589
 Alpha  occ. eigenvalues --  -10.25525 -10.25391 -10.25235 -10.25129 -10.25093
 Alpha  occ. eigenvalues --  -10.25045 -10.25036 -10.24900 -10.24814 -10.24813
 Alpha  occ. eigenvalues --  -10.24803 -10.24799 -10.24511 -10.24497 -10.24251
 Alpha  occ. eigenvalues --  -10.23952  -3.15897  -1.90787  -1.90331  -1.90242
 Alpha  occ. eigenvalues --   -1.17206  -1.16514  -1.09910  -1.08004  -1.07323
 Alpha  occ. eigenvalues --   -1.06520  -1.04426  -1.03464  -1.02597  -1.01296
 Alpha  occ. eigenvalues --   -0.93184  -0.91786  -0.90558  -0.89639  -0.89580
 Alpha  occ. eigenvalues --   -0.89288  -0.88689  -0.87947  -0.87564  -0.87148
 Alpha  occ. eigenvalues --   -0.86304  -0.85715  -0.84709  -0.84144  -0.83547
 Alpha  occ. eigenvalues --   -0.82748  -0.81995  -0.81658  -0.80727  -0.80279
 Alpha  occ. eigenvalues --   -0.79982  -0.78408  -0.78198  -0.77512  -0.76562
 Alpha  occ. eigenvalues --   -0.76040  -0.75254  -0.75095  -0.75042  -0.74485
 Alpha  occ. eigenvalues --   -0.73916  -0.72764  -0.71688  -0.71004  -0.69170
 Alpha  occ. eigenvalues --   -0.68737  -0.68578  -0.67007  -0.66801  -0.66628
 Alpha  occ. eigenvalues --   -0.65792  -0.65321  -0.64705  -0.64555  -0.63834
 Alpha  occ. eigenvalues --   -0.63638  -0.63029  -0.61720  -0.61662  -0.60566
 Alpha  occ. eigenvalues --   -0.60219  -0.59936  -0.58906  -0.58245  -0.57911
 Alpha  occ. eigenvalues --   -0.57679  -0.57178  -0.56355  -0.55945  -0.55577
 Alpha  occ. eigenvalues --   -0.55192  -0.54894  -0.54804  -0.54693  -0.54332
 Alpha  occ. eigenvalues --   -0.53902  -0.53608  -0.53376  -0.52910  -0.52842
 Alpha  occ. eigenvalues --   -0.52677  -0.52591  -0.52326  -0.52261  -0.51916
 Alpha  occ. eigenvalues --   -0.51750  -0.51676  -0.51186  -0.51089  -0.50987
 Alpha  occ. eigenvalues --   -0.50728  -0.50431  -0.50197  -0.49917  -0.49623
 Alpha  occ. eigenvalues --   -0.49483  -0.49226  -0.49157  -0.48987  -0.48594
 Alpha  occ. eigenvalues --   -0.48524  -0.48390  -0.48055  -0.47922  -0.47757
 Alpha  occ. eigenvalues --   -0.47631  -0.47515  -0.46994  -0.46866  -0.46795
 Alpha  occ. eigenvalues --   -0.46459  -0.46437  -0.46266  -0.46180  -0.46086
 Alpha  occ. eigenvalues --   -0.45871  -0.45859  -0.45482  -0.44962  -0.44909
 Alpha  occ. eigenvalues --   -0.44727  -0.44625  -0.44463  -0.44025  -0.43782
 Alpha  occ. eigenvalues --   -0.43684  -0.43291  -0.43238  -0.43178  -0.43009
 Alpha  occ. eigenvalues --   -0.42681  -0.42488  -0.42227  -0.42095  -0.41962
 Alpha  occ. eigenvalues --   -0.41863  -0.41738  -0.41617  -0.41297  -0.41026
 Alpha  occ. eigenvalues --   -0.40896  -0.40865  -0.40626  -0.40427  -0.40363
 Alpha  occ. eigenvalues --   -0.39982  -0.39826  -0.39593  -0.39330  -0.38693
 Alpha  occ. eigenvalues --   -0.38538  -0.37934  -0.37930  -0.37506  -0.37282
 Alpha  occ. eigenvalues --   -0.37123  -0.36893  -0.36809  -0.36565  -0.36503
 Alpha  occ. eigenvalues --   -0.35966  -0.35826  -0.34986  -0.34786  -0.34752
 Alpha  occ. eigenvalues --   -0.34466  -0.33820  -0.32956  -0.31364  -0.30631
 Alpha  occ. eigenvalues --   -0.30558  -0.30408  -0.29818  -0.29445  -0.24196
 Alpha  occ. eigenvalues --   -0.20923
 Alpha virt. eigenvalues --   -0.08849  -0.01501   0.00236   0.02276   0.03199
 Alpha virt. eigenvalues --    0.03690   0.04344   0.05565   0.06360   0.06958
 Alpha virt. eigenvalues --    0.08133   0.08527   0.08696   0.09149   0.09267

 Mulliken charges:
               1
     1  Mg   0.841564
     2  C    0.032180
     3  C   -0.093204
     4  C   -0.054689
     5  C   -0.125533
     6  N   -0.304174
     7  C   -0.042453
     8  C   -0.046424
     9  C   -0.088621
    10  C    0.042068
    11  C    0.067226
    12  C    0.080466
    13  C    0.090022
    14  C    0.160987
    15  O   -0.215042
    16  O   -0.356178
    17  N   -0.308285
    18  C    0.155219
    19  C   -0.140323
    20  C   -0.029284
    21  C    0.069270
    22  C    0.113470
    23  C    0.007929
    24  O   -0.244845
    25  C    0.041330
    26  N   -0.320936
    27  C    0.036040
    28  C   -0.042191
    29  C    0.024944
    30  C    0.084824
    31  C    0.056791
    32  C    0.037048
    33  C   -0.008378
    34  N   -0.439277
    35  C    0.179167
    36  C   -0.175361
    37  C   -0.013234
    38  C    0.108621
    39  C    0.115523
    40  C    0.072877
    41  O   -0.144297
    42  C   -0.036525
    43  C    0.157449
    44  O   -0.198983
    45  O   -0.336303
    46  C    0.187980
    47  C    0.346624
    48  C   -0.130525
    49  C   -0.175817
    50  C    0.079313
    51  C    0.052170
    52  C   -0.010809
    53  C    0.088314
    54  C   -0.068588
    55  C    0.016643
    56  C    0.047204
    57  C    0.002297
    58  C    0.083969
    59  C   -0.122225
    60  C    0.029331
    61  C    0.026818
    62  C    0.046229
    63  C    0.032516
    64  C   -0.178199
    65  C    0.057018
    66  C    0.041575
    67  H   -0.027446
    68  H   -0.007967
    69  H   -0.042602
    70  H    0.029188
    71  H    0.011717
    72  H    0.037015
    73  H    0.023655
    74  H    0.012688
    75  H    0.017559
    76  H    0.016177
    77  H    0.022509
    78  H    0.040986
    79  H    0.049173
    80  H    0.012725
    81  H    0.009112
    82  H    0.044088
    83  H    0.032694
    84  H    0.028353
    85  H    0.029151
    86  H    0.012659
    87  H    0.039413
    88  H    0.014694
    89  H    0.018889
    90  H    0.008518
    91  H    0.002470
    92  H    0.020463
    93  H    0.002386
    94  H    0.017191
    95  H    0.004609
    96  H    0.038923
    97  H    0.044516
    98  H    0.036100
    99  H    0.039063
   100  H    0.045895
   101  H    0.025235
   102  H    0.017049
   103  H    0.006325
   104  H   -0.020049
   105  H    0.005731
   106  H    0.024050
   107  H    0.016502
   108  H    0.004641
   109  H   -0.008826
   110  H    0.013778
   111  H    0.004573
   112  H   -0.015962
   113  H   -0.009967
   114  H   -0.004883
   115  H   -0.006347
   116  H    0.005751
   117  H   -0.004122
   118  H   -0.003444
   119  H   -0.007456
   120  H    0.006085
   121  H   -0.003745
   122  H   -0.014946
   123  H   -0.000821
   124  H   -0.007380
   125  H    0.014926
   126  H    0.007124
   127  H    0.006019
   128  H   -0.017302
   129  H    0.003378
   130  H    0.003910
   131  H   -0.004409
   132  H   -0.009856
   133  H   -0.009620
   134  H    0.000745
   135  H    0.010439
   136  H    0.005674
   137  H    0.003467
   138  H   -0.007837
   139  H    0.003472
   140  H    0.021220
 Sum of Mulliken charges =  -0.00000

 Dipole moment (field-independent basis, Debye):
    X=              5.3757    Y=              2.7212    Z=             -4.5738  Tot=              7.5646
 Quadrupole moment (field-independent basis, Debye-Ang):
   XX=           -368.8220   YY=           -445.0270   ZZ=           -407.9959
   XY=            -15.5140   XZ=             14.2037   YZ=             16.4022

 Normal termination of Gaussian 16 at Wed May  4 17:25:14 2022.
