 Gaussian 16, Revision A.03,
 Gaussian 16:  ES64L-G16RevA.03 25-Dec-2016

 ---------------------------------
 #p PBE1PBE/Def2SVP td=(nstates=5)
 ---------------------------------

 ----------------------------------------------------
 step_251_chromophore_3 TDDFT with PBE1PBE functional
 ----------------------------------------------------
 Symbolic Z-matrix:
 Charge =  0 Multiplicity = 1

                         Standard orientation:
 ---------------------------------------------------------------------
 Center     Atomic      Atomic             Coordinates (Angstroms)
 Number     Number       Type             X           Y           Z
 ---------------------------------------------------------------------
      1         12           0       -5.278841    0.699730    0.087413
      2          6           0       -4.319870   -2.544836   -0.012021
      3          6           0       -1.947817    1.682752    0.139312
      4          6           0       -6.238394    3.944657    0.193134
      5          6           0       -8.568012   -0.284414    0.529973
      6          7           0       -3.451090   -0.337388   -0.043988
      7          6           0       -3.244857   -1.678602   -0.044523
      8          6           0       -1.806600   -2.039600   -0.310038
      9          6           0       -1.035500   -0.704583    0.016526
     10          6           0       -2.235522    0.298236    0.008954
     11          6           0       -0.091181   -0.614673    1.287329
     12          6           0       -1.570680   -2.448155   -1.833581
     13          6           0       -0.325816   -3.365041   -2.019241
     14          6           0        0.866964   -3.321509   -1.049434
     15          8           0        0.984063   -3.785149    0.047975
     16          8           0        1.904248   -2.537112   -1.508580
     17          7           0       -4.258935    2.603779    0.238301
     18          6           0       -2.847004    2.750694    0.230321
     19          6           0       -2.512655    4.141993    0.283179
     20          6           0       -3.768914    4.845974    0.317464
     21          6           0       -4.813972    3.764135    0.231526
     22          6           0       -1.128606    4.685157    0.211678
     23          6           0       -4.034512    6.345713    0.385459
     24          8           0       -5.169074    6.888883    0.528695
     25          6           0       -2.866525    7.313442    0.298804
     26          7           0       -7.111334    1.693267    0.393926
     27          6           0       -7.297098    3.063887    0.206670
     28          6           0       -8.780855    3.499528    0.033605
     29          6           0       -9.482789    2.029993    0.107993
     30          6           0       -8.363063    1.079428    0.325565
     31          6           0       -9.162218    4.444815    1.180095
     32          6           0      -10.357477    1.702050   -1.066017
     33          6           0      -11.763866    1.339834   -0.682836
     34          7           0       -6.299435   -0.949860    0.347464
     35          6           0       -7.645460   -1.262433    0.491631
     36          6           0       -7.814484   -2.665641    0.577571
     37          6           0       -6.532422   -3.260402    0.431885
     38          6           0       -5.644712   -2.191616    0.186520
     39          6           0       -9.061244   -3.447950    0.737249
     40          6           0       -5.790883   -4.500443    0.501562
     41          8           0       -6.072289   -5.659307    0.736731
     42          6           0       -4.304253   -4.033623    0.129352
     43          6           0       -3.272362   -4.729437    0.941902
     44          8           0       -3.311883   -4.940834    2.127045
     45          8           0       -2.234101   -5.172220    0.215840
     46          6           0       -1.176715   -5.861252    1.009051
     47          6           0        3.174101   -2.380430   -0.768754
     48          6           0        4.309850   -2.037930   -1.646046
     49          6           0        5.493266   -2.615524   -1.977137
     50          6           0        6.099839   -3.807015   -1.247746
     51          6           0        6.414763   -2.031827   -2.935226
     52          6           0        7.408228   -0.978633   -2.223854
     53          6           0        7.337057    0.342015   -2.873816
     54          6           0        8.741967    0.867331   -3.330761
     55          6           0        8.637604    1.340253   -4.787615
     56          6           0        9.263935    2.005386   -2.493651
     57          6           0       10.105777    1.541609   -1.266068
     58          6           0       10.395831    2.751882   -0.374761
     59          6           0       11.821215    2.696462    0.134641
     60          6           0       12.841004    3.040670   -1.063648
     61          6           0       12.188868    1.366379    0.812311
     62          6           0       12.849506    1.578424    2.144277
     63          6           0       13.280810    0.293025    2.924528
     64          6           0       12.711140    0.084123    4.370216
     65          6           0       13.510168   -0.936098    5.140054
     66          6           0       11.247678   -0.473311    4.265626
     67          1           0       -0.888683    1.872242    0.326489
     68          1           0       -6.527005    4.984306    0.360818
     69          1           0       -9.585631   -0.679623    0.553777
     70          1           0       -1.416766   -2.755888    0.412997
     71          1           0       -0.443451   -0.431220   -0.856297
     72          1           0       -0.043534   -1.611998    1.724720
     73          1           0       -0.355700    0.100756    2.064362
     74          1           0        0.879302   -0.273302    0.926649
     75          1           0       -1.487967   -1.494547   -2.355306
     76          1           0       -2.464473   -2.975815   -2.166686
     77          1           0        0.005438   -3.100422   -3.023574
     78          1           0       -0.710913   -4.378982   -2.124248
     79          1           0       -0.704365    4.773419   -0.788537
     80          1           0       -0.531735    4.031884    0.846901
     81          1           0       -1.003448    5.614827    0.765995
     82          1           0       -2.459575    7.379032    1.307744
     83          1           0       -3.315975    8.268409    0.027641
     84          1           0       -2.076460    6.997059   -0.382455
     85          1           0       -8.820836    4.061718   -0.899448
     86          1           0      -10.130774    2.002908    0.984704
     87          1           0       -8.427706    4.544921    1.979475
     88          1           0      -10.163386    4.190829    1.527502
     89          1           0       -9.194673    5.442317    0.740921
     90          1           0      -10.015488    0.832794   -1.627899
     91          1           0      -10.424228    2.488531   -1.817849
     92          1           0      -12.516496    1.871087   -1.264730
     93          1           0      -11.960533    1.565162    0.364993
     94          1           0      -11.786708    0.252270   -0.757985
     95          1           0       -9.859964   -2.966541    1.302296
     96          1           0       -8.779519   -4.215821    1.458315
     97          1           0       -9.413546   -3.790512   -0.235763
     98          1           0       -4.282306   -4.472306   -0.868657
     99          1           0       -1.462235   -6.879788    1.275857
    100          1           0       -0.829407   -5.250806    1.842786
    101          1           0       -0.293327   -5.962913    0.378185
    102          1           0        3.429336   -3.230554   -0.135758
    103          1           0        3.001081   -1.519528   -0.123609
    104          1           0        4.137866   -1.139859   -2.239087
    105          1           0        5.372219   -4.213752   -0.545559
    106          1           0        7.031957   -3.512438   -0.764413
    107          1           0        6.364828   -4.634652   -1.906317
    108          1           0        5.922459   -1.594957   -3.803124
    109          1           0        6.980503   -2.830367   -3.414264
    110          1           0        8.360179   -1.491809   -2.083225
    111          1           0        6.958524   -0.925430   -1.231900
    112          1           0        6.761743    0.875831   -2.117386
    113          1           0        6.544384    0.345964   -3.622217
    114          1           0        9.418594    0.025778   -3.481174
    115          1           0        9.622809    1.435535   -5.244764
    116          1           0        8.160336    2.311039   -4.922937
    117          1           0        8.213021    0.641123   -5.507311
    118          1           0        8.405965    2.568934   -2.127449
    119          1           0        9.918352    2.643285   -3.087072
    120          1           0       10.949607    0.999343   -1.691743
    121          1           0        9.406090    0.830342   -0.827863
    122          1           0        9.783784    2.732357    0.526797
    123          1           0       10.203256    3.731509   -0.813754
    124          1           0       11.863183    3.473434    0.899331
    125          1           0       13.423791    2.178367   -1.389208
    126          1           0       13.479338    3.810135   -0.630694
    127          1           0       12.444336    3.549470   -1.942401
    128          1           0       12.956615    0.847580    0.237633
    129          1           0       11.380374    0.635986    0.818453
    130          1           0       12.263404    2.244678    2.778217
    131          1           0       13.832233    1.959249    1.865491
    132          1           0       14.356386    0.256535    3.096946
    133          1           0       13.002837   -0.588896    2.346621
    134          1           0       12.748108    1.013288    4.940881
    135          1           0       12.921607   -1.735387    5.589800
    136          1           0       14.005943   -0.292738    5.867963
    137          1           0       14.274269   -1.424717    4.535630
    138          1           0       10.836956   -0.168702    3.303461
    139          1           0       10.701918    0.133715    4.987825
    140          1           0       11.078387   -1.542298    4.398824
 ---------------------------------------------------------------------

 SCF Done:  E(RPBE1PBE) =  -3005.35392962     A.U. after   15 cycles

 Excitation energies and oscillator strengths:

 Excited State   1:      Singlet-A      1.8009 eV  688.45 nm  f=0.3649  <S**2>=0.000
     245 -> 248       -0.16344
     246 -> 247        0.69748
     246 <- 247       -0.11946
 This state for optimization and/or second-order correction.
 Total Energy, E(TD-HF/TD-DFT) =  -3005.28774681
 Copying the excited state density for this state as the 1-particle RhoCI density.

 Excited State   2:      Singlet-A      2.2158 eV  559.54 nm  f=0.1227  <S**2>=0.000
     245 -> 247        0.65177
     246 -> 248        0.25864

 Excited State   3:      Singlet-A      2.9194 eV  424.70 nm  f=0.0016  <S**2>=0.000
     242 -> 247        0.32268
     242 -> 249        0.12865
     243 -> 247        0.38846
     243 -> 249        0.10282
     244 -> 247        0.44375

 Excited State   4:      Singlet-A      2.9532 eV  419.83 nm  f=0.0051  <S**2>=0.000
     240 -> 247        0.11135
     241 -> 247        0.11801
     242 -> 247       -0.43467
     243 -> 247       -0.17906
     244 -> 247        0.45699

 Excited State   5:      Singlet-A      3.0088 eV  412.08 nm  f=0.0055  <S**2>=0.000
     240 -> 247        0.15558
     241 -> 247        0.19485
     242 -> 247       -0.32872
     243 -> 247        0.48406
     244 -> 247       -0.25941

 The electronic state is 1-A.
 Alpha  occ. eigenvalues --  -46.90453 -19.25003 -19.24942 -19.20832 -19.19221
 Alpha  occ. eigenvalues --  -19.18638 -19.18325 -14.42187 -14.41188 -14.39025
 Alpha  occ. eigenvalues --  -14.38364 -10.37448 -10.34944 -10.32255 -10.32040
 Alpha  occ. eigenvalues --  -10.29953 -10.29003 -10.28594 -10.28347 -10.28136
 Alpha  occ. eigenvalues --  -10.27637 -10.27623 -10.27445 -10.26530 -10.26391
 Alpha  occ. eigenvalues --  -10.26245 -10.26224 -10.26060 -10.25955 -10.25914
 Alpha  occ. eigenvalues --  -10.25772 -10.25581 -10.25343 -10.25271 -10.25210
 Alpha  occ. eigenvalues --  -10.25162 -10.25117 -10.24953 -10.24493 -10.23938
 Alpha  occ. eigenvalues --  -10.23820 -10.23680 -10.23539 -10.23536 -10.23536
 Alpha  occ. eigenvalues --  -10.23412 -10.23286 -10.23254 -10.23145 -10.23143
 Alpha  occ. eigenvalues --  -10.22950 -10.22940 -10.22910 -10.22875 -10.22695
 Alpha  occ. eigenvalues --  -10.22576 -10.22488 -10.22421 -10.22377 -10.22359
 Alpha  occ. eigenvalues --  -10.22341 -10.22244 -10.22052 -10.21915 -10.21647
 Alpha  occ. eigenvalues --  -10.21339  -3.12882  -1.85716  -1.85237  -1.85153
 Alpha  occ. eigenvalues --   -1.11980  -1.11288  -1.04644  -1.02852  -1.02003
 Alpha  occ. eigenvalues --   -1.01346  -0.98996  -0.98128  -0.97224  -0.95929
 Alpha  occ. eigenvalues --   -0.87538  -0.85925  -0.84657  -0.83925  -0.83773
 Alpha  occ. eigenvalues --   -0.83425  -0.82979  -0.82061  -0.81902  -0.81445
 Alpha  occ. eigenvalues --   -0.80604  -0.79932  -0.78912  -0.78462  -0.77752
 Alpha  occ. eigenvalues --   -0.77031  -0.76256  -0.75888  -0.74975  -0.74582
 Alpha  occ. eigenvalues --   -0.74119  -0.72667  -0.72426  -0.71857  -0.70725
 Alpha  occ. eigenvalues --   -0.70355  -0.69400  -0.69331  -0.69209  -0.68660
 Alpha  occ. eigenvalues --   -0.68240  -0.67202  -0.66115  -0.65315  -0.63393
 Alpha  occ. eigenvalues --   -0.63176  -0.62935  -0.61317  -0.61149  -0.60787
 Alpha  occ. eigenvalues --   -0.60242  -0.59763  -0.59227  -0.58724  -0.58441
 Alpha  occ. eigenvalues --   -0.58180  -0.57166  -0.56265  -0.55923  -0.54926
 Alpha  occ. eigenvalues --   -0.54768  -0.54396  -0.53491  -0.52871  -0.52528
 Alpha  occ. eigenvalues --   -0.52105  -0.51703  -0.50745  -0.50527  -0.49971
 Alpha  occ. eigenvalues --   -0.49644  -0.49483  -0.49368  -0.49076  -0.48683
 Alpha  occ. eigenvalues --   -0.48389  -0.48158  -0.47904  -0.47490  -0.47361
 Alpha  occ. eigenvalues --   -0.47234  -0.47109  -0.46905  -0.46740  -0.46486
 Alpha  occ. eigenvalues --   -0.46301  -0.46155  -0.45720  -0.45673  -0.45562
 Alpha  occ. eigenvalues --   -0.45271  -0.45030  -0.44865  -0.44361  -0.44192
 Alpha  occ. eigenvalues --   -0.44106  -0.43842  -0.43722  -0.43544  -0.43202
 Alpha  occ. eigenvalues --   -0.43116  -0.42958  -0.42714  -0.42550  -0.42392
 Alpha  occ. eigenvalues --   -0.42236  -0.42176  -0.41649  -0.41552  -0.41396
 Alpha  occ. eigenvalues --   -0.41185  -0.41061  -0.40980  -0.40805  -0.40775
 Alpha  occ. eigenvalues --   -0.40553  -0.40492  -0.40215  -0.39743  -0.39607
 Alpha  occ. eigenvalues --   -0.39495  -0.39395  -0.39245  -0.38787  -0.38532
 Alpha  occ. eigenvalues --   -0.38496  -0.38078  -0.38001  -0.37898  -0.37814
 Alpha  occ. eigenvalues --   -0.37443  -0.37298  -0.37034  -0.36921  -0.36694
 Alpha  occ. eigenvalues --   -0.36632  -0.36540  -0.36436  -0.36050  -0.35823
 Alpha  occ. eigenvalues --   -0.35744  -0.35610  -0.35445  -0.35309  -0.35186
 Alpha  occ. eigenvalues --   -0.34893  -0.34642  -0.34346  -0.34276  -0.33518
 Alpha  occ. eigenvalues --   -0.33314  -0.32935  -0.32682  -0.32534  -0.32153
 Alpha  occ. eigenvalues --   -0.32139  -0.31908  -0.31770  -0.31416  -0.31397
 Alpha  occ. eigenvalues --   -0.30891  -0.30689  -0.29871  -0.29726  -0.29705
 Alpha  occ. eigenvalues --   -0.29550  -0.29198  -0.27910  -0.26818  -0.25792
 Alpha  occ. eigenvalues --   -0.25765  -0.25366  -0.25335  -0.25052  -0.21073
 Alpha  occ. eigenvalues --   -0.18584
 Alpha virt. eigenvalues --   -0.11284  -0.05011  -0.03962  -0.02007  -0.00840
 Alpha virt. eigenvalues --   -0.00275   0.00349   0.01376   0.01766   0.03517
 Alpha virt. eigenvalues --    0.04440   0.04625   0.05087   0.05359   0.05961

 Mulliken charges:
               1
     1  Mg   0.999830
     2  C    0.010305
     3  C   -0.079847
     4  C   -0.044494
     5  C   -0.104635
     6  N   -0.415293
     7  C    0.032883
     8  C   -0.125901
     9  C   -0.154945
    10  C    0.080210
    11  C    0.007199
    12  C    0.029611
    13  C    0.020396
    14  C    0.225187
    15  O   -0.250467
    16  O   -0.388438
    17  N   -0.425621
    18  C    0.168858
    19  C   -0.164460
    20  C   -0.078295
    21  C    0.110915
    22  C    0.052786
    23  C    0.055833
    24  O   -0.281168
    25  C   -0.034319
    26  N   -0.418447
    27  C    0.064763
    28  C   -0.115582
    29  C   -0.056684
    30  C    0.114068
    31  C    0.000684
    32  C   -0.016880
    33  C   -0.080267
    34  N   -0.560978
    35  C    0.191483
    36  C   -0.197102
    37  C   -0.055628
    38  C    0.152893
    39  C    0.064623
    40  C    0.169377
    41  O   -0.193227
    42  C   -0.139406
    43  C    0.246950
    44  O   -0.235351
    45  O   -0.368654
    46  C    0.130773
    47  C    0.300765
    48  C   -0.139216
    49  C   -0.227861
    50  C    0.019341
    51  C   -0.006322
    52  C   -0.072630
    53  C    0.042711
    54  C   -0.163803
    55  C   -0.042215
    56  C   -0.005908
    57  C   -0.064283
    58  C    0.028300
    59  C   -0.210711
    60  C   -0.028602
    61  C   -0.021146
    62  C   -0.023235
    63  C   -0.022510
    64  C   -0.268004
    65  C   -0.001308
    66  C   -0.022018
    67  H    0.002913
    68  H    0.024939
    69  H   -0.008065
    70  H    0.071252
    71  H    0.048941
    72  H    0.063984
    73  H    0.050758
    74  H    0.040537
    75  H    0.048929
    76  H    0.050564
    77  H    0.055367
    78  H    0.072310
    79  H    0.075818
    80  H    0.040381
    81  H    0.037399
    82  H    0.071296
    83  H    0.060106
    84  H    0.055690
    85  H    0.064009
    86  H    0.049451
    87  H    0.066207
    88  H    0.043126
    89  H    0.046514
    90  H    0.042087
    91  H    0.035159
    92  H    0.047987
    93  H    0.029671
    94  H    0.044150
    95  H    0.031274
    96  H    0.066348
    97  H    0.071963
    98  H    0.075349
    99  H    0.061881
   100  H    0.066951
   101  H    0.047929
   102  H    0.043161
   103  H    0.035977
   104  H    0.010984
   105  H    0.034025
   106  H    0.051463
   107  H    0.044285
   108  H    0.035756
   109  H    0.024691
   110  H    0.043508
   111  H    0.039356
   112  H    0.015649
   113  H    0.020299
   114  H    0.032497
   115  H    0.022699
   116  H    0.033842
   117  H    0.024255
   118  H    0.029612
   119  H    0.026033
   120  H    0.037847
   121  H    0.033126
   122  H    0.019620
   123  H    0.030674
   124  H    0.030032
   125  H    0.040549
   126  H    0.035314
   127  H    0.032954
   128  H    0.015677
   129  H    0.034704
   130  H    0.035251
   131  H    0.031119
   132  H    0.023319
   133  H    0.023202
   134  H    0.036772
   135  H    0.037452
   136  H    0.033357
   137  H    0.030340
   138  H    0.023347
   139  H    0.032119
   140  H    0.047076
 Sum of Mulliken charges =  -0.00000

 Dipole moment (field-independent basis, Debye):
    X=              5.3317    Y=              2.7075    Z=             -4.6154  Tot=              7.5537
 Quadrupole moment (field-independent basis, Debye-Ang):
   XX=           -361.6860   YY=           -442.6492   ZZ=           -405.5054
   XY=            -16.0173   XZ=             13.9055   YZ=             16.2679

 Normal termination of Gaussian 16 at Wed May  4 17:48:19 2022.
