 Gaussian 16, Revision A.03,
 Gaussian 16:  ES64L-G16RevA.03 25-Dec-2016

 --------------------------------
 #p wB97XD/Def2SVP td=(nstates=5)
 --------------------------------

 ---------------------------------------------------
 step_251_chromophore_3 TDDFT with wB97XD functional
 ---------------------------------------------------
 Symbolic Z-matrix:
 Charge =  0 Multiplicity = 1

                         Standard orientation:
 ---------------------------------------------------------------------
 Center     Atomic      Atomic             Coordinates (Angstroms)
 Number     Number       Type             X           Y           Z
 ---------------------------------------------------------------------
      1         12           0       -5.278841    0.699730    0.087413
      2          6           0       -4.319870   -2.544836   -0.012021
      3          6           0       -1.947817    1.682752    0.139312
      4          6           0       -6.238394    3.944657    0.193134
      5          6           0       -8.568012   -0.284414    0.529973
      6          7           0       -3.451090   -0.337388   -0.043988
      7          6           0       -3.244857   -1.678602   -0.044523
      8          6           0       -1.806600   -2.039600   -0.310038
      9          6           0       -1.035500   -0.704583    0.016526
     10          6           0       -2.235522    0.298236    0.008954
     11          6           0       -0.091181   -0.614673    1.287329
     12          6           0       -1.570680   -2.448155   -1.833581
     13          6           0       -0.325816   -3.365041   -2.019241
     14          6           0        0.866964   -3.321509   -1.049434
     15          8           0        0.984063   -3.785149    0.047975
     16          8           0        1.904248   -2.537112   -1.508580
     17          7           0       -4.258935    2.603779    0.238301
     18          6           0       -2.847004    2.750694    0.230321
     19          6           0       -2.512655    4.141993    0.283179
     20          6           0       -3.768914    4.845974    0.317464
     21          6           0       -4.813972    3.764135    0.231526
     22          6           0       -1.128606    4.685157    0.211678
     23          6           0       -4.034512    6.345713    0.385459
     24          8           0       -5.169074    6.888883    0.528695
     25          6           0       -2.866525    7.313442    0.298804
     26          7           0       -7.111334    1.693267    0.393926
     27          6           0       -7.297098    3.063887    0.206670
     28          6           0       -8.780855    3.499528    0.033605
     29          6           0       -9.482789    2.029993    0.107993
     30          6           0       -8.363063    1.079428    0.325565
     31          6           0       -9.162218    4.444815    1.180095
     32          6           0      -10.357477    1.702050   -1.066017
     33          6           0      -11.763866    1.339834   -0.682836
     34          7           0       -6.299435   -0.949860    0.347464
     35          6           0       -7.645460   -1.262433    0.491631
     36          6           0       -7.814484   -2.665641    0.577571
     37          6           0       -6.532422   -3.260402    0.431885
     38          6           0       -5.644712   -2.191616    0.186520
     39          6           0       -9.061244   -3.447950    0.737249
     40          6           0       -5.790883   -4.500443    0.501562
     41          8           0       -6.072289   -5.659307    0.736731
     42          6           0       -4.304253   -4.033623    0.129352
     43          6           0       -3.272362   -4.729437    0.941902
     44          8           0       -3.311883   -4.940834    2.127045
     45          8           0       -2.234101   -5.172220    0.215840
     46          6           0       -1.176715   -5.861252    1.009051
     47          6           0        3.174101   -2.380430   -0.768754
     48          6           0        4.309850   -2.037930   -1.646046
     49          6           0        5.493266   -2.615524   -1.977137
     50          6           0        6.099839   -3.807015   -1.247746
     51          6           0        6.414763   -2.031827   -2.935226
     52          6           0        7.408228   -0.978633   -2.223854
     53          6           0        7.337057    0.342015   -2.873816
     54          6           0        8.741967    0.867331   -3.330761
     55          6           0        8.637604    1.340253   -4.787615
     56          6           0        9.263935    2.005386   -2.493651
     57          6           0       10.105777    1.541609   -1.266068
     58          6           0       10.395831    2.751882   -0.374761
     59          6           0       11.821215    2.696462    0.134641
     60          6           0       12.841004    3.040670   -1.063648
     61          6           0       12.188868    1.366379    0.812311
     62          6           0       12.849506    1.578424    2.144277
     63          6           0       13.280810    0.293025    2.924528
     64          6           0       12.711140    0.084123    4.370216
     65          6           0       13.510168   -0.936098    5.140054
     66          6           0       11.247678   -0.473311    4.265626
     67          1           0       -0.888683    1.872242    0.326489
     68          1           0       -6.527005    4.984306    0.360818
     69          1           0       -9.585631   -0.679623    0.553777
     70          1           0       -1.416766   -2.755888    0.412997
     71          1           0       -0.443451   -0.431220   -0.856297
     72          1           0       -0.043534   -1.611998    1.724720
     73          1           0       -0.355700    0.100756    2.064362
     74          1           0        0.879302   -0.273302    0.926649
     75          1           0       -1.487967   -1.494547   -2.355306
     76          1           0       -2.464473   -2.975815   -2.166686
     77          1           0        0.005438   -3.100422   -3.023574
     78          1           0       -0.710913   -4.378982   -2.124248
     79          1           0       -0.704365    4.773419   -0.788537
     80          1           0       -0.531735    4.031884    0.846901
     81          1           0       -1.003448    5.614827    0.765995
     82          1           0       -2.459575    7.379032    1.307744
     83          1           0       -3.315975    8.268409    0.027641
     84          1           0       -2.076460    6.997059   -0.382455
     85          1           0       -8.820836    4.061718   -0.899448
     86          1           0      -10.130774    2.002908    0.984704
     87          1           0       -8.427706    4.544921    1.979475
     88          1           0      -10.163386    4.190829    1.527502
     89          1           0       -9.194673    5.442317    0.740921
     90          1           0      -10.015488    0.832794   -1.627899
     91          1           0      -10.424228    2.488531   -1.817849
     92          1           0      -12.516496    1.871087   -1.264730
     93          1           0      -11.960533    1.565162    0.364993
     94          1           0      -11.786708    0.252270   -0.757985
     95          1           0       -9.859964   -2.966541    1.302296
     96          1           0       -8.779519   -4.215821    1.458315
     97          1           0       -9.413546   -3.790512   -0.235763
     98          1           0       -4.282306   -4.472306   -0.868657
     99          1           0       -1.462235   -6.879788    1.275857
    100          1           0       -0.829407   -5.250806    1.842786
    101          1           0       -0.293327   -5.962913    0.378185
    102          1           0        3.429336   -3.230554   -0.135758
    103          1           0        3.001081   -1.519528   -0.123609
    104          1           0        4.137866   -1.139859   -2.239087
    105          1           0        5.372219   -4.213752   -0.545559
    106          1           0        7.031957   -3.512438   -0.764413
    107          1           0        6.364828   -4.634652   -1.906317
    108          1           0        5.922459   -1.594957   -3.803124
    109          1           0        6.980503   -2.830367   -3.414264
    110          1           0        8.360179   -1.491809   -2.083225
    111          1           0        6.958524   -0.925430   -1.231900
    112          1           0        6.761743    0.875831   -2.117386
    113          1           0        6.544384    0.345964   -3.622217
    114          1           0        9.418594    0.025778   -3.481174
    115          1           0        9.622809    1.435535   -5.244764
    116          1           0        8.160336    2.311039   -4.922937
    117          1           0        8.213021    0.641123   -5.507311
    118          1           0        8.405965    2.568934   -2.127449
    119          1           0        9.918352    2.643285   -3.087072
    120          1           0       10.949607    0.999343   -1.691743
    121          1           0        9.406090    0.830342   -0.827863
    122          1           0        9.783784    2.732357    0.526797
    123          1           0       10.203256    3.731509   -0.813754
    124          1           0       11.863183    3.473434    0.899331
    125          1           0       13.423791    2.178367   -1.389208
    126          1           0       13.479338    3.810135   -0.630694
    127          1           0       12.444336    3.549470   -1.942401
    128          1           0       12.956615    0.847580    0.237633
    129          1           0       11.380374    0.635986    0.818453
    130          1           0       12.263404    2.244678    2.778217
    131          1           0       13.832233    1.959249    1.865491
    132          1           0       14.356386    0.256535    3.096946
    133          1           0       13.002837   -0.588896    2.346621
    134          1           0       12.748108    1.013288    4.940881
    135          1           0       12.921607   -1.735387    5.589800
    136          1           0       14.005943   -0.292738    5.867963
    137          1           0       14.274269   -1.424717    4.535630
    138          1           0       10.836956   -0.168702    3.303461
    139          1           0       10.701918    0.133715    4.987825
    140          1           0       11.078387   -1.542298    4.398824
 ---------------------------------------------------------------------

 SCF Done:  E(RwB97XD) =  -3007.86349970     A.U. after   18 cycles

 Excitation energies and oscillator strengths:

 Excited State   1:      Singlet-A      1.5864 eV  781.54 nm  f=0.3838  <S**2>=0.000
     245 -> 248       -0.17583
     246 -> 247        0.68655
     245 <- 248       -0.11670
 This state for optimization and/or second-order correction.
 Total Energy, E(TD-HF/TD-DFT) =  -3007.80520045
 Copying the excited state density for this state as the 1-particle RhoCI density.

 Excited State   2:      Singlet-A      2.1684 eV  571.77 nm  f=0.1141  <S**2>=0.000
     245 -> 247        0.63620
     246 -> 248        0.29388

 Excited State   3:      Singlet-A      3.3056 eV  375.08 nm  f=0.0155  <S**2>=0.000
     244 -> 247        0.67011
     246 -> 248       -0.11670

 Excited State   4:      Singlet-A      3.4630 eV  358.02 nm  f=0.3603  <S**2>=0.000
     240 -> 247       -0.30698
     240 -> 249        0.10292
     241 -> 247        0.16925
     244 -> 247        0.12276
     245 -> 247       -0.21290
     246 -> 248        0.50274

 Excited State   5:      Singlet-A      3.4827 eV  356.00 nm  f=0.0186  <S**2>=0.000
     240 -> 247        0.17796
     241 -> 247        0.43500
     241 -> 249        0.34339
     241 -> 250       -0.17863
     243 -> 247       -0.28815

 The electronic state is 1-A.
 Alpha  occ. eigenvalues --  -46.93405 -19.29558 -19.29533 -19.25521 -19.24074
 Alpha  occ. eigenvalues --  -19.23470 -19.23042 -14.47367 -14.46188 -14.44009
 Alpha  occ. eigenvalues --  -14.43283 -10.44245 -10.41785 -10.39141 -10.38953
 Alpha  occ. eigenvalues --  -10.36482 -10.35272 -10.34884 -10.34616 -10.34412
 Alpha  occ. eigenvalues --  -10.34187 -10.34017 -10.33786 -10.32825 -10.32795
 Alpha  occ. eigenvalues --  -10.32723 -10.32580 -10.32472 -10.32186 -10.32101
 Alpha  occ. eigenvalues --  -10.32019 -10.31928 -10.31778 -10.31628 -10.31614
 Alpha  occ. eigenvalues --  -10.31493 -10.31486 -10.31456 -10.31070 -10.30219
 Alpha  occ. eigenvalues --  -10.30207 -10.30138 -10.29917 -10.29864 -10.29812
 Alpha  occ. eigenvalues --  -10.29752 -10.29626 -10.29590 -10.29570 -10.29521
 Alpha  occ. eigenvalues --  -10.29423 -10.29300 -10.29247 -10.29175 -10.29035
 Alpha  occ. eigenvalues --  -10.28968 -10.28846 -10.28813 -10.28739 -10.28737
 Alpha  occ. eigenvalues --  -10.28719 -10.28662 -10.28433 -10.28345 -10.28064
 Alpha  occ. eigenvalues --  -10.27754  -3.19654  -1.93243  -1.92769  -1.92675
 Alpha  occ. eigenvalues --   -1.19343  -1.18685  -1.12162  -1.10192  -1.09544
 Alpha  occ. eigenvalues --   -1.08718  -1.06425  -1.05501  -1.04611  -1.03313
 Alpha  occ. eigenvalues --   -0.95173  -0.93584  -0.92326  -0.91499  -0.91414
 Alpha  occ. eigenvalues --   -0.91079  -0.90619  -0.89716  -0.89481  -0.89094
 Alpha  occ. eigenvalues --   -0.88252  -0.87581  -0.86559  -0.86043  -0.85405
 Alpha  occ. eigenvalues --   -0.84662  -0.83904  -0.83563  -0.82669  -0.82247
 Alpha  occ. eigenvalues --   -0.81792  -0.80328  -0.80131  -0.79435  -0.78401
 Alpha  occ. eigenvalues --   -0.77988  -0.77029  -0.76984  -0.76900  -0.76319
 Alpha  occ. eigenvalues --   -0.75836  -0.74753  -0.73652  -0.72924  -0.71034
 Alpha  occ. eigenvalues --   -0.70741  -0.70479  -0.68906  -0.68752  -0.68460
 Alpha  occ. eigenvalues --   -0.67736  -0.67276  -0.66698  -0.66381  -0.65844
 Alpha  occ. eigenvalues --   -0.65622  -0.64836  -0.63714  -0.63524  -0.62462
 Alpha  occ. eigenvalues --   -0.62228  -0.61878  -0.60868  -0.60237  -0.59905
 Alpha  occ. eigenvalues --   -0.59621  -0.59114  -0.58226  -0.57940  -0.57444
 Alpha  occ. eigenvalues --   -0.57099  -0.56885  -0.56760  -0.56574  -0.56167
 Alpha  occ. eigenvalues --   -0.55785  -0.55513  -0.55279  -0.54815  -0.54740
 Alpha  occ. eigenvalues --   -0.54576  -0.54523  -0.54269  -0.54192  -0.53849
 Alpha  occ. eigenvalues --   -0.53705  -0.53538  -0.53068  -0.53018  -0.52901
 Alpha  occ. eigenvalues --   -0.52614  -0.52333  -0.52127  -0.51863  -0.51553
 Alpha  occ. eigenvalues --   -0.51425  -0.51180  -0.51033  -0.50867  -0.50518
 Alpha  occ. eigenvalues --   -0.50455  -0.50265  -0.49968  -0.49811  -0.49665
 Alpha  occ. eigenvalues --   -0.49615  -0.49413  -0.48926  -0.48775  -0.48638
 Alpha  occ. eigenvalues --   -0.48390  -0.48294  -0.48207  -0.48035  -0.47961
 Alpha  occ. eigenvalues --   -0.47780  -0.47723  -0.47408  -0.46867  -0.46806
 Alpha  occ. eigenvalues --   -0.46666  -0.46547  -0.46380  -0.45937  -0.45698
 Alpha  occ. eigenvalues --   -0.45614  -0.45199  -0.45098  -0.45081  -0.44949
 Alpha  occ. eigenvalues --   -0.44553  -0.44389  -0.44186  -0.44031  -0.43806
 Alpha  occ. eigenvalues --   -0.43749  -0.43618  -0.43525  -0.43163  -0.42952
 Alpha  occ. eigenvalues --   -0.42863  -0.42722  -0.42596  -0.42380  -0.42255
 Alpha  occ. eigenvalues --   -0.41863  -0.41688  -0.41427  -0.41232  -0.40536
 Alpha  occ. eigenvalues --   -0.40376  -0.39844  -0.39748  -0.39547  -0.39132
 Alpha  occ. eigenvalues --   -0.39097  -0.38859  -0.38789  -0.38431  -0.38370
 Alpha  occ. eigenvalues --   -0.37986  -0.37660  -0.36833  -0.36650  -0.36621
 Alpha  occ. eigenvalues --   -0.36483  -0.35976  -0.34972  -0.33516  -0.32638
 Alpha  occ. eigenvalues --   -0.32561  -0.32427  -0.32006  -0.31624  -0.26117
 Alpha  occ. eigenvalues --   -0.22727
 Alpha virt. eigenvalues --   -0.07210   0.00409   0.02289   0.04459   0.05802
 Alpha virt. eigenvalues --    0.06194   0.06664   0.07936   0.08567   0.09813
 Alpha virt. eigenvalues --    0.11118   0.11366   0.11883   0.12086   0.12776

 Mulliken charges:
               1
     1  Mg   0.985354
     2  C    0.010176
     3  C   -0.095605
     4  C   -0.062711
     5  C   -0.128242
     6  N   -0.379117
     7  C    0.001578
     8  C   -0.088106
     9  C   -0.131316
    10  C    0.063206
    11  C    0.017972
    12  C    0.042113
    13  C    0.032477
    14  C    0.209373
    15  O   -0.243353
    16  O   -0.385674
    17  N   -0.389521
    18  C    0.163902
    19  C   -0.155346
    20  C   -0.074078
    21  C    0.100034
    22  C    0.064890
    23  C    0.052865
    24  O   -0.274988
    25  C   -0.022200
    26  N   -0.391831
    27  C    0.057831
    28  C   -0.092133
    29  C   -0.027207
    30  C    0.108997
    31  C    0.009091
    32  C   -0.008381
    33  C   -0.062924
    34  N   -0.527536
    35  C    0.189960
    36  C   -0.191583
    37  C   -0.054173
    38  C    0.140319
    39  C    0.072711
    40  C    0.152714
    41  O   -0.182432
    42  C   -0.105415
    43  C    0.226664
    44  O   -0.230055
    45  O   -0.365317
    46  C    0.144198
    47  C    0.318256
    48  C   -0.153214
    49  C   -0.204301
    50  C    0.030727
    51  C    0.008645
    52  C   -0.056226
    53  C    0.051447
    54  C   -0.131367
    55  C   -0.030156
    56  C    0.011055
    57  C   -0.046057
    58  C    0.042603
    59  C   -0.177472
    60  C   -0.019470
    61  C   -0.009694
    62  C   -0.003835
    63  C   -0.005733
    64  C   -0.240372
    65  C    0.007879
    66  C   -0.008153
    67  H   -0.003625
    68  H    0.017016
    69  H   -0.017080
    70  H    0.046369
    71  H    0.036618
    72  H    0.059417
    73  H    0.045684
    74  H    0.033765
    75  H    0.040815
    76  H    0.041277
    77  H    0.050791
    78  H    0.067370
    79  H    0.073301
    80  H    0.034929
    81  H    0.031568
    82  H    0.066562
    83  H    0.058923
    84  H    0.050198
    85  H    0.055783
    86  H    0.035219
    87  H    0.060760
    88  H    0.037071
    89  H    0.041150
    90  H    0.033138
    91  H    0.028060
    92  H    0.043590
    93  H    0.022305
    94  H    0.037655
    95  H    0.026723
    96  H    0.061841
    97  H    0.068070
    98  H    0.066787
    99  H    0.059073
   100  H    0.064317
   101  H    0.043112
   102  H    0.037097
   103  H    0.030297
   104  H    0.006597
   105  H    0.027501
   106  H    0.045803
   107  H    0.039015
   108  H    0.027469
   109  H    0.017142
   110  H    0.035965
   111  H    0.026907
   112  H    0.008396
   113  H    0.010843
   114  H    0.021144
   115  H    0.016141
   116  H    0.027358
   117  H    0.018392
   118  H    0.019524
   119  H    0.015160
   120  H    0.028154
   121  H    0.020109
   122  H    0.011345
   123  H    0.022552
   124  H    0.018942
   125  H    0.034595
   126  H    0.029456
   127  H    0.027267
   128  H    0.005080
   129  H    0.023458
   130  H    0.026444
   131  H    0.021461
   132  H    0.014468
   133  H    0.012884
   134  H    0.027351
   135  H    0.031920
   136  H    0.027873
   137  H    0.024161
   138  H    0.013186
   139  H    0.026203
   140  H    0.042038
 Sum of Mulliken charges =  -0.00000

 Dipole moment (field-independent basis, Debye):
    X=              5.4642    Y=              2.7924    Z=             -4.6400  Tot=              7.6932
 Quadrupole moment (field-independent basis, Debye-Ang):
   XX=           -363.7047   YY=           -440.7035   ZZ=           -405.1995
   XY=            -15.5577   XZ=             14.2927   YZ=             16.3722

 Normal termination of Gaussian 16 at Wed May  4 18:26:23 2022.
