 Gaussian 16, Revision A.03,
 Gaussian 16:  ES64L-G16RevA.03 25-Dec-2016

 --------------------
 #p ZINDO=(nstates=5)
 --------------------

 ----------------------------
 step_251_chromophore_3 ZINDO
 ----------------------------
 Symbolic Z-matrix:
 Charge =  0 Multiplicity = 1

                         Standard orientation:
 ---------------------------------------------------------------------
 Center     Atomic      Atomic             Coordinates (Angstroms)
 Number     Number       Type             X           Y           Z
 ---------------------------------------------------------------------
      1         12           0       -5.278841    0.699730    0.087413
      2          6           0       -4.319870   -2.544836   -0.012021
      3          6           0       -1.947817    1.682752    0.139312
      4          6           0       -6.238394    3.944657    0.193134
      5          6           0       -8.568012   -0.284414    0.529973
      6          7           0       -3.451090   -0.337388   -0.043988
      7          6           0       -3.244857   -1.678602   -0.044523
      8          6           0       -1.806600   -2.039600   -0.310038
      9          6           0       -1.035500   -0.704583    0.016526
     10          6           0       -2.235522    0.298236    0.008954
     11          6           0       -0.091181   -0.614673    1.287329
     12          6           0       -1.570680   -2.448155   -1.833581
     13          6           0       -0.325816   -3.365041   -2.019241
     14          6           0        0.866964   -3.321509   -1.049434
     15          8           0        0.984063   -3.785149    0.047975
     16          8           0        1.904248   -2.537112   -1.508580
     17          7           0       -4.258935    2.603779    0.238301
     18          6           0       -2.847004    2.750694    0.230321
     19          6           0       -2.512655    4.141993    0.283179
     20          6           0       -3.768914    4.845974    0.317464
     21          6           0       -4.813972    3.764135    0.231526
     22          6           0       -1.128606    4.685157    0.211678
     23          6           0       -4.034512    6.345713    0.385459
     24          8           0       -5.169074    6.888883    0.528695
     25          6           0       -2.866525    7.313442    0.298804
     26          7           0       -7.111334    1.693267    0.393926
     27          6           0       -7.297098    3.063887    0.206670
     28          6           0       -8.780855    3.499528    0.033605
     29          6           0       -9.482789    2.029993    0.107993
     30          6           0       -8.363063    1.079428    0.325565
     31          6           0       -9.162218    4.444815    1.180095
     32          6           0      -10.357477    1.702050   -1.066017
     33          6           0      -11.763866    1.339834   -0.682836
     34          7           0       -6.299435   -0.949860    0.347464
     35          6           0       -7.645460   -1.262433    0.491631
     36          6           0       -7.814484   -2.665641    0.577571
     37          6           0       -6.532422   -3.260402    0.431885
     38          6           0       -5.644712   -2.191616    0.186520
     39          6           0       -9.061244   -3.447950    0.737249
     40          6           0       -5.790883   -4.500443    0.501562
     41          8           0       -6.072289   -5.659307    0.736731
     42          6           0       -4.304253   -4.033623    0.129352
     43          6           0       -3.272362   -4.729437    0.941902
     44          8           0       -3.311883   -4.940834    2.127045
     45          8           0       -2.234101   -5.172220    0.215840
     46          6           0       -1.176715   -5.861252    1.009051
     47          6           0        3.174101   -2.380430   -0.768754
     48          6           0        4.309850   -2.037930   -1.646046
     49          6           0        5.493266   -2.615524   -1.977137
     50          6           0        6.099839   -3.807015   -1.247746
     51          6           0        6.414763   -2.031827   -2.935226
     52          6           0        7.408228   -0.978633   -2.223854
     53          6           0        7.337057    0.342015   -2.873816
     54          6           0        8.741967    0.867331   -3.330761
     55          6           0        8.637604    1.340253   -4.787615
     56          6           0        9.263935    2.005386   -2.493651
     57          6           0       10.105777    1.541609   -1.266068
     58          6           0       10.395831    2.751882   -0.374761
     59          6           0       11.821215    2.696462    0.134641
     60          6           0       12.841004    3.040670   -1.063648
     61          6           0       12.188868    1.366379    0.812311
     62          6           0       12.849506    1.578424    2.144277
     63          6           0       13.280810    0.293025    2.924528
     64          6           0       12.711140    0.084123    4.370216
     65          6           0       13.510168   -0.936098    5.140054
     66          6           0       11.247678   -0.473311    4.265626
     67          1           0       -0.888683    1.872242    0.326489
     68          1           0       -6.527005    4.984306    0.360818
     69          1           0       -9.585631   -0.679623    0.553777
     70          1           0       -1.416766   -2.755888    0.412997
     71          1           0       -0.443451   -0.431220   -0.856297
     72          1           0       -0.043534   -1.611998    1.724720
     73          1           0       -0.355700    0.100756    2.064362
     74          1           0        0.879302   -0.273302    0.926649
     75          1           0       -1.487967   -1.494547   -2.355306
     76          1           0       -2.464473   -2.975815   -2.166686
     77          1           0        0.005438   -3.100422   -3.023574
     78          1           0       -0.710913   -4.378982   -2.124248
     79          1           0       -0.704365    4.773419   -0.788537
     80          1           0       -0.531735    4.031884    0.846901
     81          1           0       -1.003448    5.614827    0.765995
     82          1           0       -2.459575    7.379032    1.307744
     83          1           0       -3.315975    8.268409    0.027641
     84          1           0       -2.076460    6.997059   -0.382455
     85          1           0       -8.820836    4.061718   -0.899448
     86          1           0      -10.130774    2.002908    0.984704
     87          1           0       -8.427706    4.544921    1.979475
     88          1           0      -10.163386    4.190829    1.527502
     89          1           0       -9.194673    5.442317    0.740921
     90          1           0      -10.015488    0.832794   -1.627899
     91          1           0      -10.424228    2.488531   -1.817849
     92          1           0      -12.516496    1.871087   -1.264730
     93          1           0      -11.960533    1.565162    0.364993
     94          1           0      -11.786708    0.252270   -0.757985
     95          1           0       -9.859964   -2.966541    1.302296
     96          1           0       -8.779519   -4.215821    1.458315
     97          1           0       -9.413546   -3.790512   -0.235763
     98          1           0       -4.282306   -4.472306   -0.868657
     99          1           0       -1.462235   -6.879788    1.275857
    100          1           0       -0.829407   -5.250806    1.842786
    101          1           0       -0.293327   -5.962913    0.378185
    102          1           0        3.429336   -3.230554   -0.135758
    103          1           0        3.001081   -1.519528   -0.123609
    104          1           0        4.137866   -1.139859   -2.239087
    105          1           0        5.372219   -4.213752   -0.545559
    106          1           0        7.031957   -3.512438   -0.764413
    107          1           0        6.364828   -4.634652   -1.906317
    108          1           0        5.922459   -1.594957   -3.803124
    109          1           0        6.980503   -2.830367   -3.414264
    110          1           0        8.360179   -1.491809   -2.083225
    111          1           0        6.958524   -0.925430   -1.231900
    112          1           0        6.761743    0.875831   -2.117386
    113          1           0        6.544384    0.345964   -3.622217
    114          1           0        9.418594    0.025778   -3.481174
    115          1           0        9.622809    1.435535   -5.244764
    116          1           0        8.160336    2.311039   -4.922937
    117          1           0        8.213021    0.641123   -5.507311
    118          1           0        8.405965    2.568934   -2.127449
    119          1           0        9.918352    2.643285   -3.087072
    120          1           0       10.949607    0.999343   -1.691743
    121          1           0        9.406090    0.830342   -0.827863
    122          1           0        9.783784    2.732357    0.526797
    123          1           0       10.203256    3.731509   -0.813754
    124          1           0       11.863183    3.473434    0.899331
    125          1           0       13.423791    2.178367   -1.389208
    126          1           0       13.479338    3.810135   -0.630694
    127          1           0       12.444336    3.549470   -1.942401
    128          1           0       12.956615    0.847580    0.237633
    129          1           0       11.380374    0.635986    0.818453
    130          1           0       12.263404    2.244678    2.778217
    131          1           0       13.832233    1.959249    1.865491
    132          1           0       14.356386    0.256535    3.096946
    133          1           0       13.002837   -0.588896    2.346621
    134          1           0       12.748108    1.013288    4.940881
    135          1           0       12.921607   -1.735387    5.589800
    136          1           0       14.005943   -0.292738    5.867963
    137          1           0       14.274269   -1.424717    4.535630
    138          1           0       10.836956   -0.168702    3.303461
    139          1           0       10.701918    0.133715    4.987825
    140          1           0       11.078387   -1.542298    4.398824
 ---------------------------------------------------------------------

 SCF Done:  E(RZINDO/S) =  -474.529840614     A.U. after   20 cycles

 Excitation energies and oscillator strengths:

 Excited State   1:      Singlet-A      1.2009 eV 1032.40 nm  f=0.6229  <S**2>=0.000
     175 ->178        -0.18344
     176 ->177         0.66431
 This state for optimization and/or second-order correction.
 Total Energy, E(CIS/TDA) =  -474.485707245
 Copying the excited state density for this state as the 1-particle RhoCI density.

 Excited State   2:      Singlet-A      1.9428 eV  638.17 nm  f=0.0320  <S**2>=0.000
     175 ->177         0.53303
     176 ->178         0.43974

 Excited State   3:      Singlet-A      2.9233 eV  424.12 nm  f=0.6463  <S**2>=0.000
     169 ->177        -0.16580
     169 ->179         0.13455
     169 ->180        -0.15132
     175 ->177        -0.30503
     176 ->178         0.41977
     176 ->179         0.28241
     176 ->180        -0.11539

 Excited State   4:      Singlet-A      2.9766 eV  416.53 nm  f=0.0000  <S**2>=0.000
     170 ->177         0.31288
     170 ->179         0.40325
     170 ->180         0.32627
     170 ->186         0.19052
     170 ->187         0.18123

 Excited State   5:      Singlet-A      3.0279 eV  409.48 nm  f=0.1132  <S**2>=0.000
     168 ->177         0.14158
     168 ->179        -0.10753
     168 ->180         0.14635
     169 ->177         0.27075
     169 ->178        -0.15636
     169 ->179        -0.24160
     169 ->180         0.24086
     169 ->186        -0.16496
     175 ->177        -0.12448
     176 ->178         0.18047
     176 ->179         0.23106

 The electronic state is 1-A.
 Alpha  occ. eigenvalues --   -1.85064  -1.80533  -1.79775  -1.73935  -1.73015
 Alpha  occ. eigenvalues --   -1.69949  -1.67037  -1.62536  -1.59499  -1.57199
 Alpha  occ. eigenvalues --   -1.55467  -1.52936  -1.50297  -1.48542  -1.47730
 Alpha  occ. eigenvalues --   -1.43726  -1.43236  -1.41092  -1.40269  -1.39434
 Alpha  occ. eigenvalues --   -1.36873  -1.34434  -1.33510  -1.31196  -1.29152
 Alpha  occ. eigenvalues --   -1.27184  -1.25336  -1.22730  -1.20816  -1.18544
 Alpha  occ. eigenvalues --   -1.18153  -1.15462  -1.14560  -1.14290  -1.13616
 Alpha  occ. eigenvalues --   -1.12322  -1.11030  -1.10526  -1.05162  -1.04026
 Alpha  occ. eigenvalues --   -1.03580  -1.00958  -0.99778  -0.98712  -0.97497
 Alpha  occ. eigenvalues --   -0.96090  -0.95083  -0.94594  -0.93639  -0.92737
 Alpha  occ. eigenvalues --   -0.91491  -0.91413  -0.89374  -0.88235  -0.85990
 Alpha  occ. eigenvalues --   -0.84354  -0.83968  -0.83192  -0.82476  -0.80923
 Alpha  occ. eigenvalues --   -0.80291  -0.79433  -0.78692  -0.77423  -0.76826
 Alpha  occ. eigenvalues --   -0.76440  -0.74870  -0.74108  -0.73660  -0.73417
 Alpha  occ. eigenvalues --   -0.72994  -0.72147  -0.71827  -0.71477  -0.71000
 Alpha  occ. eigenvalues --   -0.70264  -0.70148  -0.69009  -0.68314  -0.68021
 Alpha  occ. eigenvalues --   -0.67579  -0.66854  -0.66170  -0.65901  -0.65758
 Alpha  occ. eigenvalues --   -0.65595  -0.65361  -0.64691  -0.64169  -0.63722
 Alpha  occ. eigenvalues --   -0.63203  -0.62750  -0.62492  -0.62154  -0.61740
 Alpha  occ. eigenvalues --   -0.61662  -0.61020  -0.60841  -0.60449  -0.59961
 Alpha  occ. eigenvalues --   -0.59759  -0.59543  -0.58961  -0.58681  -0.57836
 Alpha  occ. eigenvalues --   -0.57580  -0.57346  -0.56926  -0.56870  -0.56852
 Alpha  occ. eigenvalues --   -0.55898  -0.55514  -0.55315  -0.54784  -0.54360
 Alpha  occ. eigenvalues --   -0.53832  -0.53741  -0.53589  -0.53218  -0.52721
 Alpha  occ. eigenvalues --   -0.52401  -0.51847  -0.51775  -0.51668  -0.51575
 Alpha  occ. eigenvalues --   -0.51444  -0.51131  -0.50729  -0.50568  -0.50144
 Alpha  occ. eigenvalues --   -0.49900  -0.49689  -0.49384  -0.49159  -0.48839
 Alpha  occ. eigenvalues --   -0.48411  -0.48189  -0.47923  -0.47887  -0.47361
 Alpha  occ. eigenvalues --   -0.47208  -0.47089  -0.46863  -0.46514  -0.46433
 Alpha  occ. eigenvalues --   -0.46301  -0.46047  -0.45846  -0.44995  -0.44888
 Alpha  occ. eigenvalues --   -0.44805  -0.44214  -0.44036  -0.43915  -0.43674
 Alpha  occ. eigenvalues --   -0.43349  -0.43266  -0.42899  -0.42636  -0.42316
 Alpha  occ. eigenvalues --   -0.41883  -0.41541  -0.41449  -0.39173  -0.39029
 Alpha  occ. eigenvalues --   -0.37732  -0.37219  -0.35339  -0.35014  -0.34816
 Alpha  occ. eigenvalues --   -0.32964  -0.32416  -0.32147  -0.32048  -0.26894
 Alpha  occ. eigenvalues --   -0.21558
 Alpha virt. eigenvalues --   -0.08643  -0.02003  -0.00207   0.01430   0.01718
 Alpha virt. eigenvalues --    0.02678   0.03297   0.03450   0.04205   0.05120
 Alpha virt. eigenvalues --    0.06138   0.07286   0.07654   0.07859   0.08202

 Mulliken charges:
               1
     1  Mg   0.422549
     2  C   -0.033549
     3  C   -0.062251
     4  C   -0.083030
     5  C   -0.064220
     6  N   -0.259528
     7  C    0.131865
     8  C    0.000246
     9  C   -0.013070
    10  C    0.103924
    11  C   -0.049325
    12  C   -0.013588
    13  C    0.009779
    14  C    0.477469
    15  O   -0.505828
    16  O   -0.290714
    17  N   -0.306583
    18  C    0.076225
    19  C    0.020268
    20  C   -0.074109
    21  C    0.168478
    22  C   -0.042137
    23  C    0.321588
    24  O   -0.547627
    25  C   -0.032468
    26  N   -0.291835
    27  C    0.134203
    28  C   -0.004332
    29  C    0.014903
    30  C    0.146999
    31  C   -0.049735
    32  C   -0.022658
    33  C   -0.059462
    34  N   -0.353873
    35  C    0.124149
    36  C    0.036703
    37  C   -0.053181
    38  C    0.101119
    39  C   -0.042413
    40  C    0.334647
    41  O   -0.504587
    42  C    0.048211
    43  C    0.493018
    44  O   -0.509988
    45  O   -0.276259
    46  C    0.076678
    47  C    0.122146
    48  C   -0.101677
    49  C    0.018009
    50  C   -0.045553
    51  C   -0.024930
    52  C   -0.030351
    53  C   -0.032214
    54  C   -0.001499
    55  C   -0.063051
    56  C   -0.032125
    57  C   -0.039087
    58  C   -0.024662
    59  C   -0.010732
    60  C   -0.066374
    61  C   -0.027477
    62  C   -0.035191
    63  C   -0.041328
    64  C   -0.014026
    65  C   -0.058452
    66  C   -0.063409
    67  H    0.030289
    68  H    0.038139
    69  H    0.019082
    70  H    0.049022
    71  H    0.024161
    72  H    0.032955
    73  H    0.027815
    74  H    0.018411
    75  H    0.032802
    76  H    0.027022
    77  H    0.026534
    78  H    0.044247
    79  H    0.041468
    80  H    0.019564
    81  H    0.024022
    82  H    0.041972
    83  H    0.040340
    84  H    0.031302
    85  H    0.045993
    86  H    0.038073
    87  H    0.036508
    88  H    0.019671
    89  H    0.017303
    90  H    0.017244
    91  H    0.017827
    92  H    0.023890
    93  H    0.015060
    94  H    0.019826
    95  H    0.019339
    96  H    0.036255
    97  H    0.042513
    98  H    0.045144
    99  H    0.048665
   100  H    0.053583
   101  H    0.025381
   102  H    0.051448
   103  H    0.038775
   104  H    0.012007
   105  H    0.019797
   106  H    0.030688
   107  H    0.025051
   108  H    0.019841
   109  H    0.011492
   110  H    0.025911
   111  H    0.014726
   112  H    0.017566
   113  H    0.022965
   114  H    0.027678
   115  H    0.004212
   116  H    0.017334
   117  H    0.011515
   118  H    0.021050
   119  H    0.016355
   120  H    0.029531
   121  H    0.020034
   122  H    0.009236
   123  H    0.021279
   124  H    0.015307
   125  H    0.026279
   126  H    0.011520
   127  H    0.020869
   128  H    0.010902
   129  H    0.020419
   130  H    0.027072
   131  H    0.018123
   132  H    0.013206
   133  H    0.018325
   134  H    0.025584
   135  H    0.022849
   136  H    0.014436
   137  H    0.016465
   138  H    0.009163
   139  H    0.012235
   140  H    0.032647
 Sum of Mulliken charges =  -0.00000

 Dipole moment (field-independent basis, Debye):
    X=              5.6804    Y=              2.7964    Z=             -6.9725  Tot=              9.4182
 N-N= 4.317540460939D+03 E-N= 0.000000000000D+00  KE=-9.309569101568D+03
 Leave Link  601 at Wed May  4 18:40:21 2022, MaxMem=  6710886400 cpu:               1.0 elap:               0.1
 (Enter /sw/apps/gaussian-16.0/g16/l9999.exe)
 1\1\GINC-BP1-COMPUTE179\SP\RZINDO CIS\STO-3G\C55H74Mg1N4O6\OF15641\04-
 May-2022\0\\#p ZINDO=(nstates=5)\\step_251_chromophore_3 ZINDO\\0,1\Mg
 ,0,1.277,7.976,26.813\C,0,1.705,10.259,29.275\C,0,1.827,5.414,29.093\C
 ,0,0.855,5.693,24.349\C,0,1.218,10.518,24.464\N,0,1.593,7.92,28.894\C,
 0,1.775,8.962,29.744\C,0,1.816,8.528,31.186\C,0,2.131,6.987,31.088\C,0
 ,1.797,6.748,29.579\C,0,3.535,6.424,31.564\C,0,0.414,8.754,31.912\C,0,
 0.558,8.896,33.456\C,0,1.718,8.244,34.227\O,0,2.862,8.582,34.327\O,0,1

 Normal termination of Gaussian 16 at Wed May  4 18:40:21 2022.
