 Gaussian 16, Revision A.03,
 Gaussian 16:  ES64L-G16RevA.03 25-Dec-2016

 ------------------------------
 #p blyp/Def2SVP td=(nstates=5)
 ------------------------------

 ---------------------------------------------------
 step_1251_chromophore_19 TDDFT with blyp functional
 ---------------------------------------------------
 Symbolic Z-matrix:
 Charge =  0 Multiplicity = 1

                         Standard orientation:
 ---------------------------------------------------------------------
 Center     Atomic      Atomic             Coordinates (Angstroms)
 Number     Number       Type             X           Y           Z
 ---------------------------------------------------------------------
      1         12           0       -5.689545    0.420997   -0.213527
      2          6           0       -3.488810   -2.286460   -0.437513
      3          6           0       -2.970208    2.474622    0.488108
      4          6           0       -7.829201    2.882057    0.471637
      5          6           0       -8.282046   -1.838132   -0.492400
      6          7           0       -3.558588    0.087758    0.135568
      7          6           0       -2.835570   -1.045467    0.012056
      8          6           0       -1.365653   -0.740502    0.099738
      9          6           0       -1.260217    0.712896    0.544719
     10          6           0       -2.654102    1.119683    0.321181
     11          6           0       -0.718354    0.985641    2.027556
     12          6           0       -0.507458   -1.020279   -1.204622
     13          6           0        0.662265   -1.984176   -1.025699
     14          6           0        1.712274   -1.865633    0.209859
     15          8           0        1.555984   -2.230131    1.397219
     16          8           0        2.876772   -1.302953   -0.262768
     17          7           0       -5.479657    2.433051    0.300417
     18          6           0       -4.279441    3.084956    0.499005
     19          6           0       -4.553565    4.487470    0.599036
     20          6           0       -5.976759    4.591184    0.616421
     21          6           0       -6.518890    3.266068    0.463350
     22          6           0       -3.492089    5.548007    0.839242
     23          6           0       -6.854234    5.939788    0.654206
     24          8           0       -8.068046    5.869136    0.565753
     25          6           0       -6.173355    7.276128    0.559639
     26          7           0       -7.781043    0.476923   -0.152097
     27          6           0       -8.402580    1.624196    0.219842
     28          6           0       -9.968284    1.398820    0.366226
     29          6           0      -10.117742   -0.147970   -0.084320
     30          6           0       -8.593565   -0.548143   -0.294402
     31          6           0      -10.464698    1.705066    1.810322
     32          6           0      -10.915466   -0.548353   -1.362872
     33          6           0      -10.504699    0.225718   -2.662628
     34          7           0       -5.911929   -1.692464   -0.474154
     35          6           0       -6.995189   -2.457554   -0.541069
     36          6           0       -6.624292   -3.835738   -0.689140
     37          6           0       -5.240997   -3.808352   -0.672441
     38          6           0       -4.836225   -2.476555   -0.533404
     39          6           0       -7.516585   -5.026105   -0.836576
     40          6           0       -4.103699   -4.684366   -0.577817
     41          8           0       -4.022765   -5.879659   -0.768795
     42          6           0       -2.905860   -3.649502   -0.508347
     43          6           0       -2.082695   -4.016212    0.591336
     44          8           0       -2.390577   -3.859936    1.761501
     45          8           0       -1.154551   -4.883145    0.186530
     46          6           0       -0.267330   -5.281122    1.301350
     47          6           0        3.992896   -1.296609    0.684563
     48          6           0        5.231284   -0.803833   -0.052947
     49          6           0        6.484667   -1.372520   -0.001304
     50          6           0        6.913029   -2.560890    0.748497
     51          6           0        7.561467   -0.797217   -0.893512
     52          6           0        8.273431    0.422265   -0.334564
     53          6           0        7.746481    1.805798   -0.879092
     54          6           0        8.894482    2.625518   -1.431003
     55          6           0        8.606589    4.159380   -1.529282
     56          6           0        9.214411    2.072071   -2.882124
     57          6           0       10.694344    2.147035   -3.242659
     58          6           0       11.370061    0.794359   -2.987377
     59          6           0       12.476218    0.966617   -1.816565
     60          6           0       13.844143    0.960525   -2.454584
     61          6           0       12.332975   -0.081403   -0.673902
     62          6           0       11.938435    0.487527    0.710657
     63          6           0       12.790003   -0.309170    1.846479
     64          6           0       12.053862   -0.395838    3.194495
     65          6           0       11.456947    0.920347    3.732988
     66          6           0       12.904756   -1.016207    4.331208
     67          1           0       -2.113824    3.140804    0.608145
     68          1           0       -8.616839    3.621133    0.632555
     69          1           0       -9.084783   -2.572124   -0.592269
     70          1           0       -0.940023   -1.214457    0.984553
     71          1           0       -0.660095    1.359025   -0.096884
     72          1           0       -1.617767    1.277613    2.569639
     73          1           0       -0.008676    1.804855    1.914432
     74          1           0       -0.217759    0.121891    2.465103
     75          1           0       -0.168367   -0.130235   -1.734041
     76          1           0       -1.251428   -1.415786   -1.895966
     77          1           0        1.371310   -1.866363   -1.845085
     78          1           0        0.301836   -3.012324   -0.976148
     79          1           0       -3.418897    6.352486    0.106165
     80          1           0       -2.489765    5.126400    0.916228
     81          1           0       -3.634351    5.917359    1.854784
     82          1           0       -5.608980    7.590181    1.438079
     83          1           0       -6.965283    8.019183    0.467241
     84          1           0       -5.623637    7.328267   -0.380075
     85          1           0      -10.425880    2.214012   -0.194557
     86          1           0      -10.389699   -0.825443    0.724542
     87          1           0      -11.141875    0.957481    2.223797
     88          1           0      -11.077693    2.596192    1.677033
     89          1           0       -9.694756    1.842649    2.569885
     90          1           0      -11.901226   -0.194475   -1.063045
     91          1           0      -10.881616   -1.638363   -1.382431
     92          1           0      -11.413779    0.571231   -3.154341
     93          1           0      -10.038454   -0.444652   -3.384884
     94          1           0       -9.740505    0.988912   -2.516849
     95          1           0       -7.456331   -5.650140   -1.729128
     96          1           0       -8.570330   -4.748109   -0.853947
     97          1           0       -7.284808   -5.618401    0.048590
     98          1           0       -2.215673   -3.774561   -1.342927
     99          1           0       -0.670438   -5.905904    2.097369
    100          1           0        0.031098   -4.410881    1.885643
    101          1           0        0.711121   -5.683356    1.037080
    102          1           0        4.189440   -2.348241    0.894586
    103          1           0        3.820440   -0.571202    1.479012
    104          1           0        5.028718   -0.060844   -0.824643
    105          1           0        7.697338   -2.437617    1.495659
    106          1           0        7.321103   -3.262540    0.019779
    107          1           0        6.078769   -2.897852    1.363402
    108          1           0        7.073906   -0.605660   -1.848932
    109          1           0        8.312395   -1.534597   -1.179707
    110          1           0        9.311219    0.254275   -0.623390
    111          1           0        8.238170    0.273047    0.744764
    112          1           0        7.255835    2.374582   -0.088287
    113          1           0        7.018923    1.763110   -1.689375
    114          1           0        9.651546    2.386732   -0.683870
    115          1           0        9.485327    4.769150   -1.313579
    116          1           0        7.802315    4.512608   -0.883883
    117          1           0        8.394508    4.441407   -2.560962
    118          1           0        8.684165    2.512209   -3.727114
    119          1           0        8.842330    1.049193   -2.932705
    120          1           0       11.235997    2.989191   -2.810976
    121          1           0       10.704414    2.343354   -4.314239
    122          1           0       11.692311    0.298253   -3.902225
    123          1           0       10.656403    0.051941   -2.632930
    124          1           0       12.304481    1.963820   -1.410451
    125          1           0       14.568089    0.241740   -2.072878
    126          1           0       14.297174    1.945500   -2.338899
    127          1           0       13.905136    0.969682   -3.542541
    128          1           0       13.256286   -0.661164   -0.668841
    129          1           0       11.645472   -0.881645   -0.949418
    130          1           0       10.853957    0.470197    0.821940
    131          1           0       12.273738    1.514474    0.852866
    132          1           0       13.823013    0.028809    1.920009
    133          1           0       12.810679   -1.365166    1.573812
    134          1           0       11.232650   -1.087326    3.004747
    135          1           0       10.399272    0.724025    3.906722
    136          1           0       11.566651    1.832764    3.146901
    137          1           0       11.946768    1.066159    4.696126
    138          1           0       12.275715   -1.622978    4.982592
    139          1           0       13.390019   -0.228555    4.907288
    140          1           0       13.751050   -1.566896    3.920725
 ---------------------------------------------------------------------

 SCF Done:  E(RB-LYP) =  -3007.33778217     A.U. after   20 cycles

 Excitation energies and oscillator strengths:

 Excited State   1:      Singlet-A      1.8368 eV  674.99 nm  f=0.3356  <S**2>=0.000
     245 -> 248        0.19195
     246 -> 247        0.69045
     246 <- 247       -0.15158
 This state for optimization and/or second-order correction.
 Total Energy, E(TD-HF/TD-DFT) =  -3007.27028011
 Copying the excited state density for this state as the 1-particle RhoCI density.

 Excited State   2:      Singlet-A      2.0180 eV  614.39 nm  f=0.0643  <S**2>=0.000
     243 -> 247        0.18943
     245 -> 247        0.62790
     246 -> 248       -0.22367

 Excited State   3:      Singlet-A      2.1064 eV  588.61 nm  f=0.0020  <S**2>=0.000
     244 -> 247        0.70289

 Excited State   4:      Singlet-A      2.1531 eV  575.83 nm  f=0.0051  <S**2>=0.000
     243 -> 247        0.67792
     245 -> 247       -0.15919
     246 -> 248        0.10625

 Excited State   5:      Singlet-A      2.4838 eV  499.18 nm  f=0.0004  <S**2>=0.000
     241 -> 247        0.49154
     242 -> 247        0.49926

 The electronic state is 1-A.
 Alpha  occ. eigenvalues --  -46.26720 -18.83209 -18.82131 -18.78108 -18.76004
 Alpha  occ. eigenvalues --  -18.75984 -18.74810 -14.03546 -14.02603 -14.00353
 Alpha  occ. eigenvalues --  -13.99947 -10.05498 -10.01970 -10.00284  -9.99454
 Alpha  occ. eigenvalues --   -9.98643  -9.96952  -9.96147  -9.96072  -9.95660
 Alpha  occ. eigenvalues --   -9.95179  -9.95173  -9.94750  -9.94671  -9.94407
 Alpha  occ. eigenvalues --   -9.94103  -9.93973  -9.93611  -9.93566  -9.93446
 Alpha  occ. eigenvalues --   -9.93372  -9.93178  -9.93173  -9.93158  -9.92953
 Alpha  occ. eigenvalues --   -9.92941  -9.92883  -9.92788  -9.92748  -9.92482
 Alpha  occ. eigenvalues --   -9.92456  -9.92330  -9.92306  -9.92236  -9.92098
 Alpha  occ. eigenvalues --   -9.92096  -9.92074  -9.92049  -9.92010  -9.91908
 Alpha  occ. eigenvalues --   -9.91761  -9.91739  -9.91637  -9.91605  -9.91561
 Alpha  occ. eigenvalues --   -9.91515  -9.91385  -9.91272  -9.91235  -9.91186
 Alpha  occ. eigenvalues --   -9.91034  -9.90968  -9.90928  -9.90555  -9.90441
 Alpha  occ. eigenvalues --   -9.90107  -2.91351  -1.71794  -1.71215  -1.71066
 Alpha  occ. eigenvalues --   -0.98409  -0.98139  -0.91933  -0.91790  -0.89745
 Alpha  occ. eigenvalues --   -0.88694  -0.87501  -0.86446  -0.86043  -0.85095
 Alpha  occ. eigenvalues --   -0.76206  -0.74464  -0.73068  -0.72798  -0.72037
 Alpha  occ. eigenvalues --   -0.71973  -0.71096  -0.70919  -0.70770  -0.69970
 Alpha  occ. eigenvalues --   -0.69533  -0.68963  -0.68213  -0.67668  -0.67093
 Alpha  occ. eigenvalues --   -0.66271  -0.65684  -0.65326  -0.65314  -0.64685
 Alpha  occ. eigenvalues --   -0.63881  -0.62395  -0.61822  -0.61315  -0.60828
 Alpha  occ. eigenvalues --   -0.60234  -0.59848  -0.59836  -0.59515  -0.59056
 Alpha  occ. eigenvalues --   -0.58642  -0.57720  -0.56918  -0.56053  -0.55044
 Alpha  occ. eigenvalues --   -0.54192  -0.54087  -0.52972  -0.52151  -0.51735
 Alpha  occ. eigenvalues --   -0.51613  -0.50820  -0.50470  -0.50027  -0.49904
 Alpha  occ. eigenvalues --   -0.49708  -0.49454  -0.48533  -0.48023  -0.46907
 Alpha  occ. eigenvalues --   -0.46541  -0.46239  -0.45742  -0.45207  -0.44508
 Alpha  occ. eigenvalues --   -0.43787  -0.43442  -0.42896  -0.42642  -0.42286
 Alpha  occ. eigenvalues --   -0.41980  -0.41493  -0.41148  -0.41116  -0.41094
 Alpha  occ. eigenvalues --   -0.40966  -0.40648  -0.40539  -0.40174  -0.40080
 Alpha  occ. eigenvalues --   -0.39880  -0.39727  -0.39552  -0.39455  -0.39259
 Alpha  occ. eigenvalues --   -0.38999  -0.38751  -0.38485  -0.38423  -0.37990
 Alpha  occ. eigenvalues --   -0.37786  -0.37740  -0.37493  -0.37269  -0.37012
 Alpha  occ. eigenvalues --   -0.36890  -0.36611  -0.36395  -0.36273  -0.36166
 Alpha  occ. eigenvalues --   -0.36086  -0.35945  -0.35872  -0.35706  -0.35548
 Alpha  occ. eigenvalues --   -0.35372  -0.35149  -0.34871  -0.34675  -0.34489
 Alpha  occ. eigenvalues --   -0.34413  -0.34333  -0.34248  -0.34029  -0.33861
 Alpha  occ. eigenvalues --   -0.33732  -0.33690  -0.33607  -0.33310  -0.33194
 Alpha  occ. eigenvalues --   -0.33060  -0.32975  -0.32748  -0.32661  -0.32294
 Alpha  occ. eigenvalues --   -0.32038  -0.31946  -0.31812  -0.31478  -0.31386
 Alpha  occ. eigenvalues --   -0.31305  -0.31006  -0.30868  -0.30798  -0.30714
 Alpha  occ. eigenvalues --   -0.30687  -0.30583  -0.30445  -0.30325  -0.29884
 Alpha  occ. eigenvalues --   -0.29785  -0.29625  -0.29334  -0.29073  -0.29008
 Alpha  occ. eigenvalues --   -0.28925  -0.28401  -0.28024  -0.27824  -0.27615
 Alpha  occ. eigenvalues --   -0.27525  -0.27107  -0.26898  -0.26736  -0.26392
 Alpha  occ. eigenvalues --   -0.26266  -0.25994  -0.25963  -0.25783  -0.25768
 Alpha  occ. eigenvalues --   -0.25387  -0.24520  -0.24280  -0.23849  -0.23199
 Alpha  occ. eigenvalues --   -0.22672  -0.22454  -0.21663  -0.20605  -0.20551
 Alpha  occ. eigenvalues --   -0.20321  -0.19866  -0.18886  -0.18822  -0.16991
 Alpha  occ. eigenvalues --   -0.15481
 Alpha virt. eigenvalues --   -0.11161  -0.06435  -0.05859  -0.04412  -0.04121
 Alpha virt. eigenvalues --   -0.02907  -0.02058  -0.01881  -0.00886   0.00350
 Alpha virt. eigenvalues --    0.01087   0.01717   0.02138   0.02529   0.02634

 Mulliken charges:
               1
     1  Mg   0.689287
     2  C   -0.010362
     3  C   -0.075013
     4  C   -0.046050
     5  C   -0.084697
     6  N   -0.205270
     7  C   -0.036926
     8  C    0.074306
     9  C   -0.069037
    10  C    0.013747
    11  C    0.125185
    12  C    0.159493
    13  C    0.092377
    14  C    0.101026
    15  O   -0.217680
    16  O   -0.275085
    17  N   -0.285047
    18  C    0.133675
    19  C   -0.138238
    20  C   -0.000226
    21  C    0.144566
    22  C    0.167152
    23  C   -0.052239
    24  O   -0.154095
    25  C    0.133554
    26  N   -0.198797
    27  C   -0.005498
    28  C    0.000537
    29  C    0.029154
    30  C    0.037109
    31  C    0.105505
    32  C    0.092769
    33  C    0.067205
    34  N   -0.190406
    35  C    0.052055
    36  C   -0.143375
    37  C    0.075160
    38  C    0.061542
    39  C    0.159325
    40  C   -0.013911
    41  O   -0.112143
    42  C    0.061392
    43  C    0.055556
    44  O   -0.204347
    45  O   -0.241729
    46  C    0.228099
    47  C    0.335841
    48  C   -0.123088
    49  C   -0.157816
    50  C    0.163832
    51  C    0.095945
    52  C    0.073287
    53  C    0.123095
    54  C   -0.082940
    55  C    0.124298
    56  C    0.078478
    57  C    0.103599
    58  C    0.099350
    59  C   -0.066543
    60  C    0.119078
    61  C    0.117195
    62  C    0.055466
    63  C    0.072739
    64  C   -0.114907
    65  C    0.115047
    66  C    0.106737
    67  H   -0.071066
    68  H   -0.049402
    69  H   -0.078426
    70  H   -0.003957
    71  H   -0.026936
    72  H    0.004927
    73  H   -0.010544
    74  H    0.019597
    75  H   -0.018395
    76  H   -0.024264
    77  H   -0.009424
    78  H    0.018238
    79  H    0.004481
    80  H   -0.032094
    81  H    0.002848
    82  H    0.011338
    83  H   -0.017287
    84  H    0.016386
    85  H   -0.013269
    86  H   -0.028581
    87  H   -0.015096
    88  H   -0.008901
    89  H    0.004013
    90  H   -0.020214
    91  H   -0.011698
    92  H   -0.004357
    93  H   -0.014480
    94  H    0.010069
    95  H    0.010368
    96  H   -0.031290
    97  H    0.017796
    98  H   -0.021799
    99  H    0.008169
   100  H    0.006646
   101  H   -0.000469
   102  H    0.005380
   103  H    0.015481
   104  H   -0.027820
   105  H   -0.006116
   106  H    0.008281
   107  H   -0.023001
   108  H   -0.025268
   109  H   -0.049698
   110  H   -0.000778
   111  H   -0.017048
   112  H   -0.044156
   113  H   -0.033943
   114  H   -0.024276
   115  H   -0.020459
   116  H   -0.018948
   117  H   -0.023346
   118  H   -0.038191
   119  H   -0.043381
   120  H   -0.026172
   121  H   -0.051916
   122  H   -0.036715
   123  H   -0.050927
   124  H   -0.029178
   125  H   -0.015239
   126  H   -0.038377
   127  H   -0.027543
   128  H   -0.044409
   129  H   -0.040361
   130  H   -0.020874
   131  H   -0.014258
   132  H   -0.022353
   133  H   -0.029566
   134  H   -0.036924
   135  H   -0.019737
   136  H   -0.010406
   137  H   -0.027235
   138  H   -0.006411
   139  H   -0.017885
   140  H   -0.027452
 Sum of Mulliken charges =  -0.00000

 Dipole moment (field-independent basis, Debye):
    X=              4.5481    Y=              3.5885    Z=             -2.0549  Tot=              6.1470
 Quadrupole moment (field-independent basis, Debye-Ang):
   XX=           -375.8823   YY=           -427.0104   ZZ=           -407.5988
   XY=              0.7587   XZ=              6.3005   YZ=              0.7654

 Normal termination of Gaussian 16 at Wed May  4 02:23:17 2022.
