 Gaussian 16, Revision A.03,
 Gaussian 16:  ES64L-G16RevA.03 25-Dec-2016

 -----------------------------------
 #p cam-b3lyp/Def2SVP td=(nstates=5)
 -----------------------------------

 --------------------------------------------------------
 step_1251_chromophore_19 TDDFT with cam-b3lyp functional
 --------------------------------------------------------
 Symbolic Z-matrix:
 Charge =  0 Multiplicity = 1

                         Standard orientation:
 ---------------------------------------------------------------------
 Center     Atomic      Atomic             Coordinates (Angstroms)
 Number     Number       Type             X           Y           Z
 ---------------------------------------------------------------------
      1         12           0       -5.689545    0.420997   -0.213527
      2          6           0       -3.488810   -2.286460   -0.437513
      3          6           0       -2.970208    2.474622    0.488108
      4          6           0       -7.829201    2.882057    0.471637
      5          6           0       -8.282046   -1.838132   -0.492400
      6          7           0       -3.558588    0.087758    0.135568
      7          6           0       -2.835570   -1.045467    0.012056
      8          6           0       -1.365653   -0.740502    0.099738
      9          6           0       -1.260217    0.712896    0.544719
     10          6           0       -2.654102    1.119683    0.321181
     11          6           0       -0.718354    0.985641    2.027556
     12          6           0       -0.507458   -1.020279   -1.204622
     13          6           0        0.662265   -1.984176   -1.025699
     14          6           0        1.712274   -1.865633    0.209859
     15          8           0        1.555984   -2.230131    1.397219
     16          8           0        2.876772   -1.302953   -0.262768
     17          7           0       -5.479657    2.433051    0.300417
     18          6           0       -4.279441    3.084956    0.499005
     19          6           0       -4.553565    4.487470    0.599036
     20          6           0       -5.976759    4.591184    0.616421
     21          6           0       -6.518890    3.266068    0.463350
     22          6           0       -3.492089    5.548007    0.839242
     23          6           0       -6.854234    5.939788    0.654206
     24          8           0       -8.068046    5.869136    0.565753
     25          6           0       -6.173355    7.276128    0.559639
     26          7           0       -7.781043    0.476923   -0.152097
     27          6           0       -8.402580    1.624196    0.219842
     28          6           0       -9.968284    1.398820    0.366226
     29          6           0      -10.117742   -0.147970   -0.084320
     30          6           0       -8.593565   -0.548143   -0.294402
     31          6           0      -10.464698    1.705066    1.810322
     32          6           0      -10.915466   -0.548353   -1.362872
     33          6           0      -10.504699    0.225718   -2.662628
     34          7           0       -5.911929   -1.692464   -0.474154
     35          6           0       -6.995189   -2.457554   -0.541069
     36          6           0       -6.624292   -3.835738   -0.689140
     37          6           0       -5.240997   -3.808352   -0.672441
     38          6           0       -4.836225   -2.476555   -0.533404
     39          6           0       -7.516585   -5.026105   -0.836576
     40          6           0       -4.103699   -4.684366   -0.577817
     41          8           0       -4.022765   -5.879659   -0.768795
     42          6           0       -2.905860   -3.649502   -0.508347
     43          6           0       -2.082695   -4.016212    0.591336
     44          8           0       -2.390577   -3.859936    1.761501
     45          8           0       -1.154551   -4.883145    0.186530
     46          6           0       -0.267330   -5.281122    1.301350
     47          6           0        3.992896   -1.296609    0.684563
     48          6           0        5.231284   -0.803833   -0.052947
     49          6           0        6.484667   -1.372520   -0.001304
     50          6           0        6.913029   -2.560890    0.748497
     51          6           0        7.561467   -0.797217   -0.893512
     52          6           0        8.273431    0.422265   -0.334564
     53          6           0        7.746481    1.805798   -0.879092
     54          6           0        8.894482    2.625518   -1.431003
     55          6           0        8.606589    4.159380   -1.529282
     56          6           0        9.214411    2.072071   -2.882124
     57          6           0       10.694344    2.147035   -3.242659
     58          6           0       11.370061    0.794359   -2.987377
     59          6           0       12.476218    0.966617   -1.816565
     60          6           0       13.844143    0.960525   -2.454584
     61          6           0       12.332975   -0.081403   -0.673902
     62          6           0       11.938435    0.487527    0.710657
     63          6           0       12.790003   -0.309170    1.846479
     64          6           0       12.053862   -0.395838    3.194495
     65          6           0       11.456947    0.920347    3.732988
     66          6           0       12.904756   -1.016207    4.331208
     67          1           0       -2.113824    3.140804    0.608145
     68          1           0       -8.616839    3.621133    0.632555
     69          1           0       -9.084783   -2.572124   -0.592269
     70          1           0       -0.940023   -1.214457    0.984553
     71          1           0       -0.660095    1.359025   -0.096884
     72          1           0       -1.617767    1.277613    2.569639
     73          1           0       -0.008676    1.804855    1.914432
     74          1           0       -0.217759    0.121891    2.465103
     75          1           0       -0.168367   -0.130235   -1.734041
     76          1           0       -1.251428   -1.415786   -1.895966
     77          1           0        1.371310   -1.866363   -1.845085
     78          1           0        0.301836   -3.012324   -0.976148
     79          1           0       -3.418897    6.352486    0.106165
     80          1           0       -2.489765    5.126400    0.916228
     81          1           0       -3.634351    5.917359    1.854784
     82          1           0       -5.608980    7.590181    1.438079
     83          1           0       -6.965283    8.019183    0.467241
     84          1           0       -5.623637    7.328267   -0.380075
     85          1           0      -10.425880    2.214012   -0.194557
     86          1           0      -10.389699   -0.825443    0.724542
     87          1           0      -11.141875    0.957481    2.223797
     88          1           0      -11.077693    2.596192    1.677033
     89          1           0       -9.694756    1.842649    2.569885
     90          1           0      -11.901226   -0.194475   -1.063045
     91          1           0      -10.881616   -1.638363   -1.382431
     92          1           0      -11.413779    0.571231   -3.154341
     93          1           0      -10.038454   -0.444652   -3.384884
     94          1           0       -9.740505    0.988912   -2.516849
     95          1           0       -7.456331   -5.650140   -1.729128
     96          1           0       -8.570330   -4.748109   -0.853947
     97          1           0       -7.284808   -5.618401    0.048590
     98          1           0       -2.215673   -3.774561   -1.342927
     99          1           0       -0.670438   -5.905904    2.097369
    100          1           0        0.031098   -4.410881    1.885643
    101          1           0        0.711121   -5.683356    1.037080
    102          1           0        4.189440   -2.348241    0.894586
    103          1           0        3.820440   -0.571202    1.479012
    104          1           0        5.028718   -0.060844   -0.824643
    105          1           0        7.697338   -2.437617    1.495659
    106          1           0        7.321103   -3.262540    0.019779
    107          1           0        6.078769   -2.897852    1.363402
    108          1           0        7.073906   -0.605660   -1.848932
    109          1           0        8.312395   -1.534597   -1.179707
    110          1           0        9.311219    0.254275   -0.623390
    111          1           0        8.238170    0.273047    0.744764
    112          1           0        7.255835    2.374582   -0.088287
    113          1           0        7.018923    1.763110   -1.689375
    114          1           0        9.651546    2.386732   -0.683870
    115          1           0        9.485327    4.769150   -1.313579
    116          1           0        7.802315    4.512608   -0.883883
    117          1           0        8.394508    4.441407   -2.560962
    118          1           0        8.684165    2.512209   -3.727114
    119          1           0        8.842330    1.049193   -2.932705
    120          1           0       11.235997    2.989191   -2.810976
    121          1           0       10.704414    2.343354   -4.314239
    122          1           0       11.692311    0.298253   -3.902225
    123          1           0       10.656403    0.051941   -2.632930
    124          1           0       12.304481    1.963820   -1.410451
    125          1           0       14.568089    0.241740   -2.072878
    126          1           0       14.297174    1.945500   -2.338899
    127          1           0       13.905136    0.969682   -3.542541
    128          1           0       13.256286   -0.661164   -0.668841
    129          1           0       11.645472   -0.881645   -0.949418
    130          1           0       10.853957    0.470197    0.821940
    131          1           0       12.273738    1.514474    0.852866
    132          1           0       13.823013    0.028809    1.920009
    133          1           0       12.810679   -1.365166    1.573812
    134          1           0       11.232650   -1.087326    3.004747
    135          1           0       10.399272    0.724025    3.906722
    136          1           0       11.566651    1.832764    3.146901
    137          1           0       11.946768    1.066159    4.696126
    138          1           0       12.275715   -1.622978    4.982592
    139          1           0       13.390019   -0.228555    4.907288
    140          1           0       13.751050   -1.566896    3.920725
 ---------------------------------------------------------------------

 SCF Done:  E(RCAM-B3LYP) =  -3007.13873549     A.U. after   17 cycles

 Excitation energies and oscillator strengths:

 Excited State   1:      Singlet-A      1.7345 eV  714.82 nm  f=0.4154  <S**2>=0.000
     245 -> 248        0.17899
     246 -> 247        0.68532
     245 <- 248        0.10693
 This state for optimization and/or second-order correction.
 Total Energy, E(TD-HF/TD-DFT) =  -3007.07499455
 Copying the excited state density for this state as the 1-particle RhoCI density.

 Excited State   2:      Singlet-A      2.2623 eV  548.04 nm  f=0.1047  <S**2>=0.000
     245 -> 247        0.63618
     246 -> 248       -0.29551

 Excited State   3:      Singlet-A      3.4069 eV  363.92 nm  f=0.0039  <S**2>=0.000
     243 -> 247       -0.11557
     244 -> 247        0.68203

 Excited State   4:      Singlet-A      3.4876 eV  355.50 nm  f=0.1600  <S**2>=0.000
     239 -> 247        0.31745
     239 -> 249       -0.19343
     241 -> 247        0.39055
     241 -> 249       -0.16666
     245 -> 247        0.13407
     246 -> 248        0.31426

 Excited State   5:      Singlet-A      3.5140 eV  352.83 nm  f=0.2154  <S**2>=0.000
     239 -> 247       -0.10731
     243 -> 247        0.49869
     245 -> 247        0.15747
     246 -> 248        0.42274

 The electronic state is 1-A.
 Alpha  occ. eigenvalues --  -46.88228 -19.26099 -19.25314 -19.21126 -19.19308
 Alpha  occ. eigenvalues --  -19.19130 -19.18124 -14.42600 -14.41241 -14.38667
 Alpha  occ. eigenvalues --  -14.38361 -10.41002 -10.37507 -10.35442 -10.34947
 Alpha  occ. eigenvalues --  -10.32719 -10.31648 -10.30457 -10.30296 -10.29949
 Alpha  occ. eigenvalues --  -10.29480 -10.29294 -10.29066 -10.28819 -10.28628
 Alpha  occ. eigenvalues --  -10.28129 -10.27905 -10.27741 -10.27695 -10.27607
 Alpha  occ. eigenvalues --  -10.27569 -10.27551 -10.27518 -10.27476 -10.27056
 Alpha  occ. eigenvalues --  -10.26945 -10.26914 -10.26792 -10.26521 -10.26469
 Alpha  occ. eigenvalues --  -10.26463 -10.26364 -10.26084 -10.26056 -10.25991
 Alpha  occ. eigenvalues --  -10.25938 -10.25852 -10.25798 -10.25763 -10.25615
 Alpha  occ. eigenvalues --  -10.25484 -10.25464 -10.25372 -10.25270 -10.25228
 Alpha  occ. eigenvalues --  -10.25186 -10.25177 -10.24947 -10.24927 -10.24786
 Alpha  occ. eigenvalues --  -10.24662 -10.24636 -10.24539 -10.24288 -10.24140
 Alpha  occ. eigenvalues --  -10.23999  -3.16764  -1.91684  -1.91209  -1.91065
 Alpha  occ. eigenvalues --   -1.17204  -1.16559  -1.10321  -1.10278  -1.07618
 Alpha  occ. eigenvalues --   -1.06871  -1.05327  -1.04200  -1.03604  -1.02513
 Alpha  occ. eigenvalues --   -0.93560  -0.91390  -0.89863  -0.89591  -0.88733
 Alpha  occ. eigenvalues --   -0.88647  -0.87693  -0.87484  -0.87312  -0.86557
 Alpha  occ. eigenvalues --   -0.86021  -0.85314  -0.84510  -0.83927  -0.83184
 Alpha  occ. eigenvalues --   -0.82309  -0.81640  -0.81432  -0.81192  -0.80528
 Alpha  occ. eigenvalues --   -0.79761  -0.78104  -0.77405  -0.76784  -0.76200
 Alpha  occ. eigenvalues --   -0.75646  -0.75171  -0.75100  -0.74804  -0.74199
 Alpha  occ. eigenvalues --   -0.73786  -0.72787  -0.71830  -0.70908  -0.69662
 Alpha  occ. eigenvalues --   -0.68821  -0.68712  -0.67353  -0.66522  -0.66005
 Alpha  occ. eigenvalues --   -0.65794  -0.64765  -0.64528  -0.64069  -0.63935
 Alpha  occ. eigenvalues --   -0.63556  -0.63382  -0.62401  -0.61860  -0.60437
 Alpha  occ. eigenvalues --   -0.60092  -0.59959  -0.59387  -0.58592  -0.57777
 Alpha  occ. eigenvalues --   -0.57610  -0.56793  -0.56180  -0.55966  -0.55595
 Alpha  occ. eigenvalues --   -0.55128  -0.54720  -0.54327  -0.54044  -0.53836
 Alpha  occ. eigenvalues --   -0.53763  -0.53621  -0.53199  -0.52812  -0.52723
 Alpha  occ. eigenvalues --   -0.52593  -0.52410  -0.52219  -0.52106  -0.51927
 Alpha  occ. eigenvalues --   -0.51744  -0.51342  -0.51070  -0.50836  -0.50368
 Alpha  occ. eigenvalues --   -0.50188  -0.50029  -0.49974  -0.49843  -0.49414
 Alpha  occ. eigenvalues --   -0.49198  -0.48988  -0.48787  -0.48632  -0.48415
 Alpha  occ. eigenvalues --   -0.48278  -0.48147  -0.48110  -0.47966  -0.47754
 Alpha  occ. eigenvalues --   -0.47420  -0.47286  -0.47013  -0.46666  -0.46527
 Alpha  occ. eigenvalues --   -0.46282  -0.46196  -0.45979  -0.45921  -0.45591
 Alpha  occ. eigenvalues --   -0.45537  -0.45367  -0.45256  -0.45112  -0.45038
 Alpha  occ. eigenvalues --   -0.44813  -0.44681  -0.44539  -0.44483  -0.43795
 Alpha  occ. eigenvalues --   -0.43682  -0.43452  -0.43365  -0.43134  -0.42841
 Alpha  occ. eigenvalues --   -0.42783  -0.42673  -0.42458  -0.42267  -0.42166
 Alpha  occ. eigenvalues --   -0.42101  -0.41965  -0.41835  -0.41607  -0.41547
 Alpha  occ. eigenvalues --   -0.41238  -0.41008  -0.40640  -0.40375  -0.40111
 Alpha  occ. eigenvalues --   -0.40097  -0.39390  -0.39017  -0.38694  -0.38530
 Alpha  occ. eigenvalues --   -0.38432  -0.38125  -0.37731  -0.37685  -0.37480
 Alpha  occ. eigenvalues --   -0.37128  -0.37118  -0.36626  -0.36616  -0.36378
 Alpha  occ. eigenvalues --   -0.36326  -0.36192  -0.34718  -0.34335  -0.33544
 Alpha  occ. eigenvalues --   -0.33542  -0.33438  -0.32797  -0.31172  -0.30814
 Alpha  occ. eigenvalues --   -0.30522  -0.30179  -0.29875  -0.29186  -0.23761
 Alpha  occ. eigenvalues --   -0.20731
 Alpha virt. eigenvalues --   -0.08230  -0.01257   0.00784   0.02870   0.03065
 Alpha virt. eigenvalues --    0.03428   0.04541   0.05528   0.05812   0.07044
 Alpha virt. eigenvalues --    0.07338   0.08084   0.08820   0.08874   0.09475

 Mulliken charges:
               1
     1  Mg   0.823790
     2  C   -0.023658
     3  C   -0.081375
     4  C   -0.065308
     5  C   -0.091739
     6  N   -0.272990
     7  C    0.014689
     8  C    0.001182
     9  C   -0.114836
    10  C    0.027099
    11  C    0.070655
    12  C    0.105931
    13  C    0.032785
    14  C    0.177439
    15  O   -0.260717
    16  O   -0.339905
    17  N   -0.374802
    18  C    0.137731
    19  C   -0.148185
    20  C   -0.061185
    21  C    0.160824
    22  C    0.111225
    23  C    0.027977
    24  O   -0.195311
    25  C    0.048903
    26  N   -0.277945
    27  C    0.017138
    28  C   -0.053918
    29  C   -0.020802
    30  C    0.054519
    31  C    0.048606
    32  C    0.041394
    33  C    0.002639
    34  N   -0.281411
    35  C    0.060729
    36  C   -0.148167
    37  C    0.005117
    38  C    0.091358
    39  C    0.113281
    40  C    0.083636
    41  O   -0.148049
    42  C   -0.023336
    43  C    0.139515
    44  O   -0.236825
    45  O   -0.302341
    46  C    0.182744
    47  C    0.300360
    48  C   -0.138600
    49  C   -0.179895
    50  C    0.100475
    51  C    0.037732
    52  C    0.025526
    53  C    0.069207
    54  C   -0.135760
    55  C    0.066759
    56  C    0.024315
    57  C    0.045004
    58  C    0.050557
    59  C   -0.123908
    60  C    0.059389
    61  C    0.062379
    62  C    0.004028
    63  C    0.024925
    64  C   -0.169008
    65  C    0.050828
    66  C    0.045823
    67  H   -0.035538
    68  H   -0.008606
    69  H   -0.044823
    70  H    0.031687
    71  H    0.008004
    72  H    0.031082
    73  H    0.012196
    74  H    0.042256
    75  H    0.013370
    76  H    0.008090
    77  H    0.027330
    78  H    0.043557
    79  H    0.029389
    80  H   -0.003981
    81  H    0.028263
    82  H    0.039164
    83  H    0.018438
    84  H    0.042924
    85  H    0.020468
    86  H    0.007876
    87  H    0.009319
    88  H    0.014310
    89  H    0.029773
    90  H    0.008005
    91  H    0.014432
    92  H    0.019683
    93  H    0.009983
    94  H    0.031063
    95  H    0.037519
    96  H   -0.005482
    97  H    0.043100
    98  H    0.022478
    99  H    0.035025
   100  H    0.032748
   101  H    0.025304
   102  H    0.032409
   103  H    0.043485
   104  H    0.005886
   105  H    0.019058
   106  H    0.032109
   107  H    0.001137
   108  H    0.004506
   109  H   -0.017783
   110  H    0.017043
   111  H    0.009791
   112  H   -0.012785
   113  H   -0.006966
   114  H    0.003330
   115  H    0.003994
   116  H    0.005807
   117  H    0.000738
   118  H   -0.007741
   119  H   -0.016127
   120  H    0.000449
   121  H   -0.019287
   122  H   -0.006309
   123  H   -0.025838
   124  H    0.001139
   125  H    0.009149
   126  H   -0.012786
   127  H   -0.002081
   128  H   -0.013545
   129  H   -0.012891
   130  H    0.003013
   131  H    0.011508
   132  H    0.004831
   133  H   -0.002277
   134  H   -0.006954
   135  H    0.004568
   136  H    0.013376
   137  H   -0.002092
   138  H    0.018277
   139  H    0.005280
   140  H   -0.002064
 Sum of Mulliken charges =  -0.00000

 Dipole moment (field-independent basis, Debye):
    X=              4.8708    Y=              3.7185    Z=             -2.1142  Tot=              6.4825
 Quadrupole moment (field-independent basis, Debye-Ang):
   XX=           -375.8710   YY=           -422.5972   ZZ=           -407.5755
   XY=             -0.0945   XZ=              6.1838   YZ=              1.0792

 Normal termination of Gaussian 16 at Wed May  4 01:22:21 2022.
