 Gaussian 16, Revision A.03,
 Gaussian 16:  ES64L-G16RevA.03 25-Dec-2016

 ---------------------------------
 #p PBE1PBE/Def2SVP td=(nstates=5)
 ---------------------------------

 ------------------------------------------------------
 step_1251_chromophore_19 TDDFT with PBE1PBE functional
 ------------------------------------------------------
 Symbolic Z-matrix:
 Charge =  0 Multiplicity = 1

                         Standard orientation:
 ---------------------------------------------------------------------
 Center     Atomic      Atomic             Coordinates (Angstroms)
 Number     Number       Type             X           Y           Z
 ---------------------------------------------------------------------
      1         12           0       -5.689545    0.420997   -0.213527
      2          6           0       -3.488810   -2.286460   -0.437513
      3          6           0       -2.970208    2.474622    0.488108
      4          6           0       -7.829201    2.882057    0.471637
      5          6           0       -8.282046   -1.838132   -0.492400
      6          7           0       -3.558588    0.087758    0.135568
      7          6           0       -2.835570   -1.045467    0.012056
      8          6           0       -1.365653   -0.740502    0.099738
      9          6           0       -1.260217    0.712896    0.544719
     10          6           0       -2.654102    1.119683    0.321181
     11          6           0       -0.718354    0.985641    2.027556
     12          6           0       -0.507458   -1.020279   -1.204622
     13          6           0        0.662265   -1.984176   -1.025699
     14          6           0        1.712274   -1.865633    0.209859
     15          8           0        1.555984   -2.230131    1.397219
     16          8           0        2.876772   -1.302953   -0.262768
     17          7           0       -5.479657    2.433051    0.300417
     18          6           0       -4.279441    3.084956    0.499005
     19          6           0       -4.553565    4.487470    0.599036
     20          6           0       -5.976759    4.591184    0.616421
     21          6           0       -6.518890    3.266068    0.463350
     22          6           0       -3.492089    5.548007    0.839242
     23          6           0       -6.854234    5.939788    0.654206
     24          8           0       -8.068046    5.869136    0.565753
     25          6           0       -6.173355    7.276128    0.559639
     26          7           0       -7.781043    0.476923   -0.152097
     27          6           0       -8.402580    1.624196    0.219842
     28          6           0       -9.968284    1.398820    0.366226
     29          6           0      -10.117742   -0.147970   -0.084320
     30          6           0       -8.593565   -0.548143   -0.294402
     31          6           0      -10.464698    1.705066    1.810322
     32          6           0      -10.915466   -0.548353   -1.362872
     33          6           0      -10.504699    0.225718   -2.662628
     34          7           0       -5.911929   -1.692464   -0.474154
     35          6           0       -6.995189   -2.457554   -0.541069
     36          6           0       -6.624292   -3.835738   -0.689140
     37          6           0       -5.240997   -3.808352   -0.672441
     38          6           0       -4.836225   -2.476555   -0.533404
     39          6           0       -7.516585   -5.026105   -0.836576
     40          6           0       -4.103699   -4.684366   -0.577817
     41          8           0       -4.022765   -5.879659   -0.768795
     42          6           0       -2.905860   -3.649502   -0.508347
     43          6           0       -2.082695   -4.016212    0.591336
     44          8           0       -2.390577   -3.859936    1.761501
     45          8           0       -1.154551   -4.883145    0.186530
     46          6           0       -0.267330   -5.281122    1.301350
     47          6           0        3.992896   -1.296609    0.684563
     48          6           0        5.231284   -0.803833   -0.052947
     49          6           0        6.484667   -1.372520   -0.001304
     50          6           0        6.913029   -2.560890    0.748497
     51          6           0        7.561467   -0.797217   -0.893512
     52          6           0        8.273431    0.422265   -0.334564
     53          6           0        7.746481    1.805798   -0.879092
     54          6           0        8.894482    2.625518   -1.431003
     55          6           0        8.606589    4.159380   -1.529282
     56          6           0        9.214411    2.072071   -2.882124
     57          6           0       10.694344    2.147035   -3.242659
     58          6           0       11.370061    0.794359   -2.987377
     59          6           0       12.476218    0.966617   -1.816565
     60          6           0       13.844143    0.960525   -2.454584
     61          6           0       12.332975   -0.081403   -0.673902
     62          6           0       11.938435    0.487527    0.710657
     63          6           0       12.790003   -0.309170    1.846479
     64          6           0       12.053862   -0.395838    3.194495
     65          6           0       11.456947    0.920347    3.732988
     66          6           0       12.904756   -1.016207    4.331208
     67          1           0       -2.113824    3.140804    0.608145
     68          1           0       -8.616839    3.621133    0.632555
     69          1           0       -9.084783   -2.572124   -0.592269
     70          1           0       -0.940023   -1.214457    0.984553
     71          1           0       -0.660095    1.359025   -0.096884
     72          1           0       -1.617767    1.277613    2.569639
     73          1           0       -0.008676    1.804855    1.914432
     74          1           0       -0.217759    0.121891    2.465103
     75          1           0       -0.168367   -0.130235   -1.734041
     76          1           0       -1.251428   -1.415786   -1.895966
     77          1           0        1.371310   -1.866363   -1.845085
     78          1           0        0.301836   -3.012324   -0.976148
     79          1           0       -3.418897    6.352486    0.106165
     80          1           0       -2.489765    5.126400    0.916228
     81          1           0       -3.634351    5.917359    1.854784
     82          1           0       -5.608980    7.590181    1.438079
     83          1           0       -6.965283    8.019183    0.467241
     84          1           0       -5.623637    7.328267   -0.380075
     85          1           0      -10.425880    2.214012   -0.194557
     86          1           0      -10.389699   -0.825443    0.724542
     87          1           0      -11.141875    0.957481    2.223797
     88          1           0      -11.077693    2.596192    1.677033
     89          1           0       -9.694756    1.842649    2.569885
     90          1           0      -11.901226   -0.194475   -1.063045
     91          1           0      -10.881616   -1.638363   -1.382431
     92          1           0      -11.413779    0.571231   -3.154341
     93          1           0      -10.038454   -0.444652   -3.384884
     94          1           0       -9.740505    0.988912   -2.516849
     95          1           0       -7.456331   -5.650140   -1.729128
     96          1           0       -8.570330   -4.748109   -0.853947
     97          1           0       -7.284808   -5.618401    0.048590
     98          1           0       -2.215673   -3.774561   -1.342927
     99          1           0       -0.670438   -5.905904    2.097369
    100          1           0        0.031098   -4.410881    1.885643
    101          1           0        0.711121   -5.683356    1.037080
    102          1           0        4.189440   -2.348241    0.894586
    103          1           0        3.820440   -0.571202    1.479012
    104          1           0        5.028718   -0.060844   -0.824643
    105          1           0        7.697338   -2.437617    1.495659
    106          1           0        7.321103   -3.262540    0.019779
    107          1           0        6.078769   -2.897852    1.363402
    108          1           0        7.073906   -0.605660   -1.848932
    109          1           0        8.312395   -1.534597   -1.179707
    110          1           0        9.311219    0.254275   -0.623390
    111          1           0        8.238170    0.273047    0.744764
    112          1           0        7.255835    2.374582   -0.088287
    113          1           0        7.018923    1.763110   -1.689375
    114          1           0        9.651546    2.386732   -0.683870
    115          1           0        9.485327    4.769150   -1.313579
    116          1           0        7.802315    4.512608   -0.883883
    117          1           0        8.394508    4.441407   -2.560962
    118          1           0        8.684165    2.512209   -3.727114
    119          1           0        8.842330    1.049193   -2.932705
    120          1           0       11.235997    2.989191   -2.810976
    121          1           0       10.704414    2.343354   -4.314239
    122          1           0       11.692311    0.298253   -3.902225
    123          1           0       10.656403    0.051941   -2.632930
    124          1           0       12.304481    1.963820   -1.410451
    125          1           0       14.568089    0.241740   -2.072878
    126          1           0       14.297174    1.945500   -2.338899
    127          1           0       13.905136    0.969682   -3.542541
    128          1           0       13.256286   -0.661164   -0.668841
    129          1           0       11.645472   -0.881645   -0.949418
    130          1           0       10.853957    0.470197    0.821940
    131          1           0       12.273738    1.514474    0.852866
    132          1           0       13.823013    0.028809    1.920009
    133          1           0       12.810679   -1.365166    1.573812
    134          1           0       11.232650   -1.087326    3.004747
    135          1           0       10.399272    0.724025    3.906722
    136          1           0       11.566651    1.832764    3.146901
    137          1           0       11.946768    1.066159    4.696126
    138          1           0       12.275715   -1.622978    4.982592
    139          1           0       13.390019   -0.228555    4.907288
    140          1           0       13.751050   -1.566896    3.920725
 ---------------------------------------------------------------------

 SCF Done:  E(RPBE1PBE) =  -3005.32771297     A.U. after   15 cycles

 Excitation energies and oscillator strengths:

 Excited State   1:      Singlet-A      1.8873 eV  656.94 nm  f=0.4020  <S**2>=0.000
     245 -> 248        0.17302
     246 -> 247        0.69289
     246 <- 247       -0.10918
 This state for optimization and/or second-order correction.
 Total Energy, E(TD-HF/TD-DFT) =  -3005.25835575
 Copying the excited state density for this state as the 1-particle RhoCI density.

 Excited State   2:      Singlet-A      2.2620 eV  548.11 nm  f=0.1026  <S**2>=0.000
     245 -> 247        0.64940
     246 -> 248       -0.26660

 Excited State   3:      Singlet-A      3.0507 eV  406.41 nm  f=0.0065  <S**2>=0.000
     240 -> 247       -0.17295
     243 -> 247        0.14193
     244 -> 247        0.65875

 Excited State   4:      Singlet-A      3.0720 eV  403.60 nm  f=0.0021  <S**2>=0.000
     239 -> 247       -0.11371
     240 -> 247       -0.36604
     240 -> 249        0.10734
     243 -> 247        0.50444
     244 -> 247       -0.23602

 Excited State   5:      Singlet-A      3.2382 eV  382.88 nm  f=0.0014  <S**2>=0.000
     241 -> 247        0.67281
     241 -> 249        0.15767
     241 -> 250        0.10500

 The electronic state is 1-A.
 Alpha  occ. eigenvalues --  -46.91624 -19.26803 -19.25829 -19.21406 -19.19429
 Alpha  occ. eigenvalues --  -19.19401 -19.18224 -14.42032 -14.40815 -14.38382
 Alpha  occ. eigenvalues --  -14.37940 -10.38078 -10.34361 -10.32670 -10.31986
 Alpha  occ. eigenvalues --  -10.30114 -10.29330 -10.28264 -10.27751 -10.27475
 Alpha  occ. eigenvalues --  -10.27170 -10.27128 -10.26659 -10.26529 -10.26077
 Alpha  occ. eigenvalues --  -10.25787 -10.25714 -10.25445 -10.25388 -10.25325
 Alpha  occ. eigenvalues --  -10.25320 -10.25305 -10.25239 -10.25041 -10.24890
 Alpha  occ. eigenvalues --  -10.24581 -10.24416 -10.24261 -10.24210 -10.24124
 Alpha  occ. eigenvalues --  -10.24040 -10.23906 -10.23765 -10.23531 -10.23523
 Alpha  occ. eigenvalues --  -10.23491 -10.23405 -10.23374 -10.23270 -10.23217
 Alpha  occ. eigenvalues --  -10.23145 -10.23045 -10.22975 -10.22946 -10.22755
 Alpha  occ. eigenvalues --  -10.22710 -10.22691 -10.22542 -10.22511 -10.22266
 Alpha  occ. eigenvalues --  -10.22185 -10.22177 -10.21942 -10.21889 -10.21528
 Alpha  occ. eigenvalues --  -10.21385  -3.13740  -1.86601  -1.86104  -1.85963
 Alpha  occ. eigenvalues --   -1.11868  -1.11375  -1.05078  -1.04978  -1.02462
 Alpha  occ. eigenvalues --   -1.01550  -0.99962  -0.98806  -0.98285  -0.97273
 Alpha  occ. eigenvalues --   -0.87854  -0.85510  -0.83993  -0.83801  -0.83015
 Alpha  occ. eigenvalues --   -0.82820  -0.81992  -0.81622  -0.81576  -0.80845
 Alpha  occ. eigenvalues --   -0.80306  -0.79573  -0.78740  -0.78165  -0.77415
 Alpha  occ. eigenvalues --   -0.76559  -0.75876  -0.75630  -0.75442  -0.74669
 Alpha  occ. eigenvalues --   -0.74078  -0.72376  -0.71727  -0.71065  -0.70364
 Alpha  occ. eigenvalues --   -0.69941  -0.69427  -0.69260  -0.68936  -0.68441
 Alpha  occ. eigenvalues --   -0.68016  -0.67216  -0.66273  -0.65203  -0.64015
 Alpha  occ. eigenvalues --   -0.63267  -0.62941  -0.61634  -0.60948  -0.60368
 Alpha  occ. eigenvalues --   -0.60179  -0.59313  -0.58641  -0.58582  -0.58417
 Alpha  occ. eigenvalues --   -0.58063  -0.57571  -0.56590  -0.56382  -0.54831
 Alpha  occ. eigenvalues --   -0.54702  -0.54421  -0.53941  -0.53238  -0.52080
 Alpha  occ. eigenvalues --   -0.51913  -0.51347  -0.50730  -0.50455  -0.50178
 Alpha  occ. eigenvalues --   -0.49668  -0.49345  -0.48865  -0.48565  -0.48296
 Alpha  occ. eigenvalues --   -0.48177  -0.48117  -0.47656  -0.47360  -0.47275
 Alpha  occ. eigenvalues --   -0.47027  -0.46871  -0.46698  -0.46656  -0.46421
 Alpha  occ. eigenvalues --   -0.46333  -0.45785  -0.45588  -0.45387  -0.44965
 Alpha  occ. eigenvalues --   -0.44763  -0.44604  -0.44546  -0.44453  -0.44063
 Alpha  occ. eigenvalues --   -0.43830  -0.43579  -0.43421  -0.43271  -0.43022
 Alpha  occ. eigenvalues --   -0.42870  -0.42695  -0.42684  -0.42601  -0.42383
 Alpha  occ. eigenvalues --   -0.42062  -0.41976  -0.41679  -0.41286  -0.41131
 Alpha  occ. eigenvalues --   -0.40956  -0.40858  -0.40696  -0.40499  -0.40381
 Alpha  occ. eigenvalues --   -0.40230  -0.40182  -0.39932  -0.39845  -0.39699
 Alpha  occ. eigenvalues --   -0.39521  -0.39343  -0.39236  -0.39198  -0.38504
 Alpha  occ. eigenvalues --   -0.38358  -0.38336  -0.38150  -0.37880  -0.37629
 Alpha  occ. eigenvalues --   -0.37556  -0.37434  -0.37303  -0.37051  -0.36995
 Alpha  occ. eigenvalues --   -0.36930  -0.36769  -0.36608  -0.36469  -0.36234
 Alpha  occ. eigenvalues --   -0.36068  -0.35750  -0.35586  -0.35193  -0.34864
 Alpha  occ. eigenvalues --   -0.34831  -0.34134  -0.33960  -0.33569  -0.33460
 Alpha  occ. eigenvalues --   -0.33240  -0.33108  -0.32707  -0.32449  -0.32281
 Alpha  occ. eigenvalues --   -0.32092  -0.31947  -0.31694  -0.31520  -0.31408
 Alpha  occ. eigenvalues --   -0.31305  -0.31016  -0.29642  -0.29252  -0.28937
 Alpha  occ. eigenvalues --   -0.28640  -0.28516  -0.27623  -0.26560  -0.25755
 Alpha  occ. eigenvalues --   -0.25687  -0.25501  -0.25319  -0.24830  -0.20687
 Alpha  occ. eigenvalues --   -0.18388
 Alpha virt. eigenvalues --   -0.10719  -0.04762  -0.03475  -0.01474  -0.01227
 Alpha virt. eigenvalues --    0.00070   0.00270   0.01036   0.01805   0.03429
 Alpha virt. eigenvalues --    0.03863   0.04251   0.05225   0.05475   0.05559

 Mulliken charges:
               1
     1  Mg   0.970297
     2  C   -0.024039
     3  C   -0.072774
     4  C   -0.054698
     5  C   -0.080424
     6  N   -0.380414
     7  C    0.098640
     8  C   -0.084522
     9  C   -0.176267
    10  C    0.059793
    11  C    0.012426
    12  C    0.054251
    13  C   -0.045550
    14  C    0.240152
    15  O   -0.292099
    16  O   -0.369683
    17  N   -0.495179
    18  C    0.166070
    19  C   -0.178321
    20  C   -0.101740
    21  C    0.187230
    22  C    0.052011
    23  C    0.078793
    24  O   -0.230982
    25  C   -0.023928
    26  N   -0.390741
    27  C    0.051976
    28  C   -0.129950
    29  C   -0.089410
    30  C    0.090678
    31  C   -0.005011
    32  C   -0.024115
    33  C   -0.069460
    34  N   -0.413726
    35  C    0.091988
    36  C   -0.179084
    37  C   -0.038409
    38  C    0.133607
    39  C    0.065805
    40  C    0.179614
    41  O   -0.195046
    42  C   -0.134072
    43  C    0.231144
    44  O   -0.271164
    45  O   -0.335898
    46  C    0.123792
    47  C    0.257000
    48  C   -0.144148
    49  C   -0.227640
    50  C    0.038939
    51  C   -0.019806
    52  C   -0.050151
    53  C    0.018473
    54  C   -0.229788
    55  C    0.011325
    56  C   -0.032983
    57  C   -0.018304
    58  C    0.000106
    59  C   -0.212002
    60  C    0.006638
    61  C    0.011003
    62  C   -0.067115
    63  C   -0.028935
    64  C   -0.259099
    65  C   -0.009808
    66  C   -0.017165
    67  H   -0.004010
    68  H    0.023771
    69  H   -0.010804
    70  H    0.072655
    71  H    0.044924
    72  H    0.059843
    73  H    0.039200
    74  H    0.068711
    75  H    0.043585
    76  H    0.042427
    77  H    0.059645
    78  H    0.079453
    79  H    0.055978
    80  H    0.024572
    81  H    0.056593
    82  H    0.064804
    83  H    0.046577
    84  H    0.069496
    85  H    0.055800
    86  H    0.045382
    87  H    0.037478
    88  H    0.041138
    89  H    0.056887
    90  H    0.042951
    91  H    0.045954
    92  H    0.047153
    93  H    0.038691
    94  H    0.059345
    95  H    0.063391
    96  H    0.021222
    97  H    0.070187
    98  H    0.059877
    99  H    0.057714
   100  H    0.056320
   101  H    0.047484
   102  H    0.059385
   103  H    0.070438
   104  H    0.035204
   105  H    0.046205
   106  H    0.059470
   107  H    0.028427
   108  H    0.035828
   109  H    0.013966
   110  H    0.057353
   111  H    0.043130
   112  H    0.020510
   113  H    0.024941
   114  H    0.045143
   115  H    0.031378
   116  H    0.032341
   117  H    0.027822
   118  H    0.023550
   119  H    0.019776
   120  H    0.031755
   121  H    0.015486
   122  H    0.024618
   123  H    0.005600
   124  H    0.037793
   125  H    0.034989
   126  H    0.015056
   127  H    0.024655
   128  H    0.018351
   129  H    0.018944
   130  H    0.040019
   131  H    0.044093
   132  H    0.036248
   133  H    0.031840
   134  H    0.030852
   135  H    0.032415
   136  H    0.040086
   137  H    0.025245
   138  H    0.046069
   139  H    0.032626
   140  H    0.025899
 Sum of Mulliken charges =  -0.00000

 Dipole moment (field-independent basis, Debye):
    X=              4.7892    Y=              3.9223    Z=             -2.0939  Tot=              6.5349
 Quadrupole moment (field-independent basis, Debye-Ang):
   XX=           -369.1458   YY=           -419.9360   ZZ=           -404.9756
   XY=             -0.6166   XZ=              5.9527   YZ=              0.9740

 Normal termination of Gaussian 16 at Wed May  4 01:43:30 2022.
