 Gaussian 16, Revision A.03,
 Gaussian 16:  ES64L-G16RevA.03 25-Dec-2016

 --------------------------------
 #p wB97XD/Def2SVP td=(nstates=5)
 --------------------------------

 -----------------------------------------------------
 step_1251_chromophore_19 TDDFT with wB97XD functional
 -----------------------------------------------------
 Symbolic Z-matrix:
 Charge =  0 Multiplicity = 1

                         Standard orientation:
 ---------------------------------------------------------------------
 Center     Atomic      Atomic             Coordinates (Angstroms)
 Number     Number       Type             X           Y           Z
 ---------------------------------------------------------------------
      1         12           0       -5.689545    0.420997   -0.213527
      2          6           0       -3.488810   -2.286460   -0.437513
      3          6           0       -2.970208    2.474622    0.488108
      4          6           0       -7.829201    2.882057    0.471637
      5          6           0       -8.282046   -1.838132   -0.492400
      6          7           0       -3.558588    0.087758    0.135568
      7          6           0       -2.835570   -1.045467    0.012056
      8          6           0       -1.365653   -0.740502    0.099738
      9          6           0       -1.260217    0.712896    0.544719
     10          6           0       -2.654102    1.119683    0.321181
     11          6           0       -0.718354    0.985641    2.027556
     12          6           0       -0.507458   -1.020279   -1.204622
     13          6           0        0.662265   -1.984176   -1.025699
     14          6           0        1.712274   -1.865633    0.209859
     15          8           0        1.555984   -2.230131    1.397219
     16          8           0        2.876772   -1.302953   -0.262768
     17          7           0       -5.479657    2.433051    0.300417
     18          6           0       -4.279441    3.084956    0.499005
     19          6           0       -4.553565    4.487470    0.599036
     20          6           0       -5.976759    4.591184    0.616421
     21          6           0       -6.518890    3.266068    0.463350
     22          6           0       -3.492089    5.548007    0.839242
     23          6           0       -6.854234    5.939788    0.654206
     24          8           0       -8.068046    5.869136    0.565753
     25          6           0       -6.173355    7.276128    0.559639
     26          7           0       -7.781043    0.476923   -0.152097
     27          6           0       -8.402580    1.624196    0.219842
     28          6           0       -9.968284    1.398820    0.366226
     29          6           0      -10.117742   -0.147970   -0.084320
     30          6           0       -8.593565   -0.548143   -0.294402
     31          6           0      -10.464698    1.705066    1.810322
     32          6           0      -10.915466   -0.548353   -1.362872
     33          6           0      -10.504699    0.225718   -2.662628
     34          7           0       -5.911929   -1.692464   -0.474154
     35          6           0       -6.995189   -2.457554   -0.541069
     36          6           0       -6.624292   -3.835738   -0.689140
     37          6           0       -5.240997   -3.808352   -0.672441
     38          6           0       -4.836225   -2.476555   -0.533404
     39          6           0       -7.516585   -5.026105   -0.836576
     40          6           0       -4.103699   -4.684366   -0.577817
     41          8           0       -4.022765   -5.879659   -0.768795
     42          6           0       -2.905860   -3.649502   -0.508347
     43          6           0       -2.082695   -4.016212    0.591336
     44          8           0       -2.390577   -3.859936    1.761501
     45          8           0       -1.154551   -4.883145    0.186530
     46          6           0       -0.267330   -5.281122    1.301350
     47          6           0        3.992896   -1.296609    0.684563
     48          6           0        5.231284   -0.803833   -0.052947
     49          6           0        6.484667   -1.372520   -0.001304
     50          6           0        6.913029   -2.560890    0.748497
     51          6           0        7.561467   -0.797217   -0.893512
     52          6           0        8.273431    0.422265   -0.334564
     53          6           0        7.746481    1.805798   -0.879092
     54          6           0        8.894482    2.625518   -1.431003
     55          6           0        8.606589    4.159380   -1.529282
     56          6           0        9.214411    2.072071   -2.882124
     57          6           0       10.694344    2.147035   -3.242659
     58          6           0       11.370061    0.794359   -2.987377
     59          6           0       12.476218    0.966617   -1.816565
     60          6           0       13.844143    0.960525   -2.454584
     61          6           0       12.332975   -0.081403   -0.673902
     62          6           0       11.938435    0.487527    0.710657
     63          6           0       12.790003   -0.309170    1.846479
     64          6           0       12.053862   -0.395838    3.194495
     65          6           0       11.456947    0.920347    3.732988
     66          6           0       12.904756   -1.016207    4.331208
     67          1           0       -2.113824    3.140804    0.608145
     68          1           0       -8.616839    3.621133    0.632555
     69          1           0       -9.084783   -2.572124   -0.592269
     70          1           0       -0.940023   -1.214457    0.984553
     71          1           0       -0.660095    1.359025   -0.096884
     72          1           0       -1.617767    1.277613    2.569639
     73          1           0       -0.008676    1.804855    1.914432
     74          1           0       -0.217759    0.121891    2.465103
     75          1           0       -0.168367   -0.130235   -1.734041
     76          1           0       -1.251428   -1.415786   -1.895966
     77          1           0        1.371310   -1.866363   -1.845085
     78          1           0        0.301836   -3.012324   -0.976148
     79          1           0       -3.418897    6.352486    0.106165
     80          1           0       -2.489765    5.126400    0.916228
     81          1           0       -3.634351    5.917359    1.854784
     82          1           0       -5.608980    7.590181    1.438079
     83          1           0       -6.965283    8.019183    0.467241
     84          1           0       -5.623637    7.328267   -0.380075
     85          1           0      -10.425880    2.214012   -0.194557
     86          1           0      -10.389699   -0.825443    0.724542
     87          1           0      -11.141875    0.957481    2.223797
     88          1           0      -11.077693    2.596192    1.677033
     89          1           0       -9.694756    1.842649    2.569885
     90          1           0      -11.901226   -0.194475   -1.063045
     91          1           0      -10.881616   -1.638363   -1.382431
     92          1           0      -11.413779    0.571231   -3.154341
     93          1           0      -10.038454   -0.444652   -3.384884
     94          1           0       -9.740505    0.988912   -2.516849
     95          1           0       -7.456331   -5.650140   -1.729128
     96          1           0       -8.570330   -4.748109   -0.853947
     97          1           0       -7.284808   -5.618401    0.048590
     98          1           0       -2.215673   -3.774561   -1.342927
     99          1           0       -0.670438   -5.905904    2.097369
    100          1           0        0.031098   -4.410881    1.885643
    101          1           0        0.711121   -5.683356    1.037080
    102          1           0        4.189440   -2.348241    0.894586
    103          1           0        3.820440   -0.571202    1.479012
    104          1           0        5.028718   -0.060844   -0.824643
    105          1           0        7.697338   -2.437617    1.495659
    106          1           0        7.321103   -3.262540    0.019779
    107          1           0        6.078769   -2.897852    1.363402
    108          1           0        7.073906   -0.605660   -1.848932
    109          1           0        8.312395   -1.534597   -1.179707
    110          1           0        9.311219    0.254275   -0.623390
    111          1           0        8.238170    0.273047    0.744764
    112          1           0        7.255835    2.374582   -0.088287
    113          1           0        7.018923    1.763110   -1.689375
    114          1           0        9.651546    2.386732   -0.683870
    115          1           0        9.485327    4.769150   -1.313579
    116          1           0        7.802315    4.512608   -0.883883
    117          1           0        8.394508    4.441407   -2.560962
    118          1           0        8.684165    2.512209   -3.727114
    119          1           0        8.842330    1.049193   -2.932705
    120          1           0       11.235997    2.989191   -2.810976
    121          1           0       10.704414    2.343354   -4.314239
    122          1           0       11.692311    0.298253   -3.902225
    123          1           0       10.656403    0.051941   -2.632930
    124          1           0       12.304481    1.963820   -1.410451
    125          1           0       14.568089    0.241740   -2.072878
    126          1           0       14.297174    1.945500   -2.338899
    127          1           0       13.905136    0.969682   -3.542541
    128          1           0       13.256286   -0.661164   -0.668841
    129          1           0       11.645472   -0.881645   -0.949418
    130          1           0       10.853957    0.470197    0.821940
    131          1           0       12.273738    1.514474    0.852866
    132          1           0       13.823013    0.028809    1.920009
    133          1           0       12.810679   -1.365166    1.573812
    134          1           0       11.232650   -1.087326    3.004747
    135          1           0       10.399272    0.724025    3.906722
    136          1           0       11.566651    1.832764    3.146901
    137          1           0       11.946768    1.066159    4.696126
    138          1           0       12.275715   -1.622978    4.982592
    139          1           0       13.390019   -0.228555    4.907288
    140          1           0       13.751050   -1.566896    3.920725
 ---------------------------------------------------------------------

 SCF Done:  E(RwB97XD) =  -3007.84128532     A.U. after   19 cycles

 Excitation energies and oscillator strengths:

 Excited State   1:      Singlet-A      1.6758 eV  739.86 nm  f=0.4131  <S**2>=0.000
     245 -> 248        0.18435
     246 -> 247        0.68327
     245 <- 248        0.11613
 This state for optimization and/or second-order correction.
 Total Energy, E(TD-HF/TD-DFT) =  -3007.77970174
 Copying the excited state density for this state as the 1-particle RhoCI density.

 Excited State   2:      Singlet-A      2.2069 eV  561.80 nm  f=0.1015  <S**2>=0.000
     245 -> 247        0.63459
     246 -> 248       -0.29762

 Excited State   3:      Singlet-A      3.4327 eV  361.19 nm  f=0.0045  <S**2>=0.000
     243 -> 247       -0.15297
     244 -> 247        0.66752

 Excited State   4:      Singlet-A      3.5032 eV  353.92 nm  f=0.2690  <S**2>=0.000
     239 -> 247        0.21799
     239 -> 249       -0.15526
     241 -> 247        0.37858
     241 -> 249       -0.16245
     245 -> 247        0.17376
     246 -> 248        0.41938

 Excited State   5:      Singlet-A      3.5273 eV  351.50 nm  f=0.1296  <S**2>=0.000
     239 -> 247       -0.15385
     241 -> 247       -0.16937
     241 -> 249        0.15004
     243 -> 247        0.49402
     243 -> 249       -0.10142
     245 -> 247        0.11748
     246 -> 248        0.33152

 The electronic state is 1-A.
 Alpha  occ. eigenvalues --  -46.94570 -19.31351 -19.30525 -19.26067 -19.24406
 Alpha  occ. eigenvalues --  -19.24113 -19.23070 -14.47214 -14.45793 -14.43247
 Alpha  occ. eigenvalues --  -14.42966 -10.44854 -10.41329 -10.39392 -10.39010
 Alpha  occ. eigenvalues --  -10.36614 -10.35691 -10.34463 -10.34075 -10.33947
 Alpha  occ. eigenvalues --  -10.33481 -10.33299 -10.33103 -10.32793 -10.32563
 Alpha  occ. eigenvalues --  -10.32111 -10.31945 -10.31788 -10.31748 -10.31689
 Alpha  occ. eigenvalues --  -10.31656 -10.31643 -10.31623 -10.31587 -10.31088
 Alpha  occ. eigenvalues --  -10.31011 -10.30959 -10.30705 -10.30431 -10.30424
 Alpha  occ. eigenvalues --  -10.30406 -10.30359 -10.30048 -10.29927 -10.29909
 Alpha  occ. eigenvalues --  -10.29856 -10.29765 -10.29757 -10.29754 -10.29551
 Alpha  occ. eigenvalues --  -10.29483 -10.29429 -10.29311 -10.29226 -10.29128
 Alpha  occ. eigenvalues --  -10.29083 -10.29019 -10.28891 -10.28874 -10.28617
 Alpha  occ. eigenvalues --  -10.28609 -10.28540 -10.28373 -10.28359 -10.27946
 Alpha  occ. eigenvalues --  -10.27816  -3.20536  -1.94148  -1.93650  -1.93510
 Alpha  occ. eigenvalues --   -1.19382  -1.18753  -1.12607  -1.12459  -1.09813
 Alpha  occ. eigenvalues --   -1.09056  -1.07387  -1.06221  -1.05597  -1.04536
 Alpha  occ. eigenvalues --   -0.95581  -0.93193  -0.91652  -0.91437  -0.90575
 Alpha  occ. eigenvalues --   -0.90482  -0.89598  -0.89265  -0.89168  -0.88512
 Alpha  occ. eigenvalues --   -0.87932  -0.87206  -0.86382  -0.85832  -0.85052
 Alpha  occ. eigenvalues --   -0.84178  -0.83530  -0.83322  -0.83088  -0.82342
 Alpha  occ. eigenvalues --   -0.81722  -0.80043  -0.79323  -0.78694  -0.78041
 Alpha  occ. eigenvalues --   -0.77579  -0.77004  -0.76955  -0.76616  -0.76078
 Alpha  occ. eigenvalues --   -0.75661  -0.74788  -0.73793  -0.72834  -0.71567
 Alpha  occ. eigenvalues --   -0.70811  -0.70591  -0.69246  -0.68472  -0.67865
 Alpha  occ. eigenvalues --   -0.67790  -0.66720  -0.66326  -0.66056  -0.65892
 Alpha  occ. eigenvalues --   -0.65543  -0.65213  -0.64227  -0.63851  -0.62357
 Alpha  occ. eigenvalues --   -0.62077  -0.61925  -0.61388  -0.60594  -0.59673
 Alpha  occ. eigenvalues --   -0.59526  -0.58777  -0.58136  -0.57906  -0.57570
 Alpha  occ. eigenvalues --   -0.57054  -0.56714  -0.56298  -0.55965  -0.55721
 Alpha  occ. eigenvalues --   -0.55622  -0.55538  -0.55079  -0.54755  -0.54632
 Alpha  occ. eigenvalues --   -0.54439  -0.54299  -0.54119  -0.54026  -0.53797
 Alpha  occ. eigenvalues --   -0.53668  -0.53321  -0.52942  -0.52729  -0.52282
 Alpha  occ. eigenvalues --   -0.52137  -0.51951  -0.51891  -0.51787  -0.51330
 Alpha  occ. eigenvalues --   -0.51118  -0.50878  -0.50737  -0.50531  -0.50331
 Alpha  occ. eigenvalues --   -0.50174  -0.50012  -0.49997  -0.49876  -0.49649
 Alpha  occ. eigenvalues --   -0.49318  -0.49233  -0.48950  -0.48598  -0.48406
 Alpha  occ. eigenvalues --   -0.48180  -0.48083  -0.47907  -0.47748  -0.47496
 Alpha  occ. eigenvalues --   -0.47407  -0.47292  -0.47126  -0.47032  -0.46959
 Alpha  occ. eigenvalues --   -0.46707  -0.46641  -0.46410  -0.46376  -0.45691
 Alpha  occ. eigenvalues --   -0.45561  -0.45375  -0.45259  -0.45092  -0.44767
 Alpha  occ. eigenvalues --   -0.44700  -0.44577  -0.44419  -0.44164  -0.44058
 Alpha  occ. eigenvalues --   -0.44033  -0.43869  -0.43711  -0.43541  -0.43465
 Alpha  occ. eigenvalues --   -0.43134  -0.42870  -0.42553  -0.42254  -0.41963
 Alpha  occ. eigenvalues --   -0.41943  -0.41233  -0.40900  -0.40536  -0.40441
 Alpha  occ. eigenvalues --   -0.40281  -0.40068  -0.39746  -0.39517  -0.39309
 Alpha  occ. eigenvalues --   -0.39054  -0.38960  -0.38645  -0.38475  -0.38362
 Alpha  occ. eigenvalues --   -0.38226  -0.38186  -0.36559  -0.36271  -0.35698
 Alpha  occ. eigenvalues --   -0.35413  -0.35392  -0.34820  -0.33307  -0.32721
 Alpha  occ. eigenvalues --   -0.32645  -0.32222  -0.32079  -0.31338  -0.25683
 Alpha  occ. eigenvalues --   -0.22534
 Alpha virt. eigenvalues --   -0.06584   0.00659   0.02835   0.05066   0.05599
 Alpha virt. eigenvalues --    0.06185   0.06751   0.07633   0.08340   0.10066
 Alpha virt. eigenvalues --    0.10537   0.10631   0.12017   0.12202   0.12341

 Mulliken charges:
               1
     1  Mg   0.961311
     2  C   -0.028577
     3  C   -0.087200
     4  C   -0.074277
     5  C   -0.098722
     6  N   -0.345550
     7  C    0.063963
     8  C   -0.051962
     9  C   -0.156367
    10  C    0.047033
    11  C    0.024088
    12  C    0.065382
    13  C   -0.019900
    14  C    0.226012
    15  O   -0.288256
    16  O   -0.369462
    17  N   -0.459811
    18  C    0.154385
    19  C   -0.167739
    20  C   -0.099844
    21  C    0.181222
    22  C    0.064542
    23  C    0.075049
    24  O   -0.226636
    25  C   -0.014812
    26  N   -0.354724
    27  C    0.038257
    28  C   -0.107532
    29  C   -0.063381
    30  C    0.078785
    31  C    0.003180
    32  C   -0.008832
    33  C   -0.052614
    34  N   -0.371348
    35  C    0.081101
    36  C   -0.170153
    37  C   -0.034895
    38  C    0.119406
    39  C    0.075151
    40  C    0.159377
    41  O   -0.184114
    42  C   -0.092256
    43  C    0.204767
    44  O   -0.264443
    45  O   -0.332538
    46  C    0.140602
    47  C    0.272072
    48  C   -0.157193
    49  C   -0.209422
    50  C    0.051190
    51  C   -0.003094
    52  C   -0.013581
    53  C    0.031543
    54  C   -0.191537
    55  C    0.021135
    56  C   -0.011806
    57  C   -0.004940
    58  C    0.017696
    59  C   -0.180270
    60  C    0.015770
    61  C    0.027781
    62  C   -0.041692
    63  C   -0.014593
    64  C   -0.230099
    65  C    0.001667
    66  C   -0.003642
    67  H   -0.011845
    68  H    0.018611
    69  H   -0.022328
    70  H    0.052679
    71  H    0.033503
    72  H    0.052631
    73  H    0.033798
    74  H    0.064788
    75  H    0.038220
    76  H    0.032595
    77  H    0.055097
    78  H    0.065748
    79  H    0.051128
    80  H    0.019672
    81  H    0.050486
    82  H    0.061179
    83  H    0.044653
    84  H    0.064237
    85  H    0.046645
    86  H    0.035335
    87  H    0.031385
    88  H    0.035825
    89  H    0.051281
    90  H    0.034351
    91  H    0.038404
    92  H    0.042496
    93  H    0.032312
    94  H    0.050354
    95  H    0.060279
    96  H    0.016710
    97  H    0.065656
    98  H    0.051881
    99  H    0.054795
   100  H    0.049182
   101  H    0.045257
   102  H    0.051683
   103  H    0.066715
   104  H    0.032150
   105  H    0.041390
   106  H    0.053805
   107  H    0.022015
   108  H    0.026495
   109  H    0.007542
   110  H    0.025767
   111  H    0.033805
   112  H    0.012923
   113  H    0.013784
   114  H    0.026140
   115  H    0.025976
   116  H    0.027398
   117  H    0.020958
   118  H    0.016163
   119  H    0.003751
   120  H    0.022625
   121  H    0.008700
   122  H    0.018464
   123  H   -0.008969
   124  H    0.021349
   125  H    0.029595
   126  H    0.009210
   127  H    0.018372
   128  H    0.007830
   129  H    0.010423
   130  H    0.023453
   131  H    0.033724
   132  H    0.029452
   133  H    0.020669
   134  H    0.019669
   135  H    0.026856
   136  H    0.034329
   137  H    0.018101
   138  H    0.041101
   139  H    0.024942
   140  H    0.019991
 Sum of Mulliken charges =  -0.00000

 Dipole moment (field-independent basis, Debye):
    X=              4.9369    Y=              3.7223    Z=             -2.1461  Tot=              6.5447
 Quadrupole moment (field-independent basis, Debye-Ang):
   XX=           -370.8804   YY=           -418.0100   ZZ=           -404.6029
   XY=              0.2312   XZ=              6.3613   YZ=              1.0890

 Normal termination of Gaussian 16 at Wed May  4 02:10:43 2022.
