 Gaussian 16, Revision A.03,
 Gaussian 16:  ES64L-G16RevA.03 25-Dec-2016

 --------------------
 #p ZINDO=(nstates=5)
 --------------------

 ------------------------------
 step_1251_chromophore_19 ZINDO
 ------------------------------
 Symbolic Z-matrix:
 Charge =  0 Multiplicity = 1

                         Standard orientation:
 ---------------------------------------------------------------------
 Center     Atomic      Atomic             Coordinates (Angstroms)
 Number     Number       Type             X           Y           Z
 ---------------------------------------------------------------------
      1         12           0       -5.689545    0.420997   -0.213527
      2          6           0       -3.488810   -2.286460   -0.437513
      3          6           0       -2.970208    2.474622    0.488108
      4          6           0       -7.829201    2.882057    0.471637
      5          6           0       -8.282046   -1.838132   -0.492400
      6          7           0       -3.558588    0.087758    0.135568
      7          6           0       -2.835570   -1.045467    0.012056
      8          6           0       -1.365653   -0.740502    0.099738
      9          6           0       -1.260217    0.712896    0.544719
     10          6           0       -2.654102    1.119683    0.321181
     11          6           0       -0.718354    0.985641    2.027556
     12          6           0       -0.507458   -1.020279   -1.204622
     13          6           0        0.662265   -1.984176   -1.025699
     14          6           0        1.712274   -1.865633    0.209859
     15          8           0        1.555984   -2.230131    1.397219
     16          8           0        2.876772   -1.302953   -0.262768
     17          7           0       -5.479657    2.433051    0.300417
     18          6           0       -4.279441    3.084956    0.499005
     19          6           0       -4.553565    4.487470    0.599036
     20          6           0       -5.976759    4.591184    0.616421
     21          6           0       -6.518890    3.266068    0.463350
     22          6           0       -3.492089    5.548007    0.839242
     23          6           0       -6.854234    5.939788    0.654206
     24          8           0       -8.068046    5.869136    0.565753
     25          6           0       -6.173355    7.276128    0.559639
     26          7           0       -7.781043    0.476923   -0.152097
     27          6           0       -8.402580    1.624196    0.219842
     28          6           0       -9.968284    1.398820    0.366226
     29          6           0      -10.117742   -0.147970   -0.084320
     30          6           0       -8.593565   -0.548143   -0.294402
     31          6           0      -10.464698    1.705066    1.810322
     32          6           0      -10.915466   -0.548353   -1.362872
     33          6           0      -10.504699    0.225718   -2.662628
     34          7           0       -5.911929   -1.692464   -0.474154
     35          6           0       -6.995189   -2.457554   -0.541069
     36          6           0       -6.624292   -3.835738   -0.689140
     37          6           0       -5.240997   -3.808352   -0.672441
     38          6           0       -4.836225   -2.476555   -0.533404
     39          6           0       -7.516585   -5.026105   -0.836576
     40          6           0       -4.103699   -4.684366   -0.577817
     41          8           0       -4.022765   -5.879659   -0.768795
     42          6           0       -2.905860   -3.649502   -0.508347
     43          6           0       -2.082695   -4.016212    0.591336
     44          8           0       -2.390577   -3.859936    1.761501
     45          8           0       -1.154551   -4.883145    0.186530
     46          6           0       -0.267330   -5.281122    1.301350
     47          6           0        3.992896   -1.296609    0.684563
     48          6           0        5.231284   -0.803833   -0.052947
     49          6           0        6.484667   -1.372520   -0.001304
     50          6           0        6.913029   -2.560890    0.748497
     51          6           0        7.561467   -0.797217   -0.893512
     52          6           0        8.273431    0.422265   -0.334564
     53          6           0        7.746481    1.805798   -0.879092
     54          6           0        8.894482    2.625518   -1.431003
     55          6           0        8.606589    4.159380   -1.529282
     56          6           0        9.214411    2.072071   -2.882124
     57          6           0       10.694344    2.147035   -3.242659
     58          6           0       11.370061    0.794359   -2.987377
     59          6           0       12.476218    0.966617   -1.816565
     60          6           0       13.844143    0.960525   -2.454584
     61          6           0       12.332975   -0.081403   -0.673902
     62          6           0       11.938435    0.487527    0.710657
     63          6           0       12.790003   -0.309170    1.846479
     64          6           0       12.053862   -0.395838    3.194495
     65          6           0       11.456947    0.920347    3.732988
     66          6           0       12.904756   -1.016207    4.331208
     67          1           0       -2.113824    3.140804    0.608145
     68          1           0       -8.616839    3.621133    0.632555
     69          1           0       -9.084783   -2.572124   -0.592269
     70          1           0       -0.940023   -1.214457    0.984553
     71          1           0       -0.660095    1.359025   -0.096884
     72          1           0       -1.617767    1.277613    2.569639
     73          1           0       -0.008676    1.804855    1.914432
     74          1           0       -0.217759    0.121891    2.465103
     75          1           0       -0.168367   -0.130235   -1.734041
     76          1           0       -1.251428   -1.415786   -1.895966
     77          1           0        1.371310   -1.866363   -1.845085
     78          1           0        0.301836   -3.012324   -0.976148
     79          1           0       -3.418897    6.352486    0.106165
     80          1           0       -2.489765    5.126400    0.916228
     81          1           0       -3.634351    5.917359    1.854784
     82          1           0       -5.608980    7.590181    1.438079
     83          1           0       -6.965283    8.019183    0.467241
     84          1           0       -5.623637    7.328267   -0.380075
     85          1           0      -10.425880    2.214012   -0.194557
     86          1           0      -10.389699   -0.825443    0.724542
     87          1           0      -11.141875    0.957481    2.223797
     88          1           0      -11.077693    2.596192    1.677033
     89          1           0       -9.694756    1.842649    2.569885
     90          1           0      -11.901226   -0.194475   -1.063045
     91          1           0      -10.881616   -1.638363   -1.382431
     92          1           0      -11.413779    0.571231   -3.154341
     93          1           0      -10.038454   -0.444652   -3.384884
     94          1           0       -9.740505    0.988912   -2.516849
     95          1           0       -7.456331   -5.650140   -1.729128
     96          1           0       -8.570330   -4.748109   -0.853947
     97          1           0       -7.284808   -5.618401    0.048590
     98          1           0       -2.215673   -3.774561   -1.342927
     99          1           0       -0.670438   -5.905904    2.097369
    100          1           0        0.031098   -4.410881    1.885643
    101          1           0        0.711121   -5.683356    1.037080
    102          1           0        4.189440   -2.348241    0.894586
    103          1           0        3.820440   -0.571202    1.479012
    104          1           0        5.028718   -0.060844   -0.824643
    105          1           0        7.697338   -2.437617    1.495659
    106          1           0        7.321103   -3.262540    0.019779
    107          1           0        6.078769   -2.897852    1.363402
    108          1           0        7.073906   -0.605660   -1.848932
    109          1           0        8.312395   -1.534597   -1.179707
    110          1           0        9.311219    0.254275   -0.623390
    111          1           0        8.238170    0.273047    0.744764
    112          1           0        7.255835    2.374582   -0.088287
    113          1           0        7.018923    1.763110   -1.689375
    114          1           0        9.651546    2.386732   -0.683870
    115          1           0        9.485327    4.769150   -1.313579
    116          1           0        7.802315    4.512608   -0.883883
    117          1           0        8.394508    4.441407   -2.560962
    118          1           0        8.684165    2.512209   -3.727114
    119          1           0        8.842330    1.049193   -2.932705
    120          1           0       11.235997    2.989191   -2.810976
    121          1           0       10.704414    2.343354   -4.314239
    122          1           0       11.692311    0.298253   -3.902225
    123          1           0       10.656403    0.051941   -2.632930
    124          1           0       12.304481    1.963820   -1.410451
    125          1           0       14.568089    0.241740   -2.072878
    126          1           0       14.297174    1.945500   -2.338899
    127          1           0       13.905136    0.969682   -3.542541
    128          1           0       13.256286   -0.661164   -0.668841
    129          1           0       11.645472   -0.881645   -0.949418
    130          1           0       10.853957    0.470197    0.821940
    131          1           0       12.273738    1.514474    0.852866
    132          1           0       13.823013    0.028809    1.920009
    133          1           0       12.810679   -1.365166    1.573812
    134          1           0       11.232650   -1.087326    3.004747
    135          1           0       10.399272    0.724025    3.906722
    136          1           0       11.566651    1.832764    3.146901
    137          1           0       11.946768    1.066159    4.696126
    138          1           0       12.275715   -1.622978    4.982592
    139          1           0       13.390019   -0.228555    4.907288
    140          1           0       13.751050   -1.566896    3.920725
 ---------------------------------------------------------------------

 SCF Done:  E(RZINDO/S) =  -474.465679542     A.U. after   20 cycles

 Excitation energies and oscillator strengths:

 Excited State   1:      Singlet-A      1.2669 eV  978.62 nm  f=0.6185  <S**2>=0.000
     175 ->178         0.18688
     176 ->177         0.66220
 This state for optimization and/or second-order correction.
 Total Energy, E(CIS/TDA) =  -474.419120784
 Copying the excited state density for this state as the 1-particle RhoCI density.

 Excited State   2:      Singlet-A      1.9248 eV  644.16 nm  f=0.0414  <S**2>=0.000
     175 ->177         0.54228
     176 ->178        -0.42033

 Excited State   3:      Singlet-A      2.9052 eV  426.77 nm  f=0.1245  <S**2>=0.000
     168 ->177         0.32039
     168 ->178        -0.20491
     168 ->179        -0.32575
     168 ->181         0.15754
     168 ->186        -0.14592
     175 ->177         0.12664
     176 ->178         0.19900

 Excited State   4:      Singlet-A      2.9503 eV  420.24 nm  f=0.4922  <S**2>=0.000
     168 ->177        -0.11075
     168 ->179         0.12339
     171 ->177        -0.12852
     175 ->177         0.27966
     176 ->178         0.44484
     176 ->179         0.32925

 Excited State   5:      Singlet-A      3.0686 eV  404.04 nm  f=0.0144  <S**2>=0.000
     167 ->181        -0.10283
     168 ->181        -0.13944
     169 ->177         0.13237
     169 ->179         0.16058
     169 ->181         0.21734
     169 ->186         0.14240
     170 ->177         0.18717
     170 ->179         0.22232
     170 ->181         0.30522
     170 ->183        -0.11621
     170 ->186         0.19378

 The electronic state is 1-A.
 Alpha  occ. eigenvalues --   -1.88236  -1.82149  -1.81064  -1.76806  -1.72605
 Alpha  occ. eigenvalues --   -1.71327  -1.66878  -1.59611  -1.59254  -1.57922
 Alpha  occ. eigenvalues --   -1.55688  -1.51139  -1.50272  -1.47419  -1.45301
 Alpha  occ. eigenvalues --   -1.43554  -1.42719  -1.40819  -1.39358  -1.39197
 Alpha  occ. eigenvalues --   -1.36474  -1.33963  -1.32113  -1.30461  -1.29121
 Alpha  occ. eigenvalues --   -1.28933  -1.25423  -1.22049  -1.21309  -1.19538
 Alpha  occ. eigenvalues --   -1.18008  -1.15022  -1.14744  -1.14541  -1.13348
 Alpha  occ. eigenvalues --   -1.12934  -1.09979  -1.09622  -1.05237  -1.04149
 Alpha  occ. eigenvalues --   -1.03398  -1.01431  -0.99745  -0.98817  -0.97908
 Alpha  occ. eigenvalues --   -0.97222  -0.94471  -0.93993  -0.93122  -0.92973
 Alpha  occ. eigenvalues --   -0.91386  -0.90427  -0.88314  -0.87393  -0.87010
 Alpha  occ. eigenvalues --   -0.85409  -0.83520  -0.82556  -0.81431  -0.80472
 Alpha  occ. eigenvalues --   -0.79873  -0.78495  -0.76778  -0.76489  -0.75959
 Alpha  occ. eigenvalues --   -0.75497  -0.74503  -0.73944  -0.73680  -0.73571
 Alpha  occ. eigenvalues --   -0.73179  -0.72866  -0.72392  -0.72042  -0.70798
 Alpha  occ. eigenvalues --   -0.69951  -0.69336  -0.69101  -0.68676  -0.68069
 Alpha  occ. eigenvalues --   -0.67444  -0.66716  -0.66500  -0.65989  -0.65810
 Alpha  occ. eigenvalues --   -0.65299  -0.64930  -0.63647  -0.63366  -0.63241
 Alpha  occ. eigenvalues --   -0.62996  -0.62594  -0.62283  -0.61894  -0.61713
 Alpha  occ. eigenvalues --   -0.61489  -0.61271  -0.60501  -0.60290  -0.59886
 Alpha  occ. eigenvalues --   -0.59451  -0.59157  -0.58664  -0.58596  -0.58305
 Alpha  occ. eigenvalues --   -0.57871  -0.57498  -0.57146  -0.56976  -0.56530
 Alpha  occ. eigenvalues --   -0.56202  -0.55141  -0.54969  -0.54563  -0.54471
 Alpha  occ. eigenvalues --   -0.54126  -0.53934  -0.53698  -0.53144  -0.53088
 Alpha  occ. eigenvalues --   -0.52952  -0.52608  -0.52214  -0.51794  -0.51475
 Alpha  occ. eigenvalues --   -0.51319  -0.50795  -0.50714  -0.50389  -0.50027
 Alpha  occ. eigenvalues --   -0.49956  -0.49848  -0.49455  -0.49265  -0.48921
 Alpha  occ. eigenvalues --   -0.48575  -0.48178  -0.48047  -0.47427  -0.47415
 Alpha  occ. eigenvalues --   -0.47335  -0.47143  -0.47018  -0.46507  -0.46324
 Alpha  occ. eigenvalues --   -0.46056  -0.46011  -0.45759  -0.45738  -0.45306
 Alpha  occ. eigenvalues --   -0.45054  -0.44804  -0.44576  -0.44454  -0.44150
 Alpha  occ. eigenvalues --   -0.43375  -0.42636  -0.42473  -0.42375  -0.42335
 Alpha  occ. eigenvalues --   -0.41447  -0.41088  -0.40936  -0.39472  -0.38588
 Alpha  occ. eigenvalues --   -0.37496  -0.36421  -0.35243  -0.35012  -0.34582
 Alpha  occ. eigenvalues --   -0.33089  -0.32210  -0.31987  -0.31812  -0.26331
 Alpha  occ. eigenvalues --   -0.21522
 Alpha virt. eigenvalues --   -0.08170  -0.01950  -0.00110   0.00925   0.01714
 Alpha virt. eigenvalues --    0.02441   0.02642   0.03625   0.04002   0.04868
 Alpha virt. eigenvalues --    0.06386   0.07173   0.07475   0.07928   0.08130

 Mulliken charges:
               1
     1  Mg   0.419984
     2  C   -0.051086
     3  C   -0.078473
     4  C   -0.058362
     5  C   -0.081048
     6  N   -0.262049
     7  C    0.137239
     8  C    0.010123
     9  C   -0.007118
    10  C    0.110338
    11  C   -0.054518
    12  C   -0.016473
    13  C    0.008200
    14  C    0.450201
    15  O   -0.515963
    16  O   -0.266538
    17  N   -0.322594
    18  C    0.082913
    19  C   -0.005390
    20  C   -0.065157
    21  C    0.149000
    22  C   -0.045291
    23  C    0.319474
    24  O   -0.513263
    25  C   -0.029117
    26  N   -0.258207
    27  C    0.116101
    28  C   -0.003231
    29  C   -0.010762
    30  C    0.142675
    31  C   -0.053563
    32  C   -0.027762
    33  C   -0.055008
    34  N   -0.318852
    35  C    0.118516
    36  C    0.041402
    37  C   -0.047572
    38  C    0.117531
    39  C   -0.038849
    40  C    0.340105
    41  O   -0.501581
    42  C    0.060803
    43  C    0.491203
    44  O   -0.536293
    45  O   -0.251758
    46  C    0.063886
    47  C    0.101202
    48  C   -0.113448
    49  C    0.003205
    50  C   -0.038464
    51  C   -0.024748
    52  C   -0.031111
    53  C   -0.029140
    54  C   -0.012979
    55  C   -0.060436
    56  C   -0.033677
    57  C   -0.033185
    58  C   -0.042262
    59  C   -0.011177
    60  C   -0.059783
    61  C   -0.036746
    62  C   -0.041414
    63  C   -0.038472
    64  C   -0.011864
    65  C   -0.062496
    66  C   -0.058425
    67  H    0.029683
    68  H    0.043942
    69  H    0.017948
    70  H    0.049064
    71  H    0.023178
    72  H    0.032318
    73  H    0.020048
    74  H    0.037229
    75  H    0.029790
    76  H    0.019771
    77  H    0.031397
    78  H    0.045806
    79  H    0.032284
    80  H    0.016318
    81  H    0.026537
    82  H    0.040877
    83  H    0.027081
    84  H    0.041048
    85  H    0.043747
    86  H    0.032298
    87  H    0.014966
    88  H    0.019620
    89  H    0.030811
    90  H    0.013762
    91  H    0.034604
    92  H    0.022709
    93  H    0.013456
    94  H    0.032957
    95  H    0.039227
    96  H    0.014830
    97  H    0.039801
    98  H    0.045279
    99  H    0.051223
   100  H    0.037947
   101  H    0.030365
   102  H    0.057272
   103  H    0.061672
   104  H    0.032608
   105  H    0.027035
   106  H    0.035811
   107  H    0.020800
   108  H    0.015346
   109  H    0.011986
   110  H    0.020899
   111  H    0.024996
   112  H    0.011825
   113  H    0.022142
   114  H    0.028827
   115  H    0.013863
   116  H    0.020871
   117  H    0.017944
   118  H    0.018951
   119  H    0.014538
   120  H    0.027970
   121  H    0.005121
   122  H    0.024183
   123  H    0.011674
   124  H    0.025020
   125  H    0.022583
   126  H    0.004753
   127  H    0.017597
   128  H    0.017585
   129  H    0.015295
   130  H    0.033020
   131  H    0.019457
   132  H    0.030657
   133  H    0.010416
   134  H    0.014627
   135  H    0.014878
   136  H    0.024360
   137  H    0.018847
   138  H    0.023473
   139  H    0.017679
   140  H    0.013099
 Sum of Mulliken charges =  -0.00000

 Dipole moment (field-independent basis, Debye):
    X=              5.6186    Y=              3.8680    Z=             -3.4561  Tot=              7.6469
 N-N= 4.347956861827D+03 E-N= 0.000000000000D+00  KE=-9.370567038638D+03
 Leave Link  601 at Wed May  4 02:23:23 2022, MaxMem=  6710886400 cpu:               0.8 elap:               0.0
 (Enter /sw/apps/gaussian-16.0/g16/l9999.exe)
 1\1\GINC-BP1-COMPUTE101\SP\RZINDO CIS\STO-3G\C55H74Mg1N4O6\OF15641\04-
 May-2022\0\\#p ZINDO=(nstates=5)\\step_1251_chromophore_19 ZINDO\\0,1\
 Mg,0,25.372,51.473,26.314\C,0,23.257,52.463,28.916\C,0,27.578,50.211,2
 8.69\C,0,27.586,50.974,23.874\C,0,23.277,53.158,24.152\N,0,25.461,51.4
 95,28.497\C,0,24.545,51.928,29.389\C,0,24.928,51.504,30.78\C,0,26.345,
 50.953,30.68\C,0,26.437,50.829,29.219\C,0,27.515,51.82,31.348\C,0,23.9
 5,50.485,31.502\C,0,23.382,50.956,32.838\C,0,24.309,51.618,33.998\O,0,

 Normal termination of Gaussian 16 at Wed May  4 02:23:23 2022.
