 Gaussian 16, Revision A.03,
 Gaussian 16:  ES64L-G16RevA.03 25-Dec-2016

 ------------------------------
 #p blyp/Def2SVP td=(nstates=5)
 ------------------------------

 -------------------------------------------------
 step_51_chromophore_21 TDDFT with blyp functional
 -------------------------------------------------
 Symbolic Z-matrix:
 Charge =  0 Multiplicity = 1

                         Standard orientation:
 ---------------------------------------------------------------------
 Center     Atomic      Atomic             Coordinates (Angstroms)
 Number     Number       Type             X           Y           Z
 ---------------------------------------------------------------------
      1         12           0        4.654108    0.982263    0.063857
      2          6           0        4.032043   -2.419689    0.550809
      3          6           0        1.299084    1.233291   -1.004210
      4          6           0        5.248396    4.210219   -0.817637
      5          6           0        8.138415    0.440930    0.680018
      6          7           0        2.858350   -0.449868   -0.088727
      7          6           0        2.829999   -1.767979    0.146184
      8          6           0        1.397548   -2.292823    0.219198
      9          6           0        0.638682   -1.223713   -0.618248
     10          6           0        1.623414   -0.064384   -0.592779
     11          6           0        0.174016   -1.679077   -2.032800
     12          6           0        0.921721   -2.402929    1.709862
     13          6           0       -0.028460   -3.558448    1.921464
     14          6           0       -0.875922   -4.045994    0.699986
     15          8           0       -0.561312   -4.952979   -0.094679
     16          8           0       -1.992733   -3.253509    0.537435
     17          7           0        3.502553    2.508395   -0.705064
     18          6           0        2.093970    2.394377   -1.049439
     19          6           0        1.735611    3.681974   -1.696740
     20          6           0        2.785495    4.618762   -1.491347
     21          6           0        3.889356    3.826161   -0.915980
     22          6           0        0.389560    3.912400   -2.183220
     23          6           0        2.917709    6.054283   -1.908763
     24          8           0        3.903089    6.755662   -1.661612
     25          6           0        1.761431    6.724262   -2.558382
     26          7           0        6.471467    2.081096   -0.051776
     27          6           0        6.424642    3.428373   -0.421498
     28          6           0        7.888356    3.962228   -0.420300
     29          6           0        8.819713    2.871247    0.242315
     30          6           0        7.779402    1.723123    0.284444
     31          6           0        8.416314    4.579269   -1.691147
     32          6           0        9.236359    3.198766    1.666655
     33          6           0       10.709427    3.310248    1.986449
     34          7           0        5.865409   -0.564702    0.555017
     35          6           0        7.274591   -0.697442    0.769628
     36          6           0        7.585019   -2.142058    0.984039
     37          6           0        6.344996   -2.776502    0.990200
     38          6           0        5.347257   -1.848260    0.665169
     39          6           0        8.908095   -2.735970    1.189858
     40          6           0        5.741813   -4.082657    1.301531
     41          8           0        6.238800   -5.156371    1.616132
     42          6           0        4.215706   -3.888249    0.989144
     43          6           0        3.884991   -4.867091   -0.026666
     44          8           0        4.180924   -4.848812   -1.216630
     45          8           0        3.073452   -5.858362    0.487981
     46          6           0        2.627748   -6.958481   -0.329036
     47          6           0       -2.739672   -3.667458   -0.630074
     48          6           0       -4.124876   -3.033015   -0.624957
     49          6           0       -5.408823   -3.509595   -0.567730
     50          6           0       -5.662516   -5.004183   -0.448957
     51          6           0       -6.589083   -2.545345   -0.713076
     52          6           0       -7.713513   -2.863868   -1.788179
     53          6           0       -7.773360   -1.694191   -2.803181
     54          6           0       -9.218251   -1.076485   -2.820340
     55          6           0       -9.628155   -0.454105   -4.090575
     56          6           0       -9.470329   -0.113783   -1.537479
     57          6           0      -10.859816   -0.363503   -0.877745
     58          6           0      -11.687534    0.901978   -0.861542
     59          6           0      -11.847955    1.561906    0.618968
     60          6           0      -13.185120    2.324867    0.569526
     61          6           0      -10.634714    2.523878    1.037103
     62          6           0      -10.657127    3.104200    2.463562
     63          6           0       -9.369385    3.877731    2.732759
     64          6           0       -8.922481    3.525580    4.162296
     65          6           0       -8.367340    4.806372    4.863894
     66          6           0       -7.888438    2.425599    4.093381
     67          1           0        0.268682    1.428783   -1.310616
     68          1           0        5.590237    5.217448   -1.065083
     69          1           0        9.206451    0.298954    0.858078
     70          1           0        1.446598   -3.281224   -0.237369
     71          1           0       -0.260336   -0.958413   -0.060784
     72          1           0        0.596343   -2.678797   -2.132064
     73          1           0        0.752709   -1.038877   -2.698863
     74          1           0       -0.899810   -1.593391   -2.194040
     75          1           0        0.601823   -1.427221    2.074664
     76          1           0        1.805394   -2.683885    2.284154
     77          1           0       -0.763258   -3.268083    2.673197
     78          1           0        0.596103   -4.381939    2.269155
     79          1           0       -0.131919    2.999455   -2.467865
     80          1           0        0.471189    4.446602   -3.130626
     81          1           0       -0.286200    4.455827   -1.522767
     82          1           0        0.893109    6.887235   -1.920493
     83          1           0        1.457373    6.247657   -3.490164
     84          1           0        2.259719    7.671391   -2.761973
     85          1           0        7.975751    4.777316    0.297210
     86          1           0        9.726531    2.587261   -0.291170
     87          1           0        8.002763    5.560781   -1.922871
     88          1           0        8.137272    3.876482   -2.476199
     89          1           0        9.500130    4.687601   -1.734775
     90          1           0        8.956796    2.353665    2.295010
     91          1           0        8.685958    4.040778    2.086623
     92          1           0       10.812340    4.363504    2.247613
     93          1           0       11.257947    3.126115    1.062444
     94          1           0       11.121626    2.711681    2.798990
     95          1           0        8.847400   -3.637307    0.579279
     96          1           0        8.860693   -2.926332    2.262292
     97          1           0        9.669719   -2.000343    0.929661
     98          1           0        3.718489   -4.099799    1.935797
     99          1           0        2.840310   -7.898028    0.179725
    100          1           0        3.125830   -6.974403   -1.299139
    101          1           0        1.566818   -6.892992   -0.572098
    102          1           0       -2.946504   -4.734377   -0.545377
    103          1           0       -2.167673   -3.413527   -1.522946
    104          1           0       -4.011870   -1.947919   -0.616549
    105          1           0       -5.326466   -5.553019   -1.328025
    106          1           0       -6.717925   -5.251653   -0.335330
    107          1           0       -5.061986   -5.430624    0.354920
    108          1           0       -6.311487   -1.492458   -0.762710
    109          1           0       -7.137085   -2.520639    0.228816
    110          1           0       -8.593686   -3.061355   -1.175318
    111          1           0       -7.396267   -3.794816   -2.258738
    112          1           0       -7.527270   -2.072768   -3.795382
    113          1           0       -7.019542   -0.942706   -2.566138
    114          1           0       -9.858844   -1.939125   -2.636064
    115          1           0       -8.717748   -0.452410   -4.689232
    116          1           0       -9.994420    0.553029   -3.892923
    117          1           0      -10.492069   -0.949877   -4.532212
    118          1           0       -9.323247    0.935792   -1.789908
    119          1           0       -8.681961   -0.378034   -0.833006
    120          1           0      -10.645353   -0.673855    0.144191
    121          1           0      -11.431037   -1.127320   -1.405704
    122          1           0      -12.669939    0.560124   -1.186225
    123          1           0      -11.373173    1.609252   -1.628889
    124          1           0      -11.982531    0.807962    1.393551
    125          1           0      -13.878120    1.921193    1.308087
    126          1           0      -13.575613    2.237902   -0.443617
    127          1           0      -13.159110    3.395797    0.770685
    128          1           0      -10.620422    3.348308    0.324550
    129          1           0       -9.723897    1.962823    0.827633
    130          1           0      -10.972456    2.263668    3.081340
    131          1           0      -11.452604    3.827602    2.643377
    132          1           0       -9.559333    4.945748    2.836047
    133          1           0       -8.626616    3.663257    1.963965
    134          1           0       -9.744777    3.178902    4.788241
    135          1           0       -9.168177    5.090132    5.546596
    136          1           0       -8.115510    5.577268    4.135982
    137          1           0       -7.487282    4.567019    5.461189
    138          1           0       -8.274332    1.501173    3.663350
    139          1           0       -7.745202    2.063190    5.111894
    140          1           0       -6.958603    2.763735    3.635023
 ---------------------------------------------------------------------

 SCF Done:  E(RB-LYP) =  -3007.38652386     A.U. after   20 cycles

 Excitation energies and oscillator strengths:

 Excited State   1:      Singlet-A      1.7812 eV  696.09 nm  f=0.2931  <S**2>=0.000
     245 -> 248       -0.20422
     246 -> 247        0.68678
     246 <- 247       -0.14653
 This state for optimization and/or second-order correction.
 Total Energy, E(TD-HF/TD-DFT) =  -3007.32106731
 Copying the excited state density for this state as the 1-particle RhoCI density.

 Excited State   2:      Singlet-A      1.9901 eV  623.00 nm  f=0.0571  <S**2>=0.000
     244 -> 247        0.18691
     245 -> 247        0.62038
     246 -> 248        0.25957

 Excited State   3:      Singlet-A      2.0674 eV  599.71 nm  f=0.0056  <S**2>=0.000
     244 -> 247        0.68094
     245 -> 247       -0.15984

 Excited State   4:      Singlet-A      2.1107 eV  587.41 nm  f=0.0004  <S**2>=0.000
     243 -> 247        0.70484

 Excited State   5:      Singlet-A      2.4502 eV  506.03 nm  f=0.0001  <S**2>=0.000
     241 -> 247        0.68971
     242 -> 247       -0.14590

 The electronic state is 1-A.
 Alpha  occ. eigenvalues --  -46.26579 -18.83419 -18.80595 -18.78039 -18.76203
 Alpha  occ. eigenvalues --  -18.75548 -18.75490 -14.03356 -14.03159 -14.01503
 Alpha  occ. eigenvalues --  -14.01025 -10.05204 -10.03031  -9.99974  -9.99675
 Alpha  occ. eigenvalues --   -9.98134  -9.97104  -9.96533  -9.96511  -9.96353
 Alpha  occ. eigenvalues --   -9.96163  -9.96136  -9.96095  -9.95888  -9.94953
 Alpha  occ. eigenvalues --   -9.94363  -9.94224  -9.94172  -9.94128  -9.94025
 Alpha  occ. eigenvalues --   -9.93975  -9.93915  -9.93912  -9.93712  -9.93692
 Alpha  occ. eigenvalues --   -9.93505  -9.93204  -9.92898  -9.92798  -9.92785
 Alpha  occ. eigenvalues --   -9.92767  -9.92759  -9.92524  -9.92490  -9.92467
 Alpha  occ. eigenvalues --   -9.92379  -9.92358  -9.91994  -9.91905  -9.91882
 Alpha  occ. eigenvalues --   -9.91801  -9.91737  -9.91705  -9.91675  -9.91471
 Alpha  occ. eigenvalues --   -9.91396  -9.91392  -9.91385  -9.91240  -9.91174
 Alpha  occ. eigenvalues --   -9.91027  -9.90907  -9.90804  -9.90750  -9.90689
 Alpha  occ. eigenvalues --   -9.90324  -2.91237  -1.71665  -1.71137  -1.70932
 Alpha  occ. eigenvalues --   -0.98834  -0.96460  -0.91520  -0.91179  -0.90123
 Alpha  occ. eigenvalues --   -0.88334  -0.86347  -0.84422  -0.83634  -0.82906
 Alpha  occ. eigenvalues --   -0.74887  -0.73632  -0.73330  -0.72998  -0.72631
 Alpha  occ. eigenvalues --   -0.72221  -0.71712  -0.70969  -0.70789  -0.70369
 Alpha  occ. eigenvalues --   -0.70262  -0.69333  -0.68204  -0.67637  -0.67237
 Alpha  occ. eigenvalues --   -0.66657  -0.65916  -0.65413  -0.65011  -0.64745
 Alpha  occ. eigenvalues --   -0.64037  -0.62651  -0.62419  -0.61850  -0.60948
 Alpha  occ. eigenvalues --   -0.60505  -0.60437  -0.59502  -0.59158  -0.58953
 Alpha  occ. eigenvalues --   -0.58373  -0.57040  -0.56549  -0.55701  -0.53751
 Alpha  occ. eigenvalues --   -0.53571  -0.53384  -0.52554  -0.52329  -0.51315
 Alpha  occ. eigenvalues --   -0.51056  -0.51000  -0.50545  -0.50065  -0.49940
 Alpha  occ. eigenvalues --   -0.49851  -0.49586  -0.48543  -0.47870  -0.47106
 Alpha  occ. eigenvalues --   -0.46278  -0.46198  -0.45674  -0.44994  -0.44739
 Alpha  occ. eigenvalues --   -0.44253  -0.43948  -0.42981  -0.42781  -0.42680
 Alpha  occ. eigenvalues --   -0.41907  -0.41461  -0.41431  -0.41234  -0.40960
 Alpha  occ. eigenvalues --   -0.40925  -0.40779  -0.40479  -0.40401  -0.40169
 Alpha  occ. eigenvalues --   -0.39952  -0.39810  -0.39779  -0.39590  -0.39405
 Alpha  occ. eigenvalues --   -0.39102  -0.38916  -0.38747  -0.38558  -0.38498
 Alpha  occ. eigenvalues --   -0.38311  -0.37889  -0.37673  -0.37561  -0.37409
 Alpha  occ. eigenvalues --   -0.37179  -0.36833  -0.36705  -0.36666  -0.36310
 Alpha  occ. eigenvalues --   -0.36052  -0.35963  -0.35819  -0.35523  -0.35355
 Alpha  occ. eigenvalues --   -0.35280  -0.35190  -0.35108  -0.35085  -0.34982
 Alpha  occ. eigenvalues --   -0.34605  -0.34562  -0.34417  -0.34219  -0.33992
 Alpha  occ. eigenvalues --   -0.33912  -0.33826  -0.33734  -0.33613  -0.33391
 Alpha  occ. eigenvalues --   -0.32948  -0.32798  -0.32494  -0.32322  -0.32224
 Alpha  occ. eigenvalues --   -0.32116  -0.31824  -0.31704  -0.31578  -0.31297
 Alpha  occ. eigenvalues --   -0.31174  -0.30925  -0.30697  -0.30630  -0.30363
 Alpha  occ. eigenvalues --   -0.30244  -0.30139  -0.29950  -0.29857  -0.29807
 Alpha  occ. eigenvalues --   -0.29771  -0.29573  -0.29312  -0.29207  -0.28616
 Alpha  occ. eigenvalues --   -0.28423  -0.28343  -0.28083  -0.27900  -0.27823
 Alpha  occ. eigenvalues --   -0.27719  -0.27521  -0.27123  -0.27047  -0.26927
 Alpha  occ. eigenvalues --   -0.26384  -0.26270  -0.25952  -0.25941  -0.25609
 Alpha  occ. eigenvalues --   -0.25490  -0.23946  -0.23662  -0.23564  -0.23479
 Alpha  occ. eigenvalues --   -0.23399  -0.22718  -0.21848  -0.21002  -0.20665
 Alpha  occ. eigenvalues --   -0.20458  -0.20325  -0.19101  -0.18940  -0.17202
 Alpha  occ. eigenvalues --   -0.15696
 Alpha virt. eigenvalues --   -0.11452  -0.07164  -0.06364  -0.04999  -0.04422
 Alpha virt. eigenvalues --   -0.03338  -0.02434  -0.01740  -0.01104   0.00012
 Alpha virt. eigenvalues --    0.00882   0.01435   0.02383   0.02512   0.03035

 Mulliken charges:
               1
     1  Mg   0.702276
     2  C    0.001050
     3  C   -0.068480
     4  C   -0.039659
     5  C   -0.058338
     6  N   -0.187099
     7  C   -0.083583
     8  C   -0.034670
     9  C   -0.021822
    10  C    0.049232
    11  C    0.154544
    12  C    0.150122
    13  C    0.171664
    14  C    0.090578
    15  O   -0.212666
    16  O   -0.266446
    17  N   -0.355164
    18  C    0.154013
    19  C   -0.156168
    20  C    0.071593
    21  C    0.145646
    22  C    0.176625
    23  C   -0.083080
    24  O   -0.176433
    25  C    0.111908
    26  N   -0.247541
    27  C    0.028974
    28  C    0.056713
    29  C    0.018562
    30  C    0.011860
    31  C    0.115218
    32  C    0.068296
    33  C    0.072573
    34  N   -0.327917
    35  C    0.129777
    36  C   -0.209705
    37  C    0.066742
    38  C    0.126350
    39  C    0.194153
    40  C   -0.059498
    41  O   -0.126179
    42  C    0.077386
    43  C    0.112211
    44  O   -0.182069
    45  O   -0.276261
    46  C    0.203573
    47  C    0.319548
    48  C   -0.127396
    49  C   -0.106465
    50  C    0.121319
    51  C    0.099274
    52  C    0.061796
    53  C    0.113867
    54  C   -0.128906
    55  C    0.174304
    56  C    0.067321
    57  C    0.102053
    58  C    0.075741
    59  C   -0.072836
    60  C    0.107095
    61  C    0.063402
    62  C    0.078429
    63  C    0.159783
    64  C   -0.130772
    65  C    0.110415
    66  C    0.114913
    67  H   -0.060833
    68  H   -0.039246
    69  H   -0.064616
    70  H   -0.001858
    71  H   -0.027373
    72  H    0.003688
    73  H   -0.016377
    74  H    0.014020
    75  H   -0.015634
    76  H   -0.025675
    77  H   -0.009146
    78  H    0.002917
    79  H   -0.020504
    80  H   -0.019763
    81  H    0.013817
    82  H    0.016328
    83  H    0.007586
    84  H   -0.010676
    85  H   -0.030759
    86  H   -0.027764
    87  H    0.004779
    88  H   -0.012531
    89  H   -0.014250
    90  H   -0.025685
    91  H   -0.021172
    92  H   -0.011392
    93  H   -0.020232
    94  H    0.002773
    95  H    0.028678
    96  H    0.019068
    97  H   -0.008406
    98  H   -0.006082
    99  H    0.010869
   100  H    0.008038
   101  H    0.019503
   102  H   -0.020895
   103  H    0.005958
   104  H   -0.044492
   105  H    0.006900
   106  H   -0.011323
   107  H    0.011365
   108  H   -0.030881
   109  H   -0.030479
   110  H   -0.011546
   111  H   -0.021922
   112  H   -0.038308
   113  H   -0.021019
   114  H   -0.038028
   115  H   -0.017884
   116  H   -0.030899
   117  H   -0.017399
   118  H   -0.023761
   119  H   -0.044455
   120  H   -0.029182
   121  H   -0.025021
   122  H   -0.039691
   123  H   -0.024265
   124  H   -0.037554
   125  H   -0.019549
   126  H   -0.022676
   127  H   -0.024951
   128  H   -0.037676
   129  H   -0.029230
   130  H   -0.030559
   131  H   -0.033368
   132  H   -0.041626
   133  H   -0.025413
   134  H   -0.034056
   135  H   -0.014110
   136  H   -0.008663
   137  H   -0.026932
   138  H   -0.030604
   139  H   -0.031410
   140  H   -0.008230
 Sum of Mulliken charges =  -0.00000

 Dipole moment (field-independent basis, Debye):
    X=             -5.1545    Y=              2.0292    Z=              1.3152  Tot=              5.6935
 Quadrupole moment (field-independent basis, Debye-Ang):
   XX=           -374.4333   YY=           -441.2151   ZZ=           -403.4834
   XY=             29.9024   XZ=              8.9266   YZ=              1.8069

 Normal termination of Gaussian 16 at Thu May  5 03:37:23 2022.
