 Gaussian 16, Revision A.03,
 Gaussian 16:  ES64L-G16RevA.03 25-Dec-2016

 -----------------------------------
 #p cam-b3lyp/Def2SVP td=(nstates=5)
 -----------------------------------

 ------------------------------------------------------
 step_51_chromophore_21 TDDFT with cam-b3lyp functional
 ------------------------------------------------------
 Symbolic Z-matrix:
 Charge =  0 Multiplicity = 1

                         Standard orientation:
 ---------------------------------------------------------------------
 Center     Atomic      Atomic             Coordinates (Angstroms)
 Number     Number       Type             X           Y           Z
 ---------------------------------------------------------------------
      1         12           0        4.654108    0.982263    0.063857
      2          6           0        4.032043   -2.419689    0.550809
      3          6           0        1.299084    1.233291   -1.004210
      4          6           0        5.248396    4.210219   -0.817637
      5          6           0        8.138415    0.440930    0.680018
      6          7           0        2.858350   -0.449868   -0.088727
      7          6           0        2.829999   -1.767979    0.146184
      8          6           0        1.397548   -2.292823    0.219198
      9          6           0        0.638682   -1.223713   -0.618248
     10          6           0        1.623414   -0.064384   -0.592779
     11          6           0        0.174016   -1.679077   -2.032800
     12          6           0        0.921721   -2.402929    1.709862
     13          6           0       -0.028460   -3.558448    1.921464
     14          6           0       -0.875922   -4.045994    0.699986
     15          8           0       -0.561312   -4.952979   -0.094679
     16          8           0       -1.992733   -3.253509    0.537435
     17          7           0        3.502553    2.508395   -0.705064
     18          6           0        2.093970    2.394377   -1.049439
     19          6           0        1.735611    3.681974   -1.696740
     20          6           0        2.785495    4.618762   -1.491347
     21          6           0        3.889356    3.826161   -0.915980
     22          6           0        0.389560    3.912400   -2.183220
     23          6           0        2.917709    6.054283   -1.908763
     24          8           0        3.903089    6.755662   -1.661612
     25          6           0        1.761431    6.724262   -2.558382
     26          7           0        6.471467    2.081096   -0.051776
     27          6           0        6.424642    3.428373   -0.421498
     28          6           0        7.888356    3.962228   -0.420300
     29          6           0        8.819713    2.871247    0.242315
     30          6           0        7.779402    1.723123    0.284444
     31          6           0        8.416314    4.579269   -1.691147
     32          6           0        9.236359    3.198766    1.666655
     33          6           0       10.709427    3.310248    1.986449
     34          7           0        5.865409   -0.564702    0.555017
     35          6           0        7.274591   -0.697442    0.769628
     36          6           0        7.585019   -2.142058    0.984039
     37          6           0        6.344996   -2.776502    0.990200
     38          6           0        5.347257   -1.848260    0.665169
     39          6           0        8.908095   -2.735970    1.189858
     40          6           0        5.741813   -4.082657    1.301531
     41          8           0        6.238800   -5.156371    1.616132
     42          6           0        4.215706   -3.888249    0.989144
     43          6           0        3.884991   -4.867091   -0.026666
     44          8           0        4.180924   -4.848812   -1.216630
     45          8           0        3.073452   -5.858362    0.487981
     46          6           0        2.627748   -6.958481   -0.329036
     47          6           0       -2.739672   -3.667458   -0.630074
     48          6           0       -4.124876   -3.033015   -0.624957
     49          6           0       -5.408823   -3.509595   -0.567730
     50          6           0       -5.662516   -5.004183   -0.448957
     51          6           0       -6.589083   -2.545345   -0.713076
     52          6           0       -7.713513   -2.863868   -1.788179
     53          6           0       -7.773360   -1.694191   -2.803181
     54          6           0       -9.218251   -1.076485   -2.820340
     55          6           0       -9.628155   -0.454105   -4.090575
     56          6           0       -9.470329   -0.113783   -1.537479
     57          6           0      -10.859816   -0.363503   -0.877745
     58          6           0      -11.687534    0.901978   -0.861542
     59          6           0      -11.847955    1.561906    0.618968
     60          6           0      -13.185120    2.324867    0.569526
     61          6           0      -10.634714    2.523878    1.037103
     62          6           0      -10.657127    3.104200    2.463562
     63          6           0       -9.369385    3.877731    2.732759
     64          6           0       -8.922481    3.525580    4.162296
     65          6           0       -8.367340    4.806372    4.863894
     66          6           0       -7.888438    2.425599    4.093381
     67          1           0        0.268682    1.428783   -1.310616
     68          1           0        5.590237    5.217448   -1.065083
     69          1           0        9.206451    0.298954    0.858078
     70          1           0        1.446598   -3.281224   -0.237369
     71          1           0       -0.260336   -0.958413   -0.060784
     72          1           0        0.596343   -2.678797   -2.132064
     73          1           0        0.752709   -1.038877   -2.698863
     74          1           0       -0.899810   -1.593391   -2.194040
     75          1           0        0.601823   -1.427221    2.074664
     76          1           0        1.805394   -2.683885    2.284154
     77          1           0       -0.763258   -3.268083    2.673197
     78          1           0        0.596103   -4.381939    2.269155
     79          1           0       -0.131919    2.999455   -2.467865
     80          1           0        0.471189    4.446602   -3.130626
     81          1           0       -0.286200    4.455827   -1.522767
     82          1           0        0.893109    6.887235   -1.920493
     83          1           0        1.457373    6.247657   -3.490164
     84          1           0        2.259719    7.671391   -2.761973
     85          1           0        7.975751    4.777316    0.297210
     86          1           0        9.726531    2.587261   -0.291170
     87          1           0        8.002763    5.560781   -1.922871
     88          1           0        8.137272    3.876482   -2.476199
     89          1           0        9.500130    4.687601   -1.734775
     90          1           0        8.956796    2.353665    2.295010
     91          1           0        8.685958    4.040778    2.086623
     92          1           0       10.812340    4.363504    2.247613
     93          1           0       11.257947    3.126115    1.062444
     94          1           0       11.121626    2.711681    2.798990
     95          1           0        8.847400   -3.637307    0.579279
     96          1           0        8.860693   -2.926332    2.262292
     97          1           0        9.669719   -2.000343    0.929661
     98          1           0        3.718489   -4.099799    1.935797
     99          1           0        2.840310   -7.898028    0.179725
    100          1           0        3.125830   -6.974403   -1.299139
    101          1           0        1.566818   -6.892992   -0.572098
    102          1           0       -2.946504   -4.734377   -0.545377
    103          1           0       -2.167673   -3.413527   -1.522946
    104          1           0       -4.011870   -1.947919   -0.616549
    105          1           0       -5.326466   -5.553019   -1.328025
    106          1           0       -6.717925   -5.251653   -0.335330
    107          1           0       -5.061986   -5.430624    0.354920
    108          1           0       -6.311487   -1.492458   -0.762710
    109          1           0       -7.137085   -2.520639    0.228816
    110          1           0       -8.593686   -3.061355   -1.175318
    111          1           0       -7.396267   -3.794816   -2.258738
    112          1           0       -7.527270   -2.072768   -3.795382
    113          1           0       -7.019542   -0.942706   -2.566138
    114          1           0       -9.858844   -1.939125   -2.636064
    115          1           0       -8.717748   -0.452410   -4.689232
    116          1           0       -9.994420    0.553029   -3.892923
    117          1           0      -10.492069   -0.949877   -4.532212
    118          1           0       -9.323247    0.935792   -1.789908
    119          1           0       -8.681961   -0.378034   -0.833006
    120          1           0      -10.645353   -0.673855    0.144191
    121          1           0      -11.431037   -1.127320   -1.405704
    122          1           0      -12.669939    0.560124   -1.186225
    123          1           0      -11.373173    1.609252   -1.628889
    124          1           0      -11.982531    0.807962    1.393551
    125          1           0      -13.878120    1.921193    1.308087
    126          1           0      -13.575613    2.237902   -0.443617
    127          1           0      -13.159110    3.395797    0.770685
    128          1           0      -10.620422    3.348308    0.324550
    129          1           0       -9.723897    1.962823    0.827633
    130          1           0      -10.972456    2.263668    3.081340
    131          1           0      -11.452604    3.827602    2.643377
    132          1           0       -9.559333    4.945748    2.836047
    133          1           0       -8.626616    3.663257    1.963965
    134          1           0       -9.744777    3.178902    4.788241
    135          1           0       -9.168177    5.090132    5.546596
    136          1           0       -8.115510    5.577268    4.135982
    137          1           0       -7.487282    4.567019    5.461189
    138          1           0       -8.274332    1.501173    3.663350
    139          1           0       -7.745202    2.063190    5.111894
    140          1           0       -6.958603    2.763735    3.635023
 ---------------------------------------------------------------------

 SCF Done:  E(RCAM-B3LYP) =  -3007.16973020     A.U. after   17 cycles

 Excitation energies and oscillator strengths:

 Excited State   1:      Singlet-A      1.6645 eV  744.87 nm  f=0.3603  <S**2>=0.000
     245 -> 248       -0.19694
     246 -> 247        0.68177
     245 <- 248       -0.11450
 This state for optimization and/or second-order correction.
 Total Energy, E(TD-HF/TD-DFT) =  -3007.10856094
 Copying the excited state density for this state as the 1-particle RhoCI density.

 Excited State   2:      Singlet-A      2.2091 eV  561.24 nm  f=0.0833  <S**2>=0.000
     245 -> 247        0.62324
     246 -> 248        0.32515

 Excited State   3:      Singlet-A      3.3866 eV  366.10 nm  f=0.1168  <S**2>=0.000
     243 -> 247       -0.16323
     244 -> 247        0.61315
     245 -> 247       -0.13008
     246 -> 248        0.24645

 Excited State   4:      Singlet-A      3.4216 eV  362.36 nm  f=0.5114  <S**2>=0.000
     243 -> 247       -0.18976
     244 -> 247       -0.31364
     245 -> 247       -0.25408
     246 -> 248        0.53703

 Excited State   5:      Singlet-A      3.6181 eV  342.68 nm  f=0.2469  <S**2>=0.000
     240 -> 247        0.17562
     240 -> 249       -0.14351
     240 -> 250       -0.11373
     241 -> 247        0.20249
     243 -> 247        0.55034
     245 -> 247       -0.16348
     246 -> 248        0.18725

 The electronic state is 1-A.
 Alpha  occ. eigenvalues --  -46.88053 -19.26327 -19.23504 -19.21028 -19.19466
 Alpha  occ. eigenvalues --  -19.18922 -19.18629 -14.42336 -14.42021 -14.40043
 Alpha  occ. eigenvalues --  -14.39449 -10.40606 -10.38539 -10.35396 -10.35022
 Alpha  occ. eigenvalues --  -10.32227 -10.31767 -10.31064 -10.30990 -10.30712
 Alpha  occ. eigenvalues --  -10.30681 -10.30650 -10.30359 -10.29791 -10.29279
 Alpha  occ. eigenvalues --  -10.28960 -10.28604 -10.28500 -10.28225 -10.28096
 Alpha  occ. eigenvalues --  -10.28079 -10.28053 -10.27923 -10.27899 -10.27800
 Alpha  occ. eigenvalues --  -10.27434 -10.27404 -10.27233 -10.26886 -10.26864
 Alpha  occ. eigenvalues --  -10.26742 -10.26462 -10.26370 -10.26226 -10.26210
 Alpha  occ. eigenvalues --  -10.26091 -10.26008 -10.25945 -10.25628 -10.25572
 Alpha  occ. eigenvalues --  -10.25551 -10.25485 -10.25358 -10.25358 -10.25255
 Alpha  occ. eigenvalues --  -10.25149 -10.25119 -10.25116 -10.24958 -10.24886
 Alpha  occ. eigenvalues --  -10.24829 -10.24666 -10.24401 -10.24323 -10.24223
 Alpha  occ. eigenvalues --  -10.23927  -3.16619  -1.91524  -1.91085  -1.90917
 Alpha  occ. eigenvalues --   -1.17269  -1.15024  -1.09979  -1.09719  -1.07977
 Alpha  occ. eigenvalues --   -1.06276  -1.04124  -1.01986  -1.01130  -1.00395
 Alpha  occ. eigenvalues --   -0.92013  -0.90488  -0.90146  -0.89786  -0.89276
 Alpha  occ. eigenvalues --   -0.88948  -0.88480  -0.87663  -0.87379  -0.86841
 Alpha  occ. eigenvalues --   -0.86814  -0.85758  -0.84464  -0.83779  -0.83398
 Alpha  occ. eigenvalues --   -0.82807  -0.82109  -0.81394  -0.80934  -0.80560
 Alpha  occ. eigenvalues --   -0.79836  -0.78503  -0.78045  -0.77324  -0.76334
 Alpha  occ. eigenvalues --   -0.75888  -0.75807  -0.74756  -0.74422  -0.74197
 Alpha  occ. eigenvalues --   -0.73440  -0.72003  -0.71436  -0.70505  -0.68354
 Alpha  occ. eigenvalues --   -0.68131  -0.67933  -0.66933  -0.66719  -0.65549
 Alpha  occ. eigenvalues --   -0.65260  -0.65092  -0.64652  -0.63997  -0.63936
 Alpha  occ. eigenvalues --   -0.63695  -0.63574  -0.62419  -0.61561  -0.60753
 Alpha  occ. eigenvalues --   -0.59885  -0.59782  -0.59192  -0.58479  -0.58239
 Alpha  occ. eigenvalues --   -0.57589  -0.57209  -0.56288  -0.56016  -0.55803
 Alpha  occ. eigenvalues --   -0.55223  -0.54657  -0.54199  -0.54024  -0.53755
 Alpha  occ. eigenvalues --   -0.53664  -0.53567  -0.53229  -0.52957  -0.52907
 Alpha  occ. eigenvalues --   -0.52766  -0.52608  -0.52362  -0.52212  -0.51955
 Alpha  occ. eigenvalues --   -0.51855  -0.51500  -0.51283  -0.51134  -0.50812
 Alpha  occ. eigenvalues --   -0.50605  -0.50364  -0.50005  -0.49814  -0.49751
 Alpha  occ. eigenvalues --   -0.49510  -0.49329  -0.49228  -0.48907  -0.48678
 Alpha  occ. eigenvalues --   -0.48640  -0.48337  -0.48103  -0.47955  -0.47469
 Alpha  occ. eigenvalues --   -0.47307  -0.47098  -0.47075  -0.46993  -0.46809
 Alpha  occ. eigenvalues --   -0.46637  -0.46440  -0.46305  -0.46198  -0.45801
 Alpha  occ. eigenvalues --   -0.45748  -0.45600  -0.45452  -0.45216  -0.45174
 Alpha  occ. eigenvalues --   -0.44893  -0.44585  -0.44392  -0.44097  -0.43757
 Alpha  occ. eigenvalues --   -0.43649  -0.43556  -0.43291  -0.42925  -0.42913
 Alpha  occ. eigenvalues --   -0.42744  -0.42381  -0.42257  -0.42210  -0.41770
 Alpha  occ. eigenvalues --   -0.41602  -0.41417  -0.41316  -0.41002  -0.40931
 Alpha  occ. eigenvalues --   -0.40835  -0.40739  -0.40483  -0.40359  -0.39965
 Alpha  occ. eigenvalues --   -0.39745  -0.39419  -0.39341  -0.39029  -0.38791
 Alpha  occ. eigenvalues --   -0.38696  -0.38413  -0.38123  -0.37956  -0.37715
 Alpha  occ. eigenvalues --   -0.37707  -0.37633  -0.36611  -0.36584  -0.36350
 Alpha  occ. eigenvalues --   -0.36265  -0.35071  -0.34756  -0.34364  -0.34315
 Alpha  occ. eigenvalues --   -0.33734  -0.33559  -0.33012  -0.31484  -0.31172
 Alpha  occ. eigenvalues --   -0.30929  -0.30069  -0.29948  -0.29521  -0.23929
 Alpha  occ. eigenvalues --   -0.20920
 Alpha virt. eigenvalues --   -0.08529  -0.02149   0.00061   0.01917   0.03192
 Alpha virt. eigenvalues --    0.03554   0.04014   0.05483   0.05945   0.06334
 Alpha virt. eigenvalues --    0.07893   0.08176   0.08551   0.09018   0.09369

 Mulliken charges:
               1
     1  Mg   0.833936
     2  C   -0.027466
     3  C   -0.083424
     4  C   -0.061314
     5  C   -0.067367
     6  N   -0.251389
     7  C   -0.036488
     8  C   -0.089493
     9  C   -0.071608
    10  C    0.059437
    11  C    0.094850
    12  C    0.099100
    13  C    0.108786
    14  C    0.161185
    15  O   -0.253982
    16  O   -0.326987
    17  N   -0.439147
    18  C    0.162971
    19  C   -0.153377
    20  C   -0.000882
    21  C    0.173764
    22  C    0.108014
    23  C   -0.000896
    24  O   -0.216565
    25  C    0.027279
    26  N   -0.318631
    27  C    0.050770
    28  C   -0.006947
    29  C   -0.032534
    30  C    0.030088
    31  C    0.059801
    32  C    0.011047
    33  C    0.011006
    34  N   -0.414276
    35  C    0.132478
    36  C   -0.205013
    37  C   -0.013961
    38  C    0.163529
    39  C    0.141486
    40  C    0.043877
    41  O   -0.164262
    42  C   -0.005072
    43  C    0.202453
    44  O   -0.219374
    45  O   -0.340951
    46  C    0.167648
    47  C    0.287779
    48  C   -0.144758
    49  C   -0.128199
    50  C    0.054672
    51  C    0.045625
    52  C    0.002917
    53  C    0.058757
    54  C   -0.177684
    55  C    0.110777
    56  C    0.018015
    57  C    0.047071
    58  C    0.020063
    59  C   -0.124833
    60  C    0.045505
    61  C    0.017995
    62  C    0.026824
    63  C    0.096060
    64  C   -0.188554
    65  C    0.048590
    66  C    0.055162
    67  H   -0.024936
    68  H    0.000172
    69  H   -0.029847
    70  H    0.030799
    71  H    0.009307
    72  H    0.028997
    73  H    0.012052
    74  H    0.033912
    75  H    0.015422
    76  H    0.005451
    77  H    0.025673
    78  H    0.034683
    79  H    0.008936
    80  H    0.007264
    81  H    0.041595
    82  H    0.044985
    83  H    0.035372
    84  H    0.026740
    85  H    0.004831
    86  H    0.007649
    87  H    0.027877
    88  H    0.011949
    89  H    0.010672
    90  H    0.006633
    91  H    0.008091
    92  H    0.011928
    93  H    0.001975
    94  H    0.026631
    95  H    0.053465
    96  H    0.044653
    97  H    0.015124
    98  H    0.037758
    99  H    0.032160
   100  H    0.034981
   101  H    0.040447
   102  H    0.009119
   103  H    0.032100
   104  H   -0.013894
   105  H    0.031637
   106  H    0.015126
   107  H    0.036014
   108  H   -0.002198
   109  H   -0.000802
   110  H    0.015551
   111  H    0.007041
   112  H   -0.007077
   113  H    0.005929
   114  H   -0.006409
   115  H    0.006503
   116  H   -0.007051
   117  H    0.007732
   118  H    0.002231
   119  H   -0.018789
   120  H   -0.000842
   121  H    0.003171
   122  H   -0.008015
   123  H    0.002187
   124  H   -0.006530
   125  H    0.004967
   126  H    0.002466
   127  H   -0.000135
   128  H   -0.010853
   129  H   -0.005669
   130  H   -0.004302
   131  H   -0.005242
   132  H   -0.009721
   133  H    0.003386
   134  H   -0.001705
   135  H    0.010109
   136  H    0.014362
   137  H   -0.000956
   138  H   -0.005741
   139  H   -0.005944
   140  H    0.014961
 Sum of Mulliken charges =  -0.00000

 Dipole moment (field-independent basis, Debye):
    X=             -5.5595    Y=              2.4833    Z=              1.1864  Tot=              6.2034
 Quadrupole moment (field-independent basis, Debye-Ang):
   XX=           -375.8081   YY=           -437.7765   ZZ=           -402.8056
   XY=             30.9064   XZ=              9.1523   YZ=             -0.3003

 Normal termination of Gaussian 16 at Thu May  5 02:00:08 2022.
