 Gaussian 16, Revision A.03,
 Gaussian 16:  ES64L-G16RevA.03 25-Dec-2016

 ---------------------------------
 #p PBE1PBE/Def2SVP td=(nstates=5)
 ---------------------------------

 ----------------------------------------------------
 step_51_chromophore_21 TDDFT with PBE1PBE functional
 ----------------------------------------------------
 Symbolic Z-matrix:
 Charge =  0 Multiplicity = 1

                         Standard orientation:
 ---------------------------------------------------------------------
 Center     Atomic      Atomic             Coordinates (Angstroms)
 Number     Number       Type             X           Y           Z
 ---------------------------------------------------------------------
      1         12           0        4.654108    0.982263    0.063857
      2          6           0        4.032043   -2.419689    0.550809
      3          6           0        1.299084    1.233291   -1.004210
      4          6           0        5.248396    4.210219   -0.817637
      5          6           0        8.138415    0.440930    0.680018
      6          7           0        2.858350   -0.449868   -0.088727
      7          6           0        2.829999   -1.767979    0.146184
      8          6           0        1.397548   -2.292823    0.219198
      9          6           0        0.638682   -1.223713   -0.618248
     10          6           0        1.623414   -0.064384   -0.592779
     11          6           0        0.174016   -1.679077   -2.032800
     12          6           0        0.921721   -2.402929    1.709862
     13          6           0       -0.028460   -3.558448    1.921464
     14          6           0       -0.875922   -4.045994    0.699986
     15          8           0       -0.561312   -4.952979   -0.094679
     16          8           0       -1.992733   -3.253509    0.537435
     17          7           0        3.502553    2.508395   -0.705064
     18          6           0        2.093970    2.394377   -1.049439
     19          6           0        1.735611    3.681974   -1.696740
     20          6           0        2.785495    4.618762   -1.491347
     21          6           0        3.889356    3.826161   -0.915980
     22          6           0        0.389560    3.912400   -2.183220
     23          6           0        2.917709    6.054283   -1.908763
     24          8           0        3.903089    6.755662   -1.661612
     25          6           0        1.761431    6.724262   -2.558382
     26          7           0        6.471467    2.081096   -0.051776
     27          6           0        6.424642    3.428373   -0.421498
     28          6           0        7.888356    3.962228   -0.420300
     29          6           0        8.819713    2.871247    0.242315
     30          6           0        7.779402    1.723123    0.284444
     31          6           0        8.416314    4.579269   -1.691147
     32          6           0        9.236359    3.198766    1.666655
     33          6           0       10.709427    3.310248    1.986449
     34          7           0        5.865409   -0.564702    0.555017
     35          6           0        7.274591   -0.697442    0.769628
     36          6           0        7.585019   -2.142058    0.984039
     37          6           0        6.344996   -2.776502    0.990200
     38          6           0        5.347257   -1.848260    0.665169
     39          6           0        8.908095   -2.735970    1.189858
     40          6           0        5.741813   -4.082657    1.301531
     41          8           0        6.238800   -5.156371    1.616132
     42          6           0        4.215706   -3.888249    0.989144
     43          6           0        3.884991   -4.867091   -0.026666
     44          8           0        4.180924   -4.848812   -1.216630
     45          8           0        3.073452   -5.858362    0.487981
     46          6           0        2.627748   -6.958481   -0.329036
     47          6           0       -2.739672   -3.667458   -0.630074
     48          6           0       -4.124876   -3.033015   -0.624957
     49          6           0       -5.408823   -3.509595   -0.567730
     50          6           0       -5.662516   -5.004183   -0.448957
     51          6           0       -6.589083   -2.545345   -0.713076
     52          6           0       -7.713513   -2.863868   -1.788179
     53          6           0       -7.773360   -1.694191   -2.803181
     54          6           0       -9.218251   -1.076485   -2.820340
     55          6           0       -9.628155   -0.454105   -4.090575
     56          6           0       -9.470329   -0.113783   -1.537479
     57          6           0      -10.859816   -0.363503   -0.877745
     58          6           0      -11.687534    0.901978   -0.861542
     59          6           0      -11.847955    1.561906    0.618968
     60          6           0      -13.185120    2.324867    0.569526
     61          6           0      -10.634714    2.523878    1.037103
     62          6           0      -10.657127    3.104200    2.463562
     63          6           0       -9.369385    3.877731    2.732759
     64          6           0       -8.922481    3.525580    4.162296
     65          6           0       -8.367340    4.806372    4.863894
     66          6           0       -7.888438    2.425599    4.093381
     67          1           0        0.268682    1.428783   -1.310616
     68          1           0        5.590237    5.217448   -1.065083
     69          1           0        9.206451    0.298954    0.858078
     70          1           0        1.446598   -3.281224   -0.237369
     71          1           0       -0.260336   -0.958413   -0.060784
     72          1           0        0.596343   -2.678797   -2.132064
     73          1           0        0.752709   -1.038877   -2.698863
     74          1           0       -0.899810   -1.593391   -2.194040
     75          1           0        0.601823   -1.427221    2.074664
     76          1           0        1.805394   -2.683885    2.284154
     77          1           0       -0.763258   -3.268083    2.673197
     78          1           0        0.596103   -4.381939    2.269155
     79          1           0       -0.131919    2.999455   -2.467865
     80          1           0        0.471189    4.446602   -3.130626
     81          1           0       -0.286200    4.455827   -1.522767
     82          1           0        0.893109    6.887235   -1.920493
     83          1           0        1.457373    6.247657   -3.490164
     84          1           0        2.259719    7.671391   -2.761973
     85          1           0        7.975751    4.777316    0.297210
     86          1           0        9.726531    2.587261   -0.291170
     87          1           0        8.002763    5.560781   -1.922871
     88          1           0        8.137272    3.876482   -2.476199
     89          1           0        9.500130    4.687601   -1.734775
     90          1           0        8.956796    2.353665    2.295010
     91          1           0        8.685958    4.040778    2.086623
     92          1           0       10.812340    4.363504    2.247613
     93          1           0       11.257947    3.126115    1.062444
     94          1           0       11.121626    2.711681    2.798990
     95          1           0        8.847400   -3.637307    0.579279
     96          1           0        8.860693   -2.926332    2.262292
     97          1           0        9.669719   -2.000343    0.929661
     98          1           0        3.718489   -4.099799    1.935797
     99          1           0        2.840310   -7.898028    0.179725
    100          1           0        3.125830   -6.974403   -1.299139
    101          1           0        1.566818   -6.892992   -0.572098
    102          1           0       -2.946504   -4.734377   -0.545377
    103          1           0       -2.167673   -3.413527   -1.522946
    104          1           0       -4.011870   -1.947919   -0.616549
    105          1           0       -5.326466   -5.553019   -1.328025
    106          1           0       -6.717925   -5.251653   -0.335330
    107          1           0       -5.061986   -5.430624    0.354920
    108          1           0       -6.311487   -1.492458   -0.762710
    109          1           0       -7.137085   -2.520639    0.228816
    110          1           0       -8.593686   -3.061355   -1.175318
    111          1           0       -7.396267   -3.794816   -2.258738
    112          1           0       -7.527270   -2.072768   -3.795382
    113          1           0       -7.019542   -0.942706   -2.566138
    114          1           0       -9.858844   -1.939125   -2.636064
    115          1           0       -8.717748   -0.452410   -4.689232
    116          1           0       -9.994420    0.553029   -3.892923
    117          1           0      -10.492069   -0.949877   -4.532212
    118          1           0       -9.323247    0.935792   -1.789908
    119          1           0       -8.681961   -0.378034   -0.833006
    120          1           0      -10.645353   -0.673855    0.144191
    121          1           0      -11.431037   -1.127320   -1.405704
    122          1           0      -12.669939    0.560124   -1.186225
    123          1           0      -11.373173    1.609252   -1.628889
    124          1           0      -11.982531    0.807962    1.393551
    125          1           0      -13.878120    1.921193    1.308087
    126          1           0      -13.575613    2.237902   -0.443617
    127          1           0      -13.159110    3.395797    0.770685
    128          1           0      -10.620422    3.348308    0.324550
    129          1           0       -9.723897    1.962823    0.827633
    130          1           0      -10.972456    2.263668    3.081340
    131          1           0      -11.452604    3.827602    2.643377
    132          1           0       -9.559333    4.945748    2.836047
    133          1           0       -8.626616    3.663257    1.963965
    134          1           0       -9.744777    3.178902    4.788241
    135          1           0       -9.168177    5.090132    5.546596
    136          1           0       -8.115510    5.577268    4.135982
    137          1           0       -7.487282    4.567019    5.461189
    138          1           0       -8.274332    1.501173    3.663350
    139          1           0       -7.745202    2.063190    5.111894
    140          1           0       -6.958603    2.763735    3.635023
 ---------------------------------------------------------------------

 SCF Done:  E(RPBE1PBE) =  -3005.35983117     A.U. after   15 cycles

 Excitation energies and oscillator strengths:

 Excited State   1:      Singlet-A      1.8285 eV  678.06 nm  f=0.3546  <S**2>=0.000
     245 -> 248       -0.18773
     246 -> 247        0.68929
     246 <- 247       -0.10286
 This state for optimization and/or second-order correction.
 Total Energy, E(TD-HF/TD-DFT) =  -3005.29263482
 Copying the excited state density for this state as the 1-particle RhoCI density.

 Excited State   2:      Singlet-A      2.2168 eV  559.28 nm  f=0.0854  <S**2>=0.000
     245 -> 247        0.63759
     246 -> 248        0.29667

 Excited State   3:      Singlet-A      3.0431 eV  407.43 nm  f=0.0006  <S**2>=0.000
     241 -> 247        0.10311
     244 -> 247        0.68562

 Excited State   4:      Singlet-A      3.1816 eV  389.70 nm  f=0.0202  <S**2>=0.000
     240 -> 247        0.27728
     241 -> 247        0.36620
     242 -> 247        0.45794
     244 -> 247       -0.10386
     246 -> 248       -0.19163

 Excited State   5:      Singlet-A      3.2006 eV  387.38 nm  f=0.0105  <S**2>=0.000
     240 -> 247        0.48781
     240 -> 249        0.15217
     241 -> 247       -0.42917
     241 -> 249       -0.10081

 The electronic state is 1-A.
 Alpha  occ. eigenvalues --  -46.91485 -19.26977 -19.24158 -19.21325 -19.19702
 Alpha  occ. eigenvalues --  -19.19073 -19.18839 -14.41784 -14.41602 -14.39729
 Alpha  occ. eigenvalues --  -14.39192 -10.37686 -10.35508 -10.32573 -10.32057
 Alpha  occ. eigenvalues --  -10.29598 -10.29497 -10.28754 -10.28745 -10.28523
 Alpha  occ. eigenvalues --  -10.28340 -10.28332 -10.28210 -10.27042 -10.27024
 Alpha  occ. eigenvalues --  -10.26503 -10.26330 -10.26280 -10.25871 -10.25826
 Alpha  occ. eigenvalues --  -10.25721 -10.25702 -10.25681 -10.25676 -10.25545
 Alpha  occ. eigenvalues --  -10.25231 -10.24998 -10.24874 -10.24583 -10.24579
 Alpha  occ. eigenvalues --  -10.24096 -10.24089 -10.23850 -10.23838 -10.23813
 Alpha  occ. eigenvalues --  -10.23571 -10.23538 -10.23418 -10.23277 -10.23182
 Alpha  occ. eigenvalues --  -10.23166 -10.23014 -10.22856 -10.22811 -10.22753
 Alpha  occ. eigenvalues --  -10.22737 -10.22723 -10.22712 -10.22657 -10.22405
 Alpha  occ. eigenvalues --  -10.22368 -10.22219 -10.21798 -10.21678 -10.21583
 Alpha  occ. eigenvalues --  -10.21313  -3.13630  -1.86476  -1.86015  -1.85852
 Alpha  occ. eigenvalues --   -1.12066  -1.09772  -1.04733  -1.04365  -1.02822
 Alpha  occ. eigenvalues --   -1.01080  -0.98694  -0.96600  -0.95766  -0.94984
 Alpha  occ. eigenvalues --   -0.86363  -0.84639  -0.84303  -0.83875  -0.83587
 Alpha  occ. eigenvalues --   -0.83073  -0.82739  -0.81933  -0.81487  -0.81175
 Alpha  occ. eigenvalues --   -0.81141  -0.79993  -0.78625  -0.78088  -0.77623
 Alpha  occ. eigenvalues --   -0.77042  -0.76320  -0.75615  -0.75186  -0.74762
 Alpha  occ. eigenvalues --   -0.74200  -0.72764  -0.72305  -0.71661  -0.70511
 Alpha  occ. eigenvalues --   -0.70227  -0.69877  -0.69136  -0.68576  -0.68349
 Alpha  occ. eigenvalues --   -0.67721  -0.66475  -0.65867  -0.64816  -0.62733
 Alpha  occ. eigenvalues --   -0.62562  -0.62121  -0.61355  -0.61023  -0.59985
 Alpha  occ. eigenvalues --   -0.59520  -0.59465  -0.59165  -0.58451  -0.58278
 Alpha  occ. eigenvalues --   -0.58092  -0.57743  -0.56625  -0.56126  -0.55132
 Alpha  occ. eigenvalues --   -0.54378  -0.54262  -0.53778  -0.52973  -0.52774
 Alpha  occ. eigenvalues --   -0.52125  -0.51693  -0.50808  -0.50585  -0.50307
 Alpha  occ. eigenvalues --   -0.49825  -0.49207  -0.48535  -0.48490  -0.48280
 Alpha  occ. eigenvalues --   -0.48126  -0.48096  -0.47815  -0.47510  -0.47411
 Alpha  occ. eigenvalues --   -0.47323  -0.47056  -0.46814  -0.46741  -0.46564
 Alpha  occ. eigenvalues --   -0.46340  -0.46112  -0.45925  -0.45688  -0.45308
 Alpha  occ. eigenvalues --   -0.45142  -0.45040  -0.44548  -0.44342  -0.44316
 Alpha  occ. eigenvalues --   -0.44088  -0.43982  -0.43808  -0.43512  -0.43273
 Alpha  occ. eigenvalues --   -0.43208  -0.42951  -0.42744  -0.42615  -0.42170
 Alpha  occ. eigenvalues --   -0.41949  -0.41740  -0.41684  -0.41615  -0.41337
 Alpha  occ. eigenvalues --   -0.41278  -0.41184  -0.40948  -0.40944  -0.40560
 Alpha  occ. eigenvalues --   -0.40490  -0.40305  -0.40140  -0.39983  -0.39861
 Alpha  occ. eigenvalues --   -0.39569  -0.39324  -0.39161  -0.38900  -0.38596
 Alpha  occ. eigenvalues --   -0.38403  -0.38349  -0.38154  -0.37770  -0.37620
 Alpha  occ. eigenvalues --   -0.37560  -0.37130  -0.37033  -0.36947  -0.36609
 Alpha  occ. eigenvalues --   -0.36301  -0.36288  -0.36183  -0.35900  -0.35687
 Alpha  occ. eigenvalues --   -0.35650  -0.35626  -0.35435  -0.35124  -0.34728
 Alpha  occ. eigenvalues --   -0.34644  -0.34220  -0.34068  -0.33777  -0.33739
 Alpha  occ. eigenvalues --   -0.33508  -0.33216  -0.33088  -0.32771  -0.32701
 Alpha  occ. eigenvalues --   -0.32601  -0.32573  -0.31632  -0.31455  -0.31413
 Alpha  occ. eigenvalues --   -0.31083  -0.29993  -0.29608  -0.29552  -0.29303
 Alpha  occ. eigenvalues --   -0.28723  -0.28711  -0.28187  -0.26686  -0.26103
 Alpha  occ. eigenvalues --   -0.26072  -0.25588  -0.25394  -0.25163  -0.20871
 Alpha  occ. eigenvalues --   -0.18586
 Alpha virt. eigenvalues --   -0.11011  -0.05578  -0.04132  -0.02478  -0.01166
 Alpha virt. eigenvalues --   -0.00424   0.00132   0.01299   0.01380   0.02891
 Alpha virt. eigenvalues --    0.03859   0.04133   0.05323   0.05420   0.06009

 Mulliken charges:
               1
     1  Mg   0.987114
     2  C   -0.045771
     3  C   -0.080563
     4  C   -0.057209
     5  C   -0.063911
     6  N   -0.351879
     7  C    0.046557
     8  C   -0.168271
     9  C   -0.141756
    10  C    0.088671
    11  C    0.035823
    12  C    0.047574
    13  C    0.037929
    14  C    0.216425
    15  O   -0.284743
    16  O   -0.354601
    17  N   -0.545616
    18  C    0.188878
    19  C   -0.183559
    20  C   -0.049349
    21  C    0.204953
    22  C    0.046634
    23  C    0.047146
    24  O   -0.253852
    25  C   -0.043774
    26  N   -0.420200
    27  C    0.084994
    28  C   -0.085811
    29  C   -0.108969
    30  C    0.065067
    31  C    0.000542
    32  C   -0.041479
    33  C   -0.060554
    34  N   -0.534394
    35  C    0.157161
    36  C   -0.227104
    37  C   -0.059656
    38  C    0.213148
    39  C    0.082185
    40  C    0.138824
    41  O   -0.210748
    42  C   -0.113160
    43  C    0.296719
    44  O   -0.256001
    45  O   -0.375592
    46  C    0.114961
    47  C    0.240088
    48  C   -0.153833
    49  C   -0.173626
    50  C   -0.007735
    51  C   -0.013108
    52  C   -0.059181
    53  C   -0.000221
    54  C   -0.260375
    55  C    0.049944
    56  C   -0.037919
    57  C   -0.013423
    58  C   -0.038164
    59  C   -0.209648
    60  C   -0.011273
    61  C   -0.037977
    62  C   -0.029674
    63  C    0.035146
    64  C   -0.280546
    65  C   -0.013656
    66  C   -0.005684
    67  H    0.006195
    68  H    0.033035
    69  H    0.002331
    70  H    0.073943
    71  H    0.046678
    72  H    0.056461
    73  H    0.041777
    74  H    0.059503
    75  H    0.046193
    76  H    0.042460
    77  H    0.058265
    78  H    0.066263
    79  H    0.035522
    80  H    0.036370
    81  H    0.068373
    82  H    0.071085
    83  H    0.061580
    84  H    0.054007
    85  H    0.043821
    86  H    0.042405
    87  H    0.054539
    88  H    0.041513
    89  H    0.038572
    90  H    0.041637
    91  H    0.039354
    92  H    0.040392
    93  H    0.029488
    94  H    0.053362
    95  H    0.081008
    96  H    0.073684
    97  H    0.043303
    98  H    0.074887
    99  H    0.054311
   100  H    0.055802
   101  H    0.063203
   102  H    0.037713
   103  H    0.061060
   104  H    0.016632
   105  H    0.058825
   106  H    0.042728
   107  H    0.063337
   108  H    0.026414
   109  H    0.033619
   110  H    0.046043
   111  H    0.041616
   112  H    0.026350
   113  H    0.038495
   114  H    0.033035
   115  H    0.034020
   116  H    0.021415
   117  H    0.035035
   118  H    0.032929
   119  H    0.017915
   120  H    0.031768
   121  H    0.034266
   122  H    0.025681
   123  H    0.033755
   124  H    0.029932
   125  H    0.032373
   126  H    0.029609
   127  H    0.026919
   128  H    0.022538
   129  H    0.029495
   130  H    0.026629
   131  H    0.027368
   132  H    0.024708
   133  H    0.034377
   134  H    0.035167
   135  H    0.038332
   136  H    0.041039
   137  H    0.027090
   138  H    0.023254
   139  H    0.023126
   140  H    0.042151
 Sum of Mulliken charges =  -0.00000

 Dipole moment (field-independent basis, Debye):
    X=             -5.4234    Y=              2.4048    Z=              1.2642  Tot=              6.0658
 Quadrupole moment (field-independent basis, Debye-Ang):
   XX=           -368.5694   YY=           -435.0409   ZZ=           -400.4224
   XY=             31.6561   XZ=              9.9115   YZ=              0.0381

 Normal termination of Gaussian 16 at Thu May  5 02:32:14 2022.
