 Gaussian 16, Revision A.03,
 Gaussian 16:  ES64L-G16RevA.03 25-Dec-2016

 --------------------------------
 #p wB97XD/Def2SVP td=(nstates=5)
 --------------------------------

 ---------------------------------------------------
 step_51_chromophore_21 TDDFT with wB97XD functional
 ---------------------------------------------------
 Symbolic Z-matrix:
 Charge =  0 Multiplicity = 1

                         Standard orientation:
 ---------------------------------------------------------------------
 Center     Atomic      Atomic             Coordinates (Angstroms)
 Number     Number       Type             X           Y           Z
 ---------------------------------------------------------------------
      1         12           0        4.654108    0.982263    0.063857
      2          6           0        4.032043   -2.419689    0.550809
      3          6           0        1.299084    1.233291   -1.004210
      4          6           0        5.248396    4.210219   -0.817637
      5          6           0        8.138415    0.440930    0.680018
      6          7           0        2.858350   -0.449868   -0.088727
      7          6           0        2.829999   -1.767979    0.146184
      8          6           0        1.397548   -2.292823    0.219198
      9          6           0        0.638682   -1.223713   -0.618248
     10          6           0        1.623414   -0.064384   -0.592779
     11          6           0        0.174016   -1.679077   -2.032800
     12          6           0        0.921721   -2.402929    1.709862
     13          6           0       -0.028460   -3.558448    1.921464
     14          6           0       -0.875922   -4.045994    0.699986
     15          8           0       -0.561312   -4.952979   -0.094679
     16          8           0       -1.992733   -3.253509    0.537435
     17          7           0        3.502553    2.508395   -0.705064
     18          6           0        2.093970    2.394377   -1.049439
     19          6           0        1.735611    3.681974   -1.696740
     20          6           0        2.785495    4.618762   -1.491347
     21          6           0        3.889356    3.826161   -0.915980
     22          6           0        0.389560    3.912400   -2.183220
     23          6           0        2.917709    6.054283   -1.908763
     24          8           0        3.903089    6.755662   -1.661612
     25          6           0        1.761431    6.724262   -2.558382
     26          7           0        6.471467    2.081096   -0.051776
     27          6           0        6.424642    3.428373   -0.421498
     28          6           0        7.888356    3.962228   -0.420300
     29          6           0        8.819713    2.871247    0.242315
     30          6           0        7.779402    1.723123    0.284444
     31          6           0        8.416314    4.579269   -1.691147
     32          6           0        9.236359    3.198766    1.666655
     33          6           0       10.709427    3.310248    1.986449
     34          7           0        5.865409   -0.564702    0.555017
     35          6           0        7.274591   -0.697442    0.769628
     36          6           0        7.585019   -2.142058    0.984039
     37          6           0        6.344996   -2.776502    0.990200
     38          6           0        5.347257   -1.848260    0.665169
     39          6           0        8.908095   -2.735970    1.189858
     40          6           0        5.741813   -4.082657    1.301531
     41          8           0        6.238800   -5.156371    1.616132
     42          6           0        4.215706   -3.888249    0.989144
     43          6           0        3.884991   -4.867091   -0.026666
     44          8           0        4.180924   -4.848812   -1.216630
     45          8           0        3.073452   -5.858362    0.487981
     46          6           0        2.627748   -6.958481   -0.329036
     47          6           0       -2.739672   -3.667458   -0.630074
     48          6           0       -4.124876   -3.033015   -0.624957
     49          6           0       -5.408823   -3.509595   -0.567730
     50          6           0       -5.662516   -5.004183   -0.448957
     51          6           0       -6.589083   -2.545345   -0.713076
     52          6           0       -7.713513   -2.863868   -1.788179
     53          6           0       -7.773360   -1.694191   -2.803181
     54          6           0       -9.218251   -1.076485   -2.820340
     55          6           0       -9.628155   -0.454105   -4.090575
     56          6           0       -9.470329   -0.113783   -1.537479
     57          6           0      -10.859816   -0.363503   -0.877745
     58          6           0      -11.687534    0.901978   -0.861542
     59          6           0      -11.847955    1.561906    0.618968
     60          6           0      -13.185120    2.324867    0.569526
     61          6           0      -10.634714    2.523878    1.037103
     62          6           0      -10.657127    3.104200    2.463562
     63          6           0       -9.369385    3.877731    2.732759
     64          6           0       -8.922481    3.525580    4.162296
     65          6           0       -8.367340    4.806372    4.863894
     66          6           0       -7.888438    2.425599    4.093381
     67          1           0        0.268682    1.428783   -1.310616
     68          1           0        5.590237    5.217448   -1.065083
     69          1           0        9.206451    0.298954    0.858078
     70          1           0        1.446598   -3.281224   -0.237369
     71          1           0       -0.260336   -0.958413   -0.060784
     72          1           0        0.596343   -2.678797   -2.132064
     73          1           0        0.752709   -1.038877   -2.698863
     74          1           0       -0.899810   -1.593391   -2.194040
     75          1           0        0.601823   -1.427221    2.074664
     76          1           0        1.805394   -2.683885    2.284154
     77          1           0       -0.763258   -3.268083    2.673197
     78          1           0        0.596103   -4.381939    2.269155
     79          1           0       -0.131919    2.999455   -2.467865
     80          1           0        0.471189    4.446602   -3.130626
     81          1           0       -0.286200    4.455827   -1.522767
     82          1           0        0.893109    6.887235   -1.920493
     83          1           0        1.457373    6.247657   -3.490164
     84          1           0        2.259719    7.671391   -2.761973
     85          1           0        7.975751    4.777316    0.297210
     86          1           0        9.726531    2.587261   -0.291170
     87          1           0        8.002763    5.560781   -1.922871
     88          1           0        8.137272    3.876482   -2.476199
     89          1           0        9.500130    4.687601   -1.734775
     90          1           0        8.956796    2.353665    2.295010
     91          1           0        8.685958    4.040778    2.086623
     92          1           0       10.812340    4.363504    2.247613
     93          1           0       11.257947    3.126115    1.062444
     94          1           0       11.121626    2.711681    2.798990
     95          1           0        8.847400   -3.637307    0.579279
     96          1           0        8.860693   -2.926332    2.262292
     97          1           0        9.669719   -2.000343    0.929661
     98          1           0        3.718489   -4.099799    1.935797
     99          1           0        2.840310   -7.898028    0.179725
    100          1           0        3.125830   -6.974403   -1.299139
    101          1           0        1.566818   -6.892992   -0.572098
    102          1           0       -2.946504   -4.734377   -0.545377
    103          1           0       -2.167673   -3.413527   -1.522946
    104          1           0       -4.011870   -1.947919   -0.616549
    105          1           0       -5.326466   -5.553019   -1.328025
    106          1           0       -6.717925   -5.251653   -0.335330
    107          1           0       -5.061986   -5.430624    0.354920
    108          1           0       -6.311487   -1.492458   -0.762710
    109          1           0       -7.137085   -2.520639    0.228816
    110          1           0       -8.593686   -3.061355   -1.175318
    111          1           0       -7.396267   -3.794816   -2.258738
    112          1           0       -7.527270   -2.072768   -3.795382
    113          1           0       -7.019542   -0.942706   -2.566138
    114          1           0       -9.858844   -1.939125   -2.636064
    115          1           0       -8.717748   -0.452410   -4.689232
    116          1           0       -9.994420    0.553029   -3.892923
    117          1           0      -10.492069   -0.949877   -4.532212
    118          1           0       -9.323247    0.935792   -1.789908
    119          1           0       -8.681961   -0.378034   -0.833006
    120          1           0      -10.645353   -0.673855    0.144191
    121          1           0      -11.431037   -1.127320   -1.405704
    122          1           0      -12.669939    0.560124   -1.186225
    123          1           0      -11.373173    1.609252   -1.628889
    124          1           0      -11.982531    0.807962    1.393551
    125          1           0      -13.878120    1.921193    1.308087
    126          1           0      -13.575613    2.237902   -0.443617
    127          1           0      -13.159110    3.395797    0.770685
    128          1           0      -10.620422    3.348308    0.324550
    129          1           0       -9.723897    1.962823    0.827633
    130          1           0      -10.972456    2.263668    3.081340
    131          1           0      -11.452604    3.827602    2.643377
    132          1           0       -9.559333    4.945748    2.836047
    133          1           0       -8.626616    3.663257    1.963965
    134          1           0       -9.744777    3.178902    4.788241
    135          1           0       -9.168177    5.090132    5.546596
    136          1           0       -8.115510    5.577268    4.135982
    137          1           0       -7.487282    4.567019    5.461189
    138          1           0       -8.274332    1.501173    3.663350
    139          1           0       -7.745202    2.063190    5.111894
    140          1           0       -6.958603    2.763735    3.635023
 ---------------------------------------------------------------------

 SCF Done:  E(RwB97XD) =  -3007.86793188     A.U. after   20 cycles

 Excitation energies and oscillator strengths:

 Excited State   1:      Singlet-A      1.6014 eV  774.20 nm  f=0.3580  <S**2>=0.000
     245 -> 248       -0.20316
     246 -> 247        0.67968
     245 <- 248       -0.12492
 This state for optimization and/or second-order correction.
 Total Energy, E(TD-HF/TD-DFT) =  -3007.80908003
 Copying the excited state density for this state as the 1-particle RhoCI density.

 Excited State   2:      Singlet-A      2.1502 eV  576.61 nm  f=0.0807  <S**2>=0.000
     245 -> 247        0.62162
     246 -> 248        0.32679

 Excited State   3:      Singlet-A      3.4010 eV  364.55 nm  f=0.1978  <S**2>=0.000
     242 -> 247       -0.22307
     244 -> 247        0.54263
     245 -> 247       -0.16413
     246 -> 248        0.32258

 Excited State   4:      Singlet-A      3.4296 eV  361.51 nm  f=0.4301  <S**2>=0.000
     242 -> 247       -0.13699
     244 -> 247       -0.40982
     245 -> 247       -0.22738
     246 -> 248        0.49115

 Excited State   5:      Singlet-A      3.6541 eV  339.30 nm  f=0.2532  <S**2>=0.000
     240 -> 249       -0.15952
     241 -> 247        0.27992
     241 -> 250       -0.11309
     242 -> 247        0.47819
     243 -> 247        0.20296
     245 -> 247       -0.16734
     246 -> 248        0.18544

 The electronic state is 1-A.
 Alpha  occ. eigenvalues --  -46.94396 -19.31538 -19.28734 -19.25946 -19.24524
 Alpha  occ. eigenvalues --  -19.23958 -19.23579 -14.46938 -14.46635 -14.44689
 Alpha  occ. eigenvalues --  -14.44087 -10.44431 -10.42381 -10.39430 -10.38989
 Alpha  occ. eigenvalues --  -10.36122 -10.35840 -10.35100 -10.35005 -10.34775
 Alpha  occ. eigenvalues --  -10.34734 -10.34695 -10.34408 -10.33512 -10.33297
 Alpha  occ. eigenvalues --  -10.33111 -10.32671 -10.32650 -10.32172 -10.32146
 Alpha  occ. eigenvalues --  -10.32120 -10.32114 -10.31940 -10.31884 -10.31849
 Alpha  occ. eigenvalues --  -10.31491 -10.31432 -10.31333 -10.30949 -10.30901
 Alpha  occ. eigenvalues --  -10.30682 -10.30380 -10.30315 -10.30199 -10.30168
 Alpha  occ. eigenvalues --  -10.29974 -10.29952 -10.29791 -10.29540 -10.29525
 Alpha  occ. eigenvalues --  -10.29507 -10.29400 -10.29286 -10.29193 -10.29105
 Alpha  occ. eigenvalues --  -10.29070 -10.29058 -10.29049 -10.28999 -10.28798
 Alpha  occ. eigenvalues --  -10.28741 -10.28578 -10.28214 -10.28126 -10.28021
 Alpha  occ. eigenvalues --  -10.27750  -3.20399  -1.93993  -1.93535  -1.93366
 Alpha  occ. eigenvalues --   -1.19433  -1.17192  -1.12223  -1.11934  -1.10152
 Alpha  occ. eigenvalues --   -1.08473  -1.06120  -1.03974  -1.03150  -1.02431
 Alpha  occ. eigenvalues --   -0.93994  -0.92305  -0.91957  -0.91544  -0.91136
 Alpha  occ. eigenvalues --   -0.90748  -0.90418  -0.89600  -0.89163  -0.88764
 Alpha  occ. eigenvalues --   -0.88736  -0.87649  -0.86295  -0.85661  -0.85288
 Alpha  occ. eigenvalues --   -0.84702  -0.84046  -0.83301  -0.82828  -0.82418
 Alpha  occ. eigenvalues --   -0.81812  -0.80475  -0.79945  -0.79231  -0.78189
 Alpha  occ. eigenvalues --   -0.77836  -0.77580  -0.76707  -0.76252  -0.76027
 Alpha  occ. eigenvalues --   -0.75349  -0.74003  -0.73406  -0.72433  -0.70324
 Alpha  occ. eigenvalues --   -0.70067  -0.69784  -0.68911  -0.68640  -0.67513
 Alpha  occ. eigenvalues --   -0.67122  -0.67016  -0.66639  -0.65917  -0.65791
 Alpha  occ. eigenvalues --   -0.65701  -0.65404  -0.64257  -0.63548  -0.62664
 Alpha  occ. eigenvalues --   -0.61878  -0.61731  -0.61190  -0.60437  -0.60216
 Alpha  occ. eigenvalues --   -0.59536  -0.59145  -0.58273  -0.57967  -0.57724
 Alpha  occ. eigenvalues --   -0.57213  -0.56590  -0.56027  -0.55924  -0.55665
 Alpha  occ. eigenvalues --   -0.55547  -0.55477  -0.55157  -0.54833  -0.54812
 Alpha  occ. eigenvalues --   -0.54701  -0.54525  -0.54269  -0.54105  -0.53899
 Alpha  occ. eigenvalues --   -0.53716  -0.53417  -0.53202  -0.53063  -0.52670
 Alpha  occ. eigenvalues --   -0.52491  -0.52319  -0.51953  -0.51723  -0.51652
 Alpha  occ. eigenvalues --   -0.51424  -0.51279  -0.51125  -0.50823  -0.50605
 Alpha  occ. eigenvalues --   -0.50531  -0.50262  -0.50023  -0.49860  -0.49400
 Alpha  occ. eigenvalues --   -0.49211  -0.49015  -0.48950  -0.48869  -0.48638
 Alpha  occ. eigenvalues --   -0.48587  -0.48363  -0.48176  -0.48146  -0.47737
 Alpha  occ. eigenvalues --   -0.47672  -0.47487  -0.47334  -0.47137  -0.47040
 Alpha  occ. eigenvalues --   -0.46838  -0.46488  -0.46327  -0.46060  -0.45680
 Alpha  occ. eigenvalues --   -0.45542  -0.45470  -0.45234  -0.44840  -0.44767
 Alpha  occ. eigenvalues --   -0.44675  -0.44306  -0.44222  -0.44102  -0.43689
 Alpha  occ. eigenvalues --   -0.43450  -0.43316  -0.43249  -0.42904  -0.42778
 Alpha  occ. eigenvalues --   -0.42716  -0.42632  -0.42414  -0.42234  -0.41906
 Alpha  occ. eigenvalues --   -0.41650  -0.41306  -0.41160  -0.40859  -0.40706
 Alpha  occ. eigenvalues --   -0.40534  -0.40270  -0.40045  -0.39806  -0.39682
 Alpha  occ. eigenvalues --   -0.39595  -0.39551  -0.38683  -0.38472  -0.38320
 Alpha  occ. eigenvalues --   -0.38107  -0.37084  -0.36656  -0.36340  -0.36168
 Alpha  occ. eigenvalues --   -0.35561  -0.35530  -0.35216  -0.33446  -0.33220
 Alpha  occ. eigenvalues --   -0.33069  -0.32161  -0.32104  -0.31688  -0.25846
 Alpha  occ. eigenvalues --   -0.22708
 Alpha virt. eigenvalues --   -0.06885  -0.00249   0.02108   0.04017   0.05710
 Alpha virt. eigenvalues --    0.06218   0.06293   0.07827   0.08071   0.09205
 Alpha virt. eigenvalues --    0.10408   0.10874   0.12085   0.12170   0.12811

 Mulliken charges:
               1
     1  Mg   0.974123
     2  C   -0.043797
     3  C   -0.094288
     4  C   -0.072044
     5  C   -0.081567
     6  N   -0.317406
     7  C    0.009759
     8  C   -0.129848
     9  C   -0.120500
    10  C    0.077666
    11  C    0.045350
    12  C    0.055441
    13  C    0.053284
    14  C    0.204941
    15  O   -0.282194
    16  O   -0.353672
    17  N   -0.518742
    18  C    0.178852
    19  C   -0.168455
    20  C   -0.045335
    21  C    0.197903
    22  C    0.058058
    23  C    0.045876
    24  O   -0.247575
    25  C   -0.034941
    26  N   -0.389996
    27  C    0.071187
    28  C   -0.057949
    29  C   -0.084723
    30  C    0.057825
    31  C    0.011076
    32  C   -0.029844
    33  C   -0.044227
    34  N   -0.501614
    35  C    0.147383
    36  C   -0.219011
    37  C   -0.057316
    38  C    0.196727
    39  C    0.094905
    40  C    0.120431
    41  O   -0.200669
    42  C   -0.075148
    43  C    0.271091
    44  O   -0.249631
    45  O   -0.373336
    46  C    0.130263
    47  C    0.262537
    48  C   -0.162812
    49  C   -0.158120
    50  C    0.000581
    51  C    0.004711
    52  C   -0.044836
    53  C    0.017220
    54  C   -0.226726
    55  C    0.060274
    56  C   -0.020959
    57  C    0.001665
    58  C   -0.020200
    59  C   -0.181671
    60  C   -0.001056
    61  C   -0.018414
    62  C   -0.016709
    63  C    0.050806
    64  C   -0.250031
    65  C   -0.001863
    66  C    0.004756
    67  H   -0.000037
    68  H    0.027524
    69  H   -0.003394
    70  H    0.053079
    71  H    0.036309
    72  H    0.051625
    73  H    0.035581
    74  H    0.054390
    75  H    0.040592
    76  H    0.030270
    77  H    0.053469
    78  H    0.062331
    79  H    0.031587
    80  H    0.029248
    81  H    0.065111
    82  H    0.067810
    83  H    0.056824
    84  H    0.052360
    85  H    0.031588
    86  H    0.032432
    87  H    0.049674
    88  H    0.033974
    89  H    0.033396
    90  H    0.030647
    91  H    0.032050
    92  H    0.033845
    93  H    0.022012
    94  H    0.048734
    95  H    0.076327
    96  H    0.068008
    97  H    0.037368
    98  H    0.068259
    99  H    0.050193
   100  H    0.051726
   101  H    0.060116
   102  H    0.029485
   103  H    0.052542
   104  H    0.011996
   105  H    0.053650
   106  H    0.038481
   107  H    0.058405
   108  H    0.017023
   109  H    0.025312
   110  H    0.037589
   111  H    0.032549
   112  H    0.018928
   113  H    0.028137
   114  H    0.016385
   115  H    0.027938
   116  H    0.014011
   117  H    0.030614
   118  H    0.022550
   119  H    0.004374
   120  H    0.023163
   121  H    0.026536
   122  H    0.016529
   123  H    0.023428
   124  H    0.018693
   125  H    0.027545
   126  H    0.022790
   127  H    0.020643
   128  H    0.012177
   129  H    0.015796
   130  H    0.016674
   131  H    0.019378
   132  H    0.015403
   133  H    0.025844
   134  H    0.024532
   135  H    0.032766
   136  H    0.034750
   137  H    0.021555
   138  H    0.016492
   139  H    0.016509
   140  H    0.036333
 Sum of Mulliken charges =  -0.00000

 Dipole moment (field-independent basis, Debye):
    X=             -5.6495    Y=              2.5526    Z=              1.1833  Tot=              6.3114
 Quadrupole moment (field-independent basis, Debye-Ang):
   XX=           -371.0762   YY=           -433.4009   ZZ=           -399.7494
   XY=             31.2196   XZ=              9.7282   YZ=             -0.7448

 Normal termination of Gaussian 16 at Thu May  5 03:20:04 2022.
