 Gaussian 16, Revision A.03,
 Gaussian 16:  ES64L-G16RevA.03 25-Dec-2016

 --------------------
 #p ZINDO=(nstates=5)
 --------------------

 ----------------------------
 step_51_chromophore_21 ZINDO
 ----------------------------
 Symbolic Z-matrix:
 Charge =  0 Multiplicity = 1

                         Standard orientation:
 ---------------------------------------------------------------------
 Center     Atomic      Atomic             Coordinates (Angstroms)
 Number     Number       Type             X           Y           Z
 ---------------------------------------------------------------------
      1         12           0        4.654108    0.982263    0.063857
      2          6           0        4.032043   -2.419689    0.550809
      3          6           0        1.299084    1.233291   -1.004210
      4          6           0        5.248396    4.210219   -0.817637
      5          6           0        8.138415    0.440930    0.680018
      6          7           0        2.858350   -0.449868   -0.088727
      7          6           0        2.829999   -1.767979    0.146184
      8          6           0        1.397548   -2.292823    0.219198
      9          6           0        0.638682   -1.223713   -0.618248
     10          6           0        1.623414   -0.064384   -0.592779
     11          6           0        0.174016   -1.679077   -2.032800
     12          6           0        0.921721   -2.402929    1.709862
     13          6           0       -0.028460   -3.558448    1.921464
     14          6           0       -0.875922   -4.045994    0.699986
     15          8           0       -0.561312   -4.952979   -0.094679
     16          8           0       -1.992733   -3.253509    0.537435
     17          7           0        3.502553    2.508395   -0.705064
     18          6           0        2.093970    2.394377   -1.049439
     19          6           0        1.735611    3.681974   -1.696740
     20          6           0        2.785495    4.618762   -1.491347
     21          6           0        3.889356    3.826161   -0.915980
     22          6           0        0.389560    3.912400   -2.183220
     23          6           0        2.917709    6.054283   -1.908763
     24          8           0        3.903089    6.755662   -1.661612
     25          6           0        1.761431    6.724262   -2.558382
     26          7           0        6.471467    2.081096   -0.051776
     27          6           0        6.424642    3.428373   -0.421498
     28          6           0        7.888356    3.962228   -0.420300
     29          6           0        8.819713    2.871247    0.242315
     30          6           0        7.779402    1.723123    0.284444
     31          6           0        8.416314    4.579269   -1.691147
     32          6           0        9.236359    3.198766    1.666655
     33          6           0       10.709427    3.310248    1.986449
     34          7           0        5.865409   -0.564702    0.555017
     35          6           0        7.274591   -0.697442    0.769628
     36          6           0        7.585019   -2.142058    0.984039
     37          6           0        6.344996   -2.776502    0.990200
     38          6           0        5.347257   -1.848260    0.665169
     39          6           0        8.908095   -2.735970    1.189858
     40          6           0        5.741813   -4.082657    1.301531
     41          8           0        6.238800   -5.156371    1.616132
     42          6           0        4.215706   -3.888249    0.989144
     43          6           0        3.884991   -4.867091   -0.026666
     44          8           0        4.180924   -4.848812   -1.216630
     45          8           0        3.073452   -5.858362    0.487981
     46          6           0        2.627748   -6.958481   -0.329036
     47          6           0       -2.739672   -3.667458   -0.630074
     48          6           0       -4.124876   -3.033015   -0.624957
     49          6           0       -5.408823   -3.509595   -0.567730
     50          6           0       -5.662516   -5.004183   -0.448957
     51          6           0       -6.589083   -2.545345   -0.713076
     52          6           0       -7.713513   -2.863868   -1.788179
     53          6           0       -7.773360   -1.694191   -2.803181
     54          6           0       -9.218251   -1.076485   -2.820340
     55          6           0       -9.628155   -0.454105   -4.090575
     56          6           0       -9.470329   -0.113783   -1.537479
     57          6           0      -10.859816   -0.363503   -0.877745
     58          6           0      -11.687534    0.901978   -0.861542
     59          6           0      -11.847955    1.561906    0.618968
     60          6           0      -13.185120    2.324867    0.569526
     61          6           0      -10.634714    2.523878    1.037103
     62          6           0      -10.657127    3.104200    2.463562
     63          6           0       -9.369385    3.877731    2.732759
     64          6           0       -8.922481    3.525580    4.162296
     65          6           0       -8.367340    4.806372    4.863894
     66          6           0       -7.888438    2.425599    4.093381
     67          1           0        0.268682    1.428783   -1.310616
     68          1           0        5.590237    5.217448   -1.065083
     69          1           0        9.206451    0.298954    0.858078
     70          1           0        1.446598   -3.281224   -0.237369
     71          1           0       -0.260336   -0.958413   -0.060784
     72          1           0        0.596343   -2.678797   -2.132064
     73          1           0        0.752709   -1.038877   -2.698863
     74          1           0       -0.899810   -1.593391   -2.194040
     75          1           0        0.601823   -1.427221    2.074664
     76          1           0        1.805394   -2.683885    2.284154
     77          1           0       -0.763258   -3.268083    2.673197
     78          1           0        0.596103   -4.381939    2.269155
     79          1           0       -0.131919    2.999455   -2.467865
     80          1           0        0.471189    4.446602   -3.130626
     81          1           0       -0.286200    4.455827   -1.522767
     82          1           0        0.893109    6.887235   -1.920493
     83          1           0        1.457373    6.247657   -3.490164
     84          1           0        2.259719    7.671391   -2.761973
     85          1           0        7.975751    4.777316    0.297210
     86          1           0        9.726531    2.587261   -0.291170
     87          1           0        8.002763    5.560781   -1.922871
     88          1           0        8.137272    3.876482   -2.476199
     89          1           0        9.500130    4.687601   -1.734775
     90          1           0        8.956796    2.353665    2.295010
     91          1           0        8.685958    4.040778    2.086623
     92          1           0       10.812340    4.363504    2.247613
     93          1           0       11.257947    3.126115    1.062444
     94          1           0       11.121626    2.711681    2.798990
     95          1           0        8.847400   -3.637307    0.579279
     96          1           0        8.860693   -2.926332    2.262292
     97          1           0        9.669719   -2.000343    0.929661
     98          1           0        3.718489   -4.099799    1.935797
     99          1           0        2.840310   -7.898028    0.179725
    100          1           0        3.125830   -6.974403   -1.299139
    101          1           0        1.566818   -6.892992   -0.572098
    102          1           0       -2.946504   -4.734377   -0.545377
    103          1           0       -2.167673   -3.413527   -1.522946
    104          1           0       -4.011870   -1.947919   -0.616549
    105          1           0       -5.326466   -5.553019   -1.328025
    106          1           0       -6.717925   -5.251653   -0.335330
    107          1           0       -5.061986   -5.430624    0.354920
    108          1           0       -6.311487   -1.492458   -0.762710
    109          1           0       -7.137085   -2.520639    0.228816
    110          1           0       -8.593686   -3.061355   -1.175318
    111          1           0       -7.396267   -3.794816   -2.258738
    112          1           0       -7.527270   -2.072768   -3.795382
    113          1           0       -7.019542   -0.942706   -2.566138
    114          1           0       -9.858844   -1.939125   -2.636064
    115          1           0       -8.717748   -0.452410   -4.689232
    116          1           0       -9.994420    0.553029   -3.892923
    117          1           0      -10.492069   -0.949877   -4.532212
    118          1           0       -9.323247    0.935792   -1.789908
    119          1           0       -8.681961   -0.378034   -0.833006
    120          1           0      -10.645353   -0.673855    0.144191
    121          1           0      -11.431037   -1.127320   -1.405704
    122          1           0      -12.669939    0.560124   -1.186225
    123          1           0      -11.373173    1.609252   -1.628889
    124          1           0      -11.982531    0.807962    1.393551
    125          1           0      -13.878120    1.921193    1.308087
    126          1           0      -13.575613    2.237902   -0.443617
    127          1           0      -13.159110    3.395797    0.770685
    128          1           0      -10.620422    3.348308    0.324550
    129          1           0       -9.723897    1.962823    0.827633
    130          1           0      -10.972456    2.263668    3.081340
    131          1           0      -11.452604    3.827602    2.643377
    132          1           0       -9.559333    4.945748    2.836047
    133          1           0       -8.626616    3.663257    1.963965
    134          1           0       -9.744777    3.178902    4.788241
    135          1           0       -9.168177    5.090132    5.546596
    136          1           0       -8.115510    5.577268    4.135982
    137          1           0       -7.487282    4.567019    5.461189
    138          1           0       -8.274332    1.501173    3.663350
    139          1           0       -7.745202    2.063190    5.111894
    140          1           0       -6.958603    2.763735    3.635023
 ---------------------------------------------------------------------

 SCF Done:  E(RZINDO/S) =  -474.059446670     A.U. after   19 cycles

 Excitation energies and oscillator strengths:

 Excited State   1:      Singlet-A      1.2067 eV 1027.47 nm  f=0.5772  <S**2>=0.000
     175 ->178        -0.20575
     176 ->177         0.65897
 This state for optimization and/or second-order correction.
 Total Energy, E(CIS/TDA) =  -474.015101666
 Copying the excited state density for this state as the 1-particle RhoCI density.

 Excited State   2:      Singlet-A      1.8818 eV  658.86 nm  f=0.0141  <S**2>=0.000
     175 ->177         0.51471
     176 ->178         0.46548

 Excited State   3:      Singlet-A      2.9556 eV  419.49 nm  f=0.0055  <S**2>=0.000
     176 ->179         0.66780
     176 ->182         0.11848

 Excited State   4:      Singlet-A      2.9655 eV  418.09 nm  f=0.5115  <S**2>=0.000
     168 ->177         0.18062
     168 ->179         0.28682
     168 ->181        -0.21321
     168 ->186         0.16382
     169 ->177        -0.15963
     169 ->179        -0.13054
     169 ->181         0.17651
     175 ->177         0.26860
     176 ->178        -0.30800

 Excited State   5:      Singlet-A      2.9845 eV  415.43 nm  f=0.7951  <S**2>=0.000
     168 ->177         0.18293
     168 ->179         0.16914
     168 ->181        -0.20830
     168 ->186         0.10354
     169 ->179        -0.18028
     169 ->186        -0.10013
     175 ->177        -0.34046
     176 ->178         0.38476
     176 ->181        -0.11839

 The electronic state is 1-A.
 Alpha  occ. eigenvalues --   -1.82234  -1.78652  -1.76354  -1.74192  -1.71823
 Alpha  occ. eigenvalues --   -1.68708  -1.64562  -1.61885  -1.59218  -1.57635
 Alpha  occ. eigenvalues --   -1.54942  -1.50762  -1.48286  -1.47630  -1.47131
 Alpha  occ. eigenvalues --   -1.43304  -1.42542  -1.40700  -1.39287  -1.38885
 Alpha  occ. eigenvalues --   -1.36761  -1.34915  -1.33207  -1.31894  -1.29071
 Alpha  occ. eigenvalues --   -1.27966  -1.23568  -1.21535  -1.19914  -1.17916
 Alpha  occ. eigenvalues --   -1.16923  -1.16598  -1.15160  -1.14192  -1.13162
 Alpha  occ. eigenvalues --   -1.11909  -1.10908  -1.10365  -1.04002  -1.03327
 Alpha  occ. eigenvalues --   -1.03131  -1.00165  -0.98092  -0.97087  -0.96961
 Alpha  occ. eigenvalues --   -0.94489  -0.94238  -0.92874  -0.92525  -0.92389
 Alpha  occ. eigenvalues --   -0.90668  -0.90524  -0.89252  -0.88149  -0.86117
 Alpha  occ. eigenvalues --   -0.85370  -0.83935  -0.83107  -0.82661  -0.80980
 Alpha  occ. eigenvalues --   -0.80157  -0.79514  -0.77183  -0.76887  -0.76423
 Alpha  occ. eigenvalues --   -0.76307  -0.76245  -0.74954  -0.74200  -0.73615
 Alpha  occ. eigenvalues --   -0.72949  -0.72131  -0.71761  -0.71527  -0.70685
 Alpha  occ. eigenvalues --   -0.69973  -0.69269  -0.69174  -0.68968  -0.68017
 Alpha  occ. eigenvalues --   -0.67331  -0.67026  -0.66593  -0.66352  -0.65757
 Alpha  occ. eigenvalues --   -0.65542  -0.65038  -0.64702  -0.64269  -0.64166
 Alpha  occ. eigenvalues --   -0.63409  -0.62901  -0.62657  -0.62232  -0.61728
 Alpha  occ. eigenvalues --   -0.61108  -0.61043  -0.60507  -0.60281  -0.60264
 Alpha  occ. eigenvalues --   -0.60085  -0.59854  -0.59444  -0.58459  -0.58105
 Alpha  occ. eigenvalues --   -0.58002  -0.57768  -0.57387  -0.57080  -0.56507
 Alpha  occ. eigenvalues --   -0.56138  -0.55443  -0.55325  -0.54974  -0.54045
 Alpha  occ. eigenvalues --   -0.53952  -0.53580  -0.53327  -0.52941  -0.52579
 Alpha  occ. eigenvalues --   -0.52483  -0.51899  -0.51780  -0.51334  -0.51327
 Alpha  occ. eigenvalues --   -0.50895  -0.50479  -0.50301  -0.50240  -0.49951
 Alpha  occ. eigenvalues --   -0.49772  -0.49570  -0.49248  -0.48693  -0.48493
 Alpha  occ. eigenvalues --   -0.48452  -0.48050  -0.47778  -0.47642  -0.47601
 Alpha  occ. eigenvalues --   -0.47544  -0.47131  -0.46985  -0.46748  -0.46676
 Alpha  occ. eigenvalues --   -0.46461  -0.46068  -0.45719  -0.45468  -0.45346
 Alpha  occ. eigenvalues --   -0.44881  -0.44845  -0.44220  -0.44019  -0.43934
 Alpha  occ. eigenvalues --   -0.43589  -0.43261  -0.42934  -0.42508  -0.42353
 Alpha  occ. eigenvalues --   -0.42155  -0.41405  -0.40538  -0.39321  -0.38415
 Alpha  occ. eigenvalues --   -0.37746  -0.37384  -0.35311  -0.35178  -0.34656
 Alpha  occ. eigenvalues --   -0.33209  -0.32477  -0.32453  -0.31763  -0.26475
 Alpha  occ. eigenvalues --   -0.21351
 Alpha virt. eigenvalues --   -0.08313  -0.02358  -0.00532   0.00753   0.01101
 Alpha virt. eigenvalues --    0.02435   0.03148   0.03433   0.04049   0.04915
 Alpha virt. eigenvalues --    0.06104   0.06962   0.07597   0.07903   0.08208

 Mulliken charges:
               1
     1  Mg   0.426835
     2  C   -0.056059
     3  C   -0.064220
     4  C   -0.065453
     5  C   -0.063687
     6  N   -0.278905
     7  C    0.133620
     8  C    0.005621
     9  C    0.006524
    10  C    0.121416
    11  C   -0.055251
    12  C   -0.013456
    13  C    0.011393
    14  C    0.461913
    15  O   -0.521419
    16  O   -0.260478
    17  N   -0.337628
    18  C    0.075910
    19  C    0.024422
    20  C   -0.051273
    21  C    0.146277
    22  C   -0.039851
    23  C    0.333574
    24  O   -0.528812
    25  C   -0.040024
    26  N   -0.275271
    27  C    0.127525
    28  C    0.012424
    29  C    0.004065
    30  C    0.127214
    31  C   -0.045736
    32  C   -0.027706
    33  C   -0.059210
    34  N   -0.335609
    35  C    0.080567
    36  C    0.047116
    37  C   -0.051825
    38  C    0.116206
    39  C   -0.039343
    40  C    0.333161
    41  O   -0.515046
    42  C    0.060892
    43  C    0.500635
    44  O   -0.531429
    45  O   -0.279681
    46  C    0.077076
    47  C    0.108774
    48  C   -0.100470
    49  C    0.003787
    50  C   -0.040901
    51  C   -0.030003
    52  C   -0.035709
    53  C   -0.030108
    54  C   -0.018987
    55  C   -0.053982
    56  C   -0.044662
    57  C   -0.035790
    58  C   -0.037395
    59  C   -0.022568
    60  C   -0.063193
    61  C   -0.036376
    62  C   -0.033686
    63  C   -0.031728
    64  C   -0.014514
    65  C   -0.064291
    66  C   -0.054944
    67  H    0.025899
    68  H    0.048440
    69  H    0.025563
    70  H    0.045039
    71  H    0.022277
    72  H    0.034410
    73  H    0.023403
    74  H    0.033417
    75  H    0.034654
    76  H    0.019567
    77  H    0.032708
    78  H    0.043219
    79  H    0.019057
    80  H    0.021447
    81  H    0.035582
    82  H    0.042510
    83  H    0.036080
    84  H    0.036573
    85  H    0.021955
    86  H    0.040682
    87  H    0.026222
    88  H    0.016639
    89  H    0.017618
    90  H    0.013020
    91  H    0.024758
    92  H    0.014171
    93  H    0.017792
    94  H    0.028126
    95  H    0.051125
    96  H    0.045378
    97  H    0.030440
    98  H    0.051709
    99  H    0.035243
   100  H    0.045622
   101  H    0.041358
   102  H    0.045425
   103  H    0.056344
   104  H    0.011947
   105  H    0.027337
   106  H    0.021011
   107  H    0.028844
   108  H    0.023814
   109  H    0.014200
   110  H    0.029923
   111  H    0.021749
   112  H    0.015403
   113  H    0.024863
   114  H    0.014102
   115  H    0.025236
   116  H    0.015264
   117  H    0.020841
   118  H    0.025462
   119  H    0.010914
   120  H    0.019738
   121  H    0.023677
   122  H    0.009913
   123  H    0.028104
   124  H    0.026374
   125  H    0.015150
   126  H    0.018526
   127  H    0.015189
   128  H    0.013733
   129  H    0.016145
   130  H    0.024929
   131  H    0.015704
   132  H    0.020659
   133  H    0.029958
   134  H    0.023290
   135  H    0.018260
   136  H    0.025579
   137  H    0.015378
   138  H    0.012942
   139  H    0.005146
   140  H    0.026952
 Sum of Mulliken charges =   0.00000

 Dipole moment (field-independent basis, Debye):
    X=             -6.3309    Y=              3.0613    Z=              2.1564  Tot=              7.3554
 N-N= 4.363015671368D+03 E-N= 0.000000000000D+00  KE=-9.400368305141D+03
 Leave Link  601 at Thu May  5 03:37:31 2022, MaxMem=  6710886400 cpu:               1.0 elap:               0.1
 (Enter /sw/apps/gaussian-16.0/g16/l9999.exe)
 1\1\GINC-BP1-COMPUTE176\SP\RZINDO CIS\STO-3G\C55H74Mg1N4O6\OF15641\05-
 May-2022\0\\#p ZINDO=(nstates=5)\\step_51_chromophore_21 ZINDO\\0,1\Mg
 ,0,15.803,52.544,25.806\C,0,17.393,51.223,28.621\C,0,13.202,53.517,27.
 985\C,0,13.99,53.511,23.099\C,0,18.272,51.039,23.696\N,0,15.431,52.456
 ,28.076\C,0,16.189,51.877,29.016\C,0,15.753,52.291,30.42\C,0,14.268,52
 .684,30.174\C,0,14.259,52.906,28.669\C,0,13.206,51.68,30.711\C,0,16.65
 ,53.46,30.958\C,0,16.848,53.385,32.454\C,0,15.747,52.671,33.306\O,0,15

 Normal termination of Gaussian 16 at Thu May  5 03:37:31 2022.
