 Gaussian 16, Revision A.03,
 Gaussian 16:  ES64L-G16RevA.03 25-Dec-2016

 ------------------------------
 #p blyp/Def2SVP td=(nstates=5)
 ------------------------------

 -------------------------------------------------
 step_51_chromophore_12 TDDFT with blyp functional
 -------------------------------------------------
 Symbolic Z-matrix:
 Charge =  0 Multiplicity = 1

                         Standard orientation:
 ---------------------------------------------------------------------
 Center     Atomic      Atomic             Coordinates (Angstroms)
 Number     Number       Type             X           Y           Z
 ---------------------------------------------------------------------
      1         12           0       -4.186110    0.239635   -0.442716
      2          6           0       -3.009558   -2.951816    0.509414
      3          6           0       -0.989077    1.230257   -0.741195
      4          6           0       -5.306984    3.308480   -1.156846
      5          6           0       -7.303750   -0.668760    0.513578
      6          7           0       -2.314415   -0.739878   -0.079590
      7          6           0       -1.995719   -2.087621    0.083951
      8          6           0       -0.496597   -2.370237    0.115520
      9          6           0        0.076211   -0.929506    0.138365
     10          6           0       -1.139013   -0.112748   -0.299064
     11          6           0        0.529937   -0.342234    1.547403
     12          6           0       -0.147816   -3.192857   -1.146408
     13          6           0        1.021148   -4.250571   -0.996578
     14          6           0        2.170287   -4.063335   -2.027602
     15          8           0        1.949065   -3.763249   -3.182004
     16          8           0        3.433462   -4.135986   -1.548829
     17          7           0       -3.265080    1.946338   -1.175842
     18          6           0       -1.925809    2.153584   -1.166347
     19          6           0       -1.692343    3.547705   -1.656343
     20          6           0       -2.958577    4.090127   -1.876004
     21          6           0       -3.920294    3.107693   -1.377713
     22          6           0       -0.318364    4.158728   -1.927027
     23          6           0       -3.344585    5.456390   -2.372424
     24          8           0       -4.516720    5.775541   -2.499000
     25          6           0       -2.262097    6.487363   -2.759418
     26          7           0       -5.932727    1.318531   -0.004369
     27          6           0       -6.210476    2.450617   -0.585117
     28          6           0       -7.659667    2.884832   -0.450095
     29          6           0       -8.376419    1.578000    0.045084
     30          6           0       -7.119265    0.665439    0.185222
     31          6           0       -7.965186    4.093223    0.415036
     32          6           0       -9.499244    1.041829   -0.839105
     33          6           0      -10.473984    2.003312   -1.575791
     34          7           0       -5.097138   -1.513822    0.313883
     35          6           0       -6.361925   -1.685859    0.700455
     36          6           0       -6.489638   -3.006542    1.260950
     37          6           0       -5.237710   -3.573452    1.079105
     38          6           0       -4.366472   -2.570180    0.560120
     39          6           0       -7.657308   -3.770928    1.741325
     40          6           0       -4.465611   -4.783025    1.297914
     41          8           0       -4.753099   -5.903633    1.647079
     42          6           0       -2.974486   -4.402535    0.970826
     43          6           0       -2.274402   -4.687799    2.235975
     44          8           0       -2.318339   -3.989137    3.259277
     45          8           0       -1.411202   -5.754883    2.120275
     46          6           0       -0.343702   -5.889608    3.159538
     47          6           0        4.498493   -4.020218   -2.631283
     48          6           0        5.827263   -3.918003   -1.877410
     49          6           0        7.015366   -3.424511   -2.261327
     50          6           0        7.254772   -2.975034   -3.722341
     51          6           0        8.155263   -3.119331   -1.366467
     52          6           0        8.564087   -1.695418   -1.129522
     53          6           0       10.026907   -1.458630   -1.233535
     54          6           0       10.606132   -0.152582   -0.798367
     55          6           0       12.148049   -0.293793   -0.741356
     56          6           0       10.155939    0.464641    0.531089
     57          6           0        8.880841    1.272615    0.474984
     58          6           0        8.882525    2.559499    1.453494
     59          6           0        7.521688    3.250419    1.515512
     60          6           0        7.685617    4.793635    1.238405
     61          6           0        6.859286    2.993476    2.828248
     62          6           0        5.269435    3.235154    2.643887
     63          6           0        4.680940    4.431242    3.483076
     64          6           0        3.554334    5.061404    2.660688
     65          6           0        4.191810    6.289409    1.993245
     66          6           0        2.307309    5.414626    3.499783
     67          1           0        0.052683    1.493048   -0.936632
     68          1           0       -5.797660    4.189627   -1.573914
     69          1           0       -8.358416   -0.824267    0.749187
     70          1           0       -0.214909   -2.940501    1.000231
     71          1           0        0.884165   -0.859149   -0.589268
     72          1           0        0.040617    0.460810    2.098553
     73          1           0        1.460421    0.172747    1.307487
     74          1           0        0.560293   -1.181028    2.242956
     75          1           0        0.171933   -2.463141   -1.890587
     76          1           0       -1.031824   -3.641032   -1.601752
     77          1           0        0.679184   -5.268339   -1.185968
     78          1           0        1.385503   -4.128641    0.023183
     79          1           0       -0.424055    4.649198   -2.894508
     80          1           0        0.489432    3.427997   -1.875817
     81          1           0       -0.144125    4.980164   -1.232554
     82          1           0       -1.492918    6.528029   -1.988885
     83          1           0       -2.650901    7.496343   -2.898270
     84          1           0       -1.900977    6.188479   -3.744381
     85          1           0       -8.147374    2.963308   -1.421441
     86          1           0       -8.820341    1.723334    1.029665
     87          1           0       -8.068359    3.866579    1.476873
     88          1           0       -8.825624    4.660236    0.059657
     89          1           0       -7.124104    4.773096    0.283903
     90          1           0      -10.165575    0.362260   -0.308103
     91          1           0       -8.926711    0.504126   -1.595611
     92          1           0      -10.478357    2.990594   -1.112411
     93          1           0      -11.479009    1.582464   -1.552985
     94          1           0      -10.263566    2.126557   -2.637925
     95          1           0       -8.188282   -4.200372    0.892644
     96          1           0       -8.372609   -3.069609    2.171322
     97          1           0       -7.421723   -4.602573    2.405083
     98          1           0       -2.671812   -5.031147    0.133150
     99          1           0        0.309539   -6.701330    2.837613
    100          1           0       -0.791485   -6.218572    4.097225
    101          1           0        0.219619   -4.974525    3.342161
    102          1           0        4.529538   -3.020715   -3.064813
    103          1           0        4.603401   -4.772357   -3.413896
    104          1           0        5.797051   -4.168216   -0.816666
    105          1           0        6.393229   -3.168051   -4.363166
    106          1           0        8.011844   -3.558715   -4.246516
    107          1           0        7.412353   -1.896425   -3.742345
    108          1           0        9.041627   -3.685619   -1.653225
    109          1           0        7.824172   -3.571017   -0.432140
    110          1           0        8.270544   -1.616690   -0.083047
    111          1           0        7.997928   -1.043020   -1.793679
    112          1           0       10.231974   -1.540622   -2.300489
    113          1           0       10.539192   -2.289118   -0.748160
    114          1           0       10.392275    0.514327   -1.634336
    115          1           0       12.542139   -1.153876   -1.283191
    116          1           0       12.355548   -0.376284    0.325490
    117          1           0       12.652648    0.613153   -1.075654
    118          1           0       10.979099    1.027558    0.970126
    119          1           0       10.062290   -0.381353    1.212182
    120          1           0        8.016823    0.676419    0.767517
    121          1           0        8.703966    1.615224   -0.544518
    122          1           0        9.621403    3.262046    1.068516
    123          1           0        9.279445    2.230790    2.413616
    124          1           0        6.885171    2.886684    0.709679
    125          1           0        7.446304    5.328879    2.157915
    126          1           0        7.078686    5.022501    0.362946
    127          1           0        8.706995    5.088715    0.997111
    128          1           0        7.208177    3.572967    3.682996
    129          1           0        7.069237    1.934081    2.977096
    130          1           0        4.823762    2.293345    2.962621
    131          1           0        5.023637    3.308635    1.584318
    132          1           0        5.422824    5.172668    3.780078
    133          1           0        4.237484    4.000507    4.380740
    134          1           0        3.082794    4.484987    1.865342
    135          1           0        3.977026    7.205177    2.544164
    136          1           0        3.964057    6.414522    0.935234
    137          1           0        5.276475    6.365552    1.910716
    138          1           0        1.937571    4.548181    4.047373
    139          1           0        1.463931    5.775014    2.910600
    140          1           0        2.492844    6.322930    4.074183
 ---------------------------------------------------------------------

 SCF Done:  E(RB-LYP) =  -3007.37035490     A.U. after   21 cycles

 Excitation energies and oscillator strengths:

 Excited State   1:      Singlet-A      1.7761 eV  698.09 nm  f=0.3069  <S**2>=0.000
     245 -> 248       -0.16938
     246 -> 247        0.69740
     246 <- 247       -0.15654
 This state for optimization and/or second-order correction.
 Total Energy, E(TD-HF/TD-DFT) =  -3007.30508610
 Copying the excited state density for this state as the 1-particle RhoCI density.

 Excited State   2:      Singlet-A      1.9887 eV  623.43 nm  f=0.0044  <S**2>=0.000
     244 -> 247        0.68596
     245 -> 247       -0.15461

 Excited State   3:      Singlet-A      2.0352 eV  609.20 nm  f=0.0359  <S**2>=0.000
     243 -> 247        0.49513
     244 -> 247        0.14516
     245 -> 247        0.44583
     246 -> 248        0.16444

 Excited State   4:      Singlet-A      2.0704 eV  598.83 nm  f=0.0356  <S**2>=0.000
     243 -> 247        0.50002
     245 -> 247       -0.44592
     246 -> 248       -0.18124

 Excited State   5:      Singlet-A      2.5482 eV  486.55 nm  f=0.0000  <S**2>=0.000
     241 -> 247        0.70711

 The electronic state is 1-A.
 Alpha  occ. eigenvalues --  -46.26854 -18.83388 -18.81506 -18.76636 -18.75943
 Alpha  occ. eigenvalues --  -18.75686 -18.75479 -14.03573 -14.02831 -14.01082
 Alpha  occ. eigenvalues --  -14.00258 -10.04371 -10.03551 -10.00115  -9.99283
 Alpha  occ. eigenvalues --   -9.99101  -9.97891  -9.96820  -9.96366  -9.95871
 Alpha  occ. eigenvalues --   -9.95838  -9.95830  -9.95533  -9.94886  -9.94758
 Alpha  occ. eigenvalues --   -9.94646  -9.94524  -9.94384  -9.93652  -9.93640
 Alpha  occ. eigenvalues --   -9.93546  -9.93510  -9.93439  -9.93102  -9.93005
 Alpha  occ. eigenvalues --   -9.92921  -9.92856  -9.92797  -9.92465  -9.92448
 Alpha  occ. eigenvalues --   -9.92375  -9.92329  -9.92309  -9.92219  -9.92080
 Alpha  occ. eigenvalues --   -9.92067  -9.91873  -9.91872  -9.91769  -9.91650
 Alpha  occ. eigenvalues --   -9.91595  -9.91565  -9.91497  -9.91496  -9.91486
 Alpha  occ. eigenvalues --   -9.91456  -9.91248  -9.91246  -9.91122  -9.91085
 Alpha  occ. eigenvalues --   -9.91073  -9.90971  -9.90941  -9.90850  -9.90630
 Alpha  occ. eigenvalues --   -9.89912  -2.91596  -1.72014  -1.71487  -1.71308
 Alpha  occ. eigenvalues --   -0.98642  -0.96317  -0.91848  -0.91806  -0.89958
 Alpha  occ. eigenvalues --   -0.88099  -0.87850  -0.87194  -0.86533  -0.85782
 Alpha  occ. eigenvalues --   -0.75326  -0.74857  -0.73350  -0.73034  -0.72718
 Alpha  occ. eigenvalues --   -0.72652  -0.71753  -0.71520  -0.70876  -0.70658
 Alpha  occ. eigenvalues --   -0.69857  -0.69605  -0.68604  -0.67483  -0.67112
 Alpha  occ. eigenvalues --   -0.66569  -0.65674  -0.65122  -0.65013  -0.64535
 Alpha  occ. eigenvalues --   -0.64178  -0.62869  -0.62646  -0.62169  -0.61215
 Alpha  occ. eigenvalues --   -0.60742  -0.60562  -0.60063  -0.59709  -0.58945
 Alpha  occ. eigenvalues --   -0.58480  -0.57712  -0.56982  -0.56089  -0.55208
 Alpha  occ. eigenvalues --   -0.53939  -0.53700  -0.53114  -0.52822  -0.51585
 Alpha  occ. eigenvalues --   -0.51524  -0.50990  -0.50815  -0.50339  -0.50328
 Alpha  occ. eigenvalues --   -0.49965  -0.49520  -0.48819  -0.48197  -0.46975
 Alpha  occ. eigenvalues --   -0.46694  -0.46051  -0.45902  -0.45677  -0.44565
 Alpha  occ. eigenvalues --   -0.44022  -0.43906  -0.43365  -0.43251  -0.42808
 Alpha  occ. eigenvalues --   -0.42475  -0.41905  -0.41588  -0.41305  -0.41154
 Alpha  occ. eigenvalues --   -0.40982  -0.40777  -0.40711  -0.40548  -0.40163
 Alpha  occ. eigenvalues --   -0.40031  -0.39795  -0.39691  -0.39499  -0.39217
 Alpha  occ. eigenvalues --   -0.39167  -0.38832  -0.38789  -0.38416  -0.38298
 Alpha  occ. eigenvalues --   -0.38253  -0.37992  -0.37776  -0.37434  -0.37383
 Alpha  occ. eigenvalues --   -0.37187  -0.37048  -0.36926  -0.36676  -0.36550
 Alpha  occ. eigenvalues --   -0.36430  -0.36331  -0.36247  -0.35948  -0.35846
 Alpha  occ. eigenvalues --   -0.35573  -0.35337  -0.35262  -0.35003  -0.34767
 Alpha  occ. eigenvalues --   -0.34725  -0.34477  -0.34340  -0.34167  -0.34083
 Alpha  occ. eigenvalues --   -0.33766  -0.33517  -0.33214  -0.33134  -0.33052
 Alpha  occ. eigenvalues --   -0.32985  -0.32810  -0.32682  -0.32564  -0.32479
 Alpha  occ. eigenvalues --   -0.32287  -0.32074  -0.31754  -0.31653  -0.31460
 Alpha  occ. eigenvalues --   -0.31395  -0.31281  -0.31240  -0.31129  -0.31027
 Alpha  occ. eigenvalues --   -0.30904  -0.30860  -0.30445  -0.30325  -0.30178
 Alpha  occ. eigenvalues --   -0.30042  -0.29760  -0.29536  -0.29304  -0.28940
 Alpha  occ. eigenvalues --   -0.28797  -0.28739  -0.28468  -0.28197  -0.27950
 Alpha  occ. eigenvalues --   -0.27742  -0.27373  -0.27258  -0.26941  -0.26574
 Alpha  occ. eigenvalues --   -0.26234  -0.26182  -0.25985  -0.25934  -0.25560
 Alpha  occ. eigenvalues --   -0.25237  -0.24819  -0.24429  -0.23848  -0.23789
 Alpha  occ. eigenvalues --   -0.23383  -0.22085  -0.21913  -0.21173  -0.20916
 Alpha  occ. eigenvalues --   -0.20656  -0.20253  -0.18742  -0.18515  -0.17218
 Alpha  occ. eigenvalues --   -0.15425
 Alpha virt. eigenvalues --   -0.11291  -0.06386  -0.05954  -0.04513  -0.02745
 Alpha virt. eigenvalues --   -0.02690  -0.02193  -0.01859  -0.01444   0.00590
 Alpha virt. eigenvalues --    0.01339   0.01526   0.01772   0.02132   0.02671

 Mulliken charges:
               1
     1  Mg   0.694159
     2  C   -0.003941
     3  C   -0.070217
     4  C   -0.070500
     5  C   -0.076424
     6  N   -0.230708
     7  C   -0.068436
     8  C   -0.001047
     9  C    0.023205
    10  C    0.010863
    11  C    0.115396
    12  C    0.110098
    13  C    0.154288
    14  C    0.045933
    15  O   -0.197615
    16  O   -0.259783
    17  N   -0.273314
    18  C    0.142599
    19  C   -0.156952
    20  C    0.057604
    21  C    0.110122
    22  C    0.180967
    23  C   -0.085117
    24  O   -0.157757
    25  C    0.118428
    26  N   -0.208370
    27  C    0.003120
    28  C    0.051244
    29  C    0.003298
    30  C   -0.020067
    31  C    0.152684
    32  C    0.064408
    33  C    0.069170
    34  N   -0.189013
    35  C    0.152671
    36  C   -0.176134
    37  C    0.092943
    38  C    0.053185
    39  C    0.176250
    40  C   -0.090584
    41  O   -0.115922
    42  C    0.099201
    43  C    0.124992
    44  O   -0.206328
    45  O   -0.282628
    46  C    0.221775
    47  C    0.329129
    48  C   -0.130413
    49  C   -0.173907
    50  C    0.112196
    51  C    0.184914
    52  C    0.116535
    53  C    0.053683
    54  C   -0.056272
    55  C    0.109829
    56  C    0.130934
    57  C    0.051066
    58  C    0.101340
    59  C   -0.089951
    60  C    0.102540
    61  C    0.113075
    62  C    0.044094
    63  C    0.149479
    64  C   -0.071026
    65  C    0.083565
    66  C    0.089152
    67  H   -0.072173
    68  H   -0.033985
    69  H   -0.070888
    70  H   -0.010883
    71  H   -0.027592
    72  H    0.008898
    73  H   -0.005664
    74  H    0.004246
    75  H   -0.016368
    76  H   -0.009071
    77  H    0.019802
    78  H   -0.014495
    79  H    0.000500
    80  H   -0.003942
    81  H    0.007494
    82  H    0.000648
    83  H   -0.012353
    84  H    0.018627
    85  H   -0.030389
    86  H   -0.030641
    87  H   -0.006166
    88  H   -0.007091
    89  H   -0.016304
    90  H   -0.011803
    91  H   -0.024782
    92  H   -0.006000
    93  H   -0.012099
    94  H   -0.003887
    95  H   -0.002889
    96  H   -0.020164
    97  H    0.012644
    98  H   -0.009009
    99  H    0.012864
   100  H    0.017702
   101  H    0.015625
   102  H    0.020421
   103  H    0.032951
   104  H   -0.040792
   105  H   -0.033697
   106  H   -0.000506
   107  H    0.000930
   108  H   -0.037954
   109  H   -0.054557
   110  H   -0.030149
   111  H   -0.025496
   112  H   -0.036939
   113  H   -0.038818
   114  H   -0.050190
   115  H   -0.020670
   116  H   -0.021685
   117  H   -0.016818
   118  H   -0.036846
   119  H   -0.041601
   120  H   -0.024131
   121  H   -0.028945
   122  H   -0.042844
   123  H   -0.032202
   124  H   -0.035730
   125  H   -0.005921
   126  H   -0.008730
   127  H   -0.025250
   128  H   -0.023509
   129  H   -0.041984
   130  H   -0.031334
   131  H   -0.025249
   132  H   -0.019701
   133  H   -0.044813
   134  H   -0.030162
   135  H   -0.024627
   136  H   -0.027691
   137  H   -0.032834
   138  H   -0.006418
   139  H   -0.030401
   140  H   -0.023219
 Sum of Mulliken charges =  -0.00000

 Dipole moment (field-independent basis, Debye):
    X=              4.3800    Y=              2.7132    Z=             -1.4265  Tot=              5.3461
 Quadrupole moment (field-independent basis, Debye-Ang):
   XX=           -374.5475   YY=           -430.3803   ZZ=           -415.0808
   XY=            -16.2249   XZ=              4.4351   YZ=              8.2385

 Normal termination of Gaussian 16 at Thu May  5 03:14:52 2022.
