 Gaussian 16, Revision A.03,
 Gaussian 16:  ES64L-G16RevA.03 25-Dec-2016

 -----------------------------------
 #p cam-b3lyp/Def2SVP td=(nstates=5)
 -----------------------------------

 ------------------------------------------------------
 step_51_chromophore_12 TDDFT with cam-b3lyp functional
 ------------------------------------------------------
 Symbolic Z-matrix:
 Charge =  0 Multiplicity = 1

                         Standard orientation:
 ---------------------------------------------------------------------
 Center     Atomic      Atomic             Coordinates (Angstroms)
 Number     Number       Type             X           Y           Z
 ---------------------------------------------------------------------
      1         12           0       -4.186110    0.239635   -0.442716
      2          6           0       -3.009558   -2.951816    0.509414
      3          6           0       -0.989077    1.230257   -0.741195
      4          6           0       -5.306984    3.308480   -1.156846
      5          6           0       -7.303750   -0.668760    0.513578
      6          7           0       -2.314415   -0.739878   -0.079590
      7          6           0       -1.995719   -2.087621    0.083951
      8          6           0       -0.496597   -2.370237    0.115520
      9          6           0        0.076211   -0.929506    0.138365
     10          6           0       -1.139013   -0.112748   -0.299064
     11          6           0        0.529937   -0.342234    1.547403
     12          6           0       -0.147816   -3.192857   -1.146408
     13          6           0        1.021148   -4.250571   -0.996578
     14          6           0        2.170287   -4.063335   -2.027602
     15          8           0        1.949065   -3.763249   -3.182004
     16          8           0        3.433462   -4.135986   -1.548829
     17          7           0       -3.265080    1.946338   -1.175842
     18          6           0       -1.925809    2.153584   -1.166347
     19          6           0       -1.692343    3.547705   -1.656343
     20          6           0       -2.958577    4.090127   -1.876004
     21          6           0       -3.920294    3.107693   -1.377713
     22          6           0       -0.318364    4.158728   -1.927027
     23          6           0       -3.344585    5.456390   -2.372424
     24          8           0       -4.516720    5.775541   -2.499000
     25          6           0       -2.262097    6.487363   -2.759418
     26          7           0       -5.932727    1.318531   -0.004369
     27          6           0       -6.210476    2.450617   -0.585117
     28          6           0       -7.659667    2.884832   -0.450095
     29          6           0       -8.376419    1.578000    0.045084
     30          6           0       -7.119265    0.665439    0.185222
     31          6           0       -7.965186    4.093223    0.415036
     32          6           0       -9.499244    1.041829   -0.839105
     33          6           0      -10.473984    2.003312   -1.575791
     34          7           0       -5.097138   -1.513822    0.313883
     35          6           0       -6.361925   -1.685859    0.700455
     36          6           0       -6.489638   -3.006542    1.260950
     37          6           0       -5.237710   -3.573452    1.079105
     38          6           0       -4.366472   -2.570180    0.560120
     39          6           0       -7.657308   -3.770928    1.741325
     40          6           0       -4.465611   -4.783025    1.297914
     41          8           0       -4.753099   -5.903633    1.647079
     42          6           0       -2.974486   -4.402535    0.970826
     43          6           0       -2.274402   -4.687799    2.235975
     44          8           0       -2.318339   -3.989137    3.259277
     45          8           0       -1.411202   -5.754883    2.120275
     46          6           0       -0.343702   -5.889608    3.159538
     47          6           0        4.498493   -4.020218   -2.631283
     48          6           0        5.827263   -3.918003   -1.877410
     49          6           0        7.015366   -3.424511   -2.261327
     50          6           0        7.254772   -2.975034   -3.722341
     51          6           0        8.155263   -3.119331   -1.366467
     52          6           0        8.564087   -1.695418   -1.129522
     53          6           0       10.026907   -1.458630   -1.233535
     54          6           0       10.606132   -0.152582   -0.798367
     55          6           0       12.148049   -0.293793   -0.741356
     56          6           0       10.155939    0.464641    0.531089
     57          6           0        8.880841    1.272615    0.474984
     58          6           0        8.882525    2.559499    1.453494
     59          6           0        7.521688    3.250419    1.515512
     60          6           0        7.685617    4.793635    1.238405
     61          6           0        6.859286    2.993476    2.828248
     62          6           0        5.269435    3.235154    2.643887
     63          6           0        4.680940    4.431242    3.483076
     64          6           0        3.554334    5.061404    2.660688
     65          6           0        4.191810    6.289409    1.993245
     66          6           0        2.307309    5.414626    3.499783
     67          1           0        0.052683    1.493048   -0.936632
     68          1           0       -5.797660    4.189627   -1.573914
     69          1           0       -8.358416   -0.824267    0.749187
     70          1           0       -0.214909   -2.940501    1.000231
     71          1           0        0.884165   -0.859149   -0.589268
     72          1           0        0.040617    0.460810    2.098553
     73          1           0        1.460421    0.172747    1.307487
     74          1           0        0.560293   -1.181028    2.242956
     75          1           0        0.171933   -2.463141   -1.890587
     76          1           0       -1.031824   -3.641032   -1.601752
     77          1           0        0.679184   -5.268339   -1.185968
     78          1           0        1.385503   -4.128641    0.023183
     79          1           0       -0.424055    4.649198   -2.894508
     80          1           0        0.489432    3.427997   -1.875817
     81          1           0       -0.144125    4.980164   -1.232554
     82          1           0       -1.492918    6.528029   -1.988885
     83          1           0       -2.650901    7.496343   -2.898270
     84          1           0       -1.900977    6.188479   -3.744381
     85          1           0       -8.147374    2.963308   -1.421441
     86          1           0       -8.820341    1.723334    1.029665
     87          1           0       -8.068359    3.866579    1.476873
     88          1           0       -8.825624    4.660236    0.059657
     89          1           0       -7.124104    4.773096    0.283903
     90          1           0      -10.165575    0.362260   -0.308103
     91          1           0       -8.926711    0.504126   -1.595611
     92          1           0      -10.478357    2.990594   -1.112411
     93          1           0      -11.479009    1.582464   -1.552985
     94          1           0      -10.263566    2.126557   -2.637925
     95          1           0       -8.188282   -4.200372    0.892644
     96          1           0       -8.372609   -3.069609    2.171322
     97          1           0       -7.421723   -4.602573    2.405083
     98          1           0       -2.671812   -5.031147    0.133150
     99          1           0        0.309539   -6.701330    2.837613
    100          1           0       -0.791485   -6.218572    4.097225
    101          1           0        0.219619   -4.974525    3.342161
    102          1           0        4.529538   -3.020715   -3.064813
    103          1           0        4.603401   -4.772357   -3.413896
    104          1           0        5.797051   -4.168216   -0.816666
    105          1           0        6.393229   -3.168051   -4.363166
    106          1           0        8.011844   -3.558715   -4.246516
    107          1           0        7.412353   -1.896425   -3.742345
    108          1           0        9.041627   -3.685619   -1.653225
    109          1           0        7.824172   -3.571017   -0.432140
    110          1           0        8.270544   -1.616690   -0.083047
    111          1           0        7.997928   -1.043020   -1.793679
    112          1           0       10.231974   -1.540622   -2.300489
    113          1           0       10.539192   -2.289118   -0.748160
    114          1           0       10.392275    0.514327   -1.634336
    115          1           0       12.542139   -1.153876   -1.283191
    116          1           0       12.355548   -0.376284    0.325490
    117          1           0       12.652648    0.613153   -1.075654
    118          1           0       10.979099    1.027558    0.970126
    119          1           0       10.062290   -0.381353    1.212182
    120          1           0        8.016823    0.676419    0.767517
    121          1           0        8.703966    1.615224   -0.544518
    122          1           0        9.621403    3.262046    1.068516
    123          1           0        9.279445    2.230790    2.413616
    124          1           0        6.885171    2.886684    0.709679
    125          1           0        7.446304    5.328879    2.157915
    126          1           0        7.078686    5.022501    0.362946
    127          1           0        8.706995    5.088715    0.997111
    128          1           0        7.208177    3.572967    3.682996
    129          1           0        7.069237    1.934081    2.977096
    130          1           0        4.823762    2.293345    2.962621
    131          1           0        5.023637    3.308635    1.584318
    132          1           0        5.422824    5.172668    3.780078
    133          1           0        4.237484    4.000507    4.380740
    134          1           0        3.082794    4.484987    1.865342
    135          1           0        3.977026    7.205177    2.544164
    136          1           0        3.964057    6.414522    0.935234
    137          1           0        5.276475    6.365552    1.910716
    138          1           0        1.937571    4.548181    4.047373
    139          1           0        1.463931    5.775014    2.910600
    140          1           0        2.492844    6.322930    4.074183
 ---------------------------------------------------------------------

 SCF Done:  E(RCAM-B3LYP) =  -3007.17934183     A.U. after   17 cycles

 Excitation energies and oscillator strengths:

 Excited State   1:      Singlet-A      1.7020 eV  728.45 nm  f=0.3680  <S**2>=0.000
     245 -> 248       -0.15993
     246 -> 247        0.69068
     245 <- 248       -0.10313
 This state for optimization and/or second-order correction.
 Total Energy, E(TD-HF/TD-DFT) =  -3007.11679363
 Copying the excited state density for this state as the 1-particle RhoCI density.

 Excited State   2:      Singlet-A      2.2859 eV  542.39 nm  f=0.0945  <S**2>=0.000
     245 -> 247        0.63325
     246 -> 248        0.30059

 Excited State   3:      Singlet-A      3.5289 eV  351.34 nm  f=0.3990  <S**2>=0.000
     240 -> 247       -0.17801
     241 -> 247       -0.24759
     244 -> 247       -0.16465
     245 -> 247       -0.22082
     246 -> 248        0.54481

 Excited State   4:      Singlet-A      3.5612 eV  348.15 nm  f=0.0078  <S**2>=0.000
     241 -> 247       -0.29246
     244 -> 247        0.62039

 Excited State   5:      Singlet-A      3.6582 eV  338.92 nm  f=0.0715  <S**2>=0.000
     239 -> 247        0.25892
     239 -> 249       -0.17995
     240 -> 247        0.45537
     240 -> 249       -0.31126
     240 -> 250        0.11802
     246 -> 248        0.16597

 The electronic state is 1-A.
 Alpha  occ. eigenvalues --  -46.88337 -19.26316 -19.24359 -19.19580 -19.19370
 Alpha  occ. eigenvalues --  -19.18921 -19.18296 -14.42600 -14.41463 -14.39725
 Alpha  occ. eigenvalues --  -14.38338 -10.39573 -10.38916 -10.35754 -10.34072
 Alpha  occ. eigenvalues --  -10.33482 -10.31885 -10.31698 -10.30829 -10.30777
 Alpha  occ. eigenvalues --  -10.30507 -10.30158 -10.29785 -10.29727 -10.29019
 Alpha  occ. eigenvalues --  -10.28618 -10.28517 -10.28254 -10.28024 -10.27713
 Alpha  occ. eigenvalues --  -10.27585 -10.27398 -10.27373 -10.27319 -10.27171
 Alpha  occ. eigenvalues --  -10.27026 -10.26894 -10.26811 -10.26804 -10.26758
 Alpha  occ. eigenvalues --  -10.26168 -10.26063 -10.26052 -10.25999 -10.25992
 Alpha  occ. eigenvalues --  -10.25618 -10.25553 -10.25530 -10.25468 -10.25457
 Alpha  occ. eigenvalues --  -10.25313 -10.25302 -10.25235 -10.25235 -10.25103
 Alpha  occ. eigenvalues --  -10.25086 -10.24979 -10.24917 -10.24838 -10.24760
 Alpha  occ. eigenvalues --  -10.24736 -10.24671 -10.24576 -10.24542 -10.24333
 Alpha  occ. eigenvalues --  -10.23436  -3.16989  -1.91883  -1.91458  -1.91290
 Alpha  occ. eigenvalues --   -1.17113  -1.14730  -1.10704  -1.09907  -1.07788
 Alpha  occ. eigenvalues --   -1.05878  -1.05483  -1.04638  -1.04365  -1.03488
 Alpha  occ. eigenvalues --   -0.92250  -0.91833  -0.90226  -0.89799  -0.89517
 Alpha  occ. eigenvalues --   -0.89275  -0.88584  -0.88214  -0.87905  -0.87350
 Alpha  occ. eigenvalues --   -0.86067  -0.85902  -0.84941  -0.83514  -0.83234
 Alpha  occ. eigenvalues --   -0.82669  -0.81803  -0.81278  -0.80780  -0.80560
 Alpha  occ. eigenvalues --   -0.80031  -0.78954  -0.78160  -0.77583  -0.76688
 Alpha  occ. eigenvalues --   -0.76040  -0.76013  -0.75346  -0.75075  -0.74229
 Alpha  occ. eigenvalues --   -0.73540  -0.72603  -0.71920  -0.70909  -0.69771
 Alpha  occ. eigenvalues --   -0.68486  -0.68286  -0.67791  -0.67254  -0.65890
 Alpha  occ. eigenvalues --   -0.65768  -0.65043  -0.64711  -0.64480  -0.64093
 Alpha  occ. eigenvalues --   -0.63869  -0.63537  -0.62734  -0.61785  -0.60817
 Alpha  occ. eigenvalues --   -0.60421  -0.59511  -0.59239  -0.59090  -0.58048
 Alpha  occ. eigenvalues --   -0.57353  -0.57192  -0.56608  -0.56397  -0.55860
 Alpha  occ. eigenvalues --   -0.55608  -0.55007  -0.54609  -0.54500  -0.53953
 Alpha  occ. eigenvalues --   -0.53704  -0.53690  -0.53549  -0.53230  -0.53210
 Alpha  occ. eigenvalues --   -0.53022  -0.52837  -0.52372  -0.52230  -0.52044
 Alpha  occ. eigenvalues --   -0.51738  -0.51315  -0.51184  -0.50931  -0.50645
 Alpha  occ. eigenvalues --   -0.50534  -0.50438  -0.50173  -0.50016  -0.49996
 Alpha  occ. eigenvalues --   -0.49630  -0.49526  -0.49338  -0.49096  -0.48932
 Alpha  occ. eigenvalues --   -0.48765  -0.48592  -0.48476  -0.48333  -0.47991
 Alpha  occ. eigenvalues --   -0.47814  -0.47469  -0.47263  -0.46962  -0.46755
 Alpha  occ. eigenvalues --   -0.46524  -0.46350  -0.46329  -0.45857  -0.45753
 Alpha  occ. eigenvalues --   -0.45458  -0.45316  -0.45018  -0.44813  -0.44792
 Alpha  occ. eigenvalues --   -0.44692  -0.44564  -0.44401  -0.44147  -0.44045
 Alpha  occ. eigenvalues --   -0.44017  -0.43863  -0.43650  -0.43337  -0.43105
 Alpha  occ. eigenvalues --   -0.43078  -0.42882  -0.42709  -0.42664  -0.42388
 Alpha  occ. eigenvalues --   -0.42268  -0.42209  -0.41745  -0.41616  -0.41454
 Alpha  occ. eigenvalues --   -0.41300  -0.41070  -0.40894  -0.40720  -0.40453
 Alpha  occ. eigenvalues --   -0.39897  -0.39764  -0.39543  -0.39179  -0.38847
 Alpha  occ. eigenvalues --   -0.38627  -0.38461  -0.38136  -0.37837  -0.37746
 Alpha  occ. eigenvalues --   -0.37339  -0.37290  -0.36662  -0.36599  -0.36327
 Alpha  occ. eigenvalues --   -0.35892  -0.35858  -0.35441  -0.34350  -0.34148
 Alpha  occ. eigenvalues --   -0.34138  -0.33574  -0.33035  -0.31562  -0.31318
 Alpha  occ. eigenvalues --   -0.30657  -0.30365  -0.30087  -0.29082  -0.24136
 Alpha  occ. eigenvalues --   -0.20685
 Alpha virt. eigenvalues --   -0.08220  -0.01071   0.00524   0.02543   0.02951
 Alpha virt. eigenvalues --    0.04561   0.05211   0.05359   0.06220   0.06753
 Alpha virt. eigenvalues --    0.07965   0.08052   0.08320   0.08567   0.09254

 Mulliken charges:
               1
     1  Mg   0.828138
     2  C   -0.014643
     3  C   -0.081697
     4  C   -0.092419
     5  C   -0.080383
     6  N   -0.295663
     7  C   -0.037549
     8  C   -0.051167
     9  C   -0.031068
    10  C    0.028769
    11  C    0.061579
    12  C    0.062301
    13  C    0.085682
    14  C    0.126801
    15  O   -0.239667
    16  O   -0.325085
    17  N   -0.365892
    18  C    0.155255
    19  C   -0.154884
    20  C   -0.012794
    21  C    0.139259
    22  C    0.124356
    23  C   -0.005397
    24  O   -0.196212
    25  C    0.039400
    26  N   -0.282110
    27  C    0.030964
    28  C   -0.015632
    29  C   -0.041215
    30  C   -0.004197
    31  C    0.094826
    32  C    0.006713
    33  C    0.005480
    34  N   -0.280430
    35  C    0.147370
    36  C   -0.174371
    37  C    0.014340
    38  C    0.078615
    39  C    0.124174
    40  C    0.007417
    41  O   -0.157707
    42  C    0.021593
    43  C    0.212972
    44  O   -0.242929
    45  O   -0.347412
    46  C    0.183984
    47  C    0.299611
    48  C   -0.150551
    49  C   -0.195473
    50  C    0.054528
    51  C    0.124678
    52  C    0.052073
    53  C    0.006903
    54  C   -0.110423
    55  C    0.048872
    56  C    0.069012
    57  C    0.000606
    58  C    0.051174
    59  C   -0.147036
    60  C    0.046129
    61  C    0.057875
    62  C   -0.003471
    63  C    0.087442
    64  C   -0.133933
    65  C    0.025614
    66  C    0.034446
    67  H   -0.037567
    68  H    0.006641
    69  H   -0.036470
    70  H    0.018374
    71  H    0.007954
    72  H    0.035143
    73  H    0.016544
    74  H    0.028439
    75  H    0.015021
    76  H    0.023292
    77  H    0.050183
    78  H    0.018040
    79  H    0.027745
    80  H    0.025484
    81  H    0.035515
    82  H    0.027581
    83  H    0.025356
    84  H    0.046607
    85  H    0.006849
    86  H    0.003581
    87  H    0.019508
    88  H    0.017448
    89  H    0.009135
    90  H    0.015625
    91  H    0.005089
    92  H    0.014179
    93  H    0.013544
    94  H    0.019320
    95  H    0.021713
    96  H    0.002412
    97  H    0.037805
    98  H    0.034644
    99  H    0.036223
   100  H    0.041883
   101  H    0.036017
   102  H    0.047278
   103  H    0.059209
   104  H   -0.005132
   105  H   -0.008387
   106  H    0.024962
   107  H    0.023225
   108  H   -0.006073
   109  H   -0.021964
   110  H   -0.001379
   111  H    0.000987
   112  H   -0.008877
   113  H   -0.010826
   114  H   -0.017717
   115  H    0.005725
   116  H    0.002067
   117  H    0.008707
   118  H   -0.005821
   119  H   -0.012563
   120  H    0.000661
   121  H   -0.002382
   122  H   -0.013436
   123  H   -0.003677
   124  H   -0.003225
   125  H    0.013571
   126  H    0.013100
   127  H    0.000888
   128  H    0.004517
   129  H   -0.011365
   130  H   -0.002416
   131  H   -0.000278
   132  H    0.007393
   133  H   -0.012965
   134  H   -0.000156
   135  H    0.000274
   136  H   -0.003541
   137  H   -0.008564
   138  H    0.017461
   139  H   -0.005589
   140  H   -0.000088
 Sum of Mulliken charges =  -0.00000

 Dipole moment (field-independent basis, Debye):
    X=              5.3253    Y=              3.9745    Z=             -1.9338  Tot=              6.9206
 Quadrupole moment (field-independent basis, Debye-Ang):
   XX=           -378.0491   YY=           -426.0214   ZZ=           -414.6249
   XY=            -20.6153   XZ=              5.9707   YZ=              6.2763

 Normal termination of Gaussian 16 at Thu May  5 01:39:19 2022.
