 Gaussian 16, Revision A.03,
 Gaussian 16:  ES64L-G16RevA.03 25-Dec-2016

 ---------------------------------
 #p PBE1PBE/Def2SVP td=(nstates=5)
 ---------------------------------

 ----------------------------------------------------
 step_51_chromophore_12 TDDFT with PBE1PBE functional
 ----------------------------------------------------
 Symbolic Z-matrix:
 Charge =  0 Multiplicity = 1

                         Standard orientation:
 ---------------------------------------------------------------------
 Center     Atomic      Atomic             Coordinates (Angstroms)
 Number     Number       Type             X           Y           Z
 ---------------------------------------------------------------------
      1         12           0       -4.186110    0.239635   -0.442716
      2          6           0       -3.009558   -2.951816    0.509414
      3          6           0       -0.989077    1.230257   -0.741195
      4          6           0       -5.306984    3.308480   -1.156846
      5          6           0       -7.303750   -0.668760    0.513578
      6          7           0       -2.314415   -0.739878   -0.079590
      7          6           0       -1.995719   -2.087621    0.083951
      8          6           0       -0.496597   -2.370237    0.115520
      9          6           0        0.076211   -0.929506    0.138365
     10          6           0       -1.139013   -0.112748   -0.299064
     11          6           0        0.529937   -0.342234    1.547403
     12          6           0       -0.147816   -3.192857   -1.146408
     13          6           0        1.021148   -4.250571   -0.996578
     14          6           0        2.170287   -4.063335   -2.027602
     15          8           0        1.949065   -3.763249   -3.182004
     16          8           0        3.433462   -4.135986   -1.548829
     17          7           0       -3.265080    1.946338   -1.175842
     18          6           0       -1.925809    2.153584   -1.166347
     19          6           0       -1.692343    3.547705   -1.656343
     20          6           0       -2.958577    4.090127   -1.876004
     21          6           0       -3.920294    3.107693   -1.377713
     22          6           0       -0.318364    4.158728   -1.927027
     23          6           0       -3.344585    5.456390   -2.372424
     24          8           0       -4.516720    5.775541   -2.499000
     25          6           0       -2.262097    6.487363   -2.759418
     26          7           0       -5.932727    1.318531   -0.004369
     27          6           0       -6.210476    2.450617   -0.585117
     28          6           0       -7.659667    2.884832   -0.450095
     29          6           0       -8.376419    1.578000    0.045084
     30          6           0       -7.119265    0.665439    0.185222
     31          6           0       -7.965186    4.093223    0.415036
     32          6           0       -9.499244    1.041829   -0.839105
     33          6           0      -10.473984    2.003312   -1.575791
     34          7           0       -5.097138   -1.513822    0.313883
     35          6           0       -6.361925   -1.685859    0.700455
     36          6           0       -6.489638   -3.006542    1.260950
     37          6           0       -5.237710   -3.573452    1.079105
     38          6           0       -4.366472   -2.570180    0.560120
     39          6           0       -7.657308   -3.770928    1.741325
     40          6           0       -4.465611   -4.783025    1.297914
     41          8           0       -4.753099   -5.903633    1.647079
     42          6           0       -2.974486   -4.402535    0.970826
     43          6           0       -2.274402   -4.687799    2.235975
     44          8           0       -2.318339   -3.989137    3.259277
     45          8           0       -1.411202   -5.754883    2.120275
     46          6           0       -0.343702   -5.889608    3.159538
     47          6           0        4.498493   -4.020218   -2.631283
     48          6           0        5.827263   -3.918003   -1.877410
     49          6           0        7.015366   -3.424511   -2.261327
     50          6           0        7.254772   -2.975034   -3.722341
     51          6           0        8.155263   -3.119331   -1.366467
     52          6           0        8.564087   -1.695418   -1.129522
     53          6           0       10.026907   -1.458630   -1.233535
     54          6           0       10.606132   -0.152582   -0.798367
     55          6           0       12.148049   -0.293793   -0.741356
     56          6           0       10.155939    0.464641    0.531089
     57          6           0        8.880841    1.272615    0.474984
     58          6           0        8.882525    2.559499    1.453494
     59          6           0        7.521688    3.250419    1.515512
     60          6           0        7.685617    4.793635    1.238405
     61          6           0        6.859286    2.993476    2.828248
     62          6           0        5.269435    3.235154    2.643887
     63          6           0        4.680940    4.431242    3.483076
     64          6           0        3.554334    5.061404    2.660688
     65          6           0        4.191810    6.289409    1.993245
     66          6           0        2.307309    5.414626    3.499783
     67          1           0        0.052683    1.493048   -0.936632
     68          1           0       -5.797660    4.189627   -1.573914
     69          1           0       -8.358416   -0.824267    0.749187
     70          1           0       -0.214909   -2.940501    1.000231
     71          1           0        0.884165   -0.859149   -0.589268
     72          1           0        0.040617    0.460810    2.098553
     73          1           0        1.460421    0.172747    1.307487
     74          1           0        0.560293   -1.181028    2.242956
     75          1           0        0.171933   -2.463141   -1.890587
     76          1           0       -1.031824   -3.641032   -1.601752
     77          1           0        0.679184   -5.268339   -1.185968
     78          1           0        1.385503   -4.128641    0.023183
     79          1           0       -0.424055    4.649198   -2.894508
     80          1           0        0.489432    3.427997   -1.875817
     81          1           0       -0.144125    4.980164   -1.232554
     82          1           0       -1.492918    6.528029   -1.988885
     83          1           0       -2.650901    7.496343   -2.898270
     84          1           0       -1.900977    6.188479   -3.744381
     85          1           0       -8.147374    2.963308   -1.421441
     86          1           0       -8.820341    1.723334    1.029665
     87          1           0       -8.068359    3.866579    1.476873
     88          1           0       -8.825624    4.660236    0.059657
     89          1           0       -7.124104    4.773096    0.283903
     90          1           0      -10.165575    0.362260   -0.308103
     91          1           0       -8.926711    0.504126   -1.595611
     92          1           0      -10.478357    2.990594   -1.112411
     93          1           0      -11.479009    1.582464   -1.552985
     94          1           0      -10.263566    2.126557   -2.637925
     95          1           0       -8.188282   -4.200372    0.892644
     96          1           0       -8.372609   -3.069609    2.171322
     97          1           0       -7.421723   -4.602573    2.405083
     98          1           0       -2.671812   -5.031147    0.133150
     99          1           0        0.309539   -6.701330    2.837613
    100          1           0       -0.791485   -6.218572    4.097225
    101          1           0        0.219619   -4.974525    3.342161
    102          1           0        4.529538   -3.020715   -3.064813
    103          1           0        4.603401   -4.772357   -3.413896
    104          1           0        5.797051   -4.168216   -0.816666
    105          1           0        6.393229   -3.168051   -4.363166
    106          1           0        8.011844   -3.558715   -4.246516
    107          1           0        7.412353   -1.896425   -3.742345
    108          1           0        9.041627   -3.685619   -1.653225
    109          1           0        7.824172   -3.571017   -0.432140
    110          1           0        8.270544   -1.616690   -0.083047
    111          1           0        7.997928   -1.043020   -1.793679
    112          1           0       10.231974   -1.540622   -2.300489
    113          1           0       10.539192   -2.289118   -0.748160
    114          1           0       10.392275    0.514327   -1.634336
    115          1           0       12.542139   -1.153876   -1.283191
    116          1           0       12.355548   -0.376284    0.325490
    117          1           0       12.652648    0.613153   -1.075654
    118          1           0       10.979099    1.027558    0.970126
    119          1           0       10.062290   -0.381353    1.212182
    120          1           0        8.016823    0.676419    0.767517
    121          1           0        8.703966    1.615224   -0.544518
    122          1           0        9.621403    3.262046    1.068516
    123          1           0        9.279445    2.230790    2.413616
    124          1           0        6.885171    2.886684    0.709679
    125          1           0        7.446304    5.328879    2.157915
    126          1           0        7.078686    5.022501    0.362946
    127          1           0        8.706995    5.088715    0.997111
    128          1           0        7.208177    3.572967    3.682996
    129          1           0        7.069237    1.934081    2.977096
    130          1           0        4.823762    2.293345    2.962621
    131          1           0        5.023637    3.308635    1.584318
    132          1           0        5.422824    5.172668    3.780078
    133          1           0        4.237484    4.000507    4.380740
    134          1           0        3.082794    4.484987    1.865342
    135          1           0        3.977026    7.205177    2.544164
    136          1           0        3.964057    6.414522    0.935234
    137          1           0        5.276475    6.365552    1.910716
    138          1           0        1.937571    4.548181    4.047373
    139          1           0        1.463931    5.775014    2.910600
    140          1           0        2.492844    6.322930    4.074183
 ---------------------------------------------------------------------

 SCF Done:  E(RPBE1PBE) =  -3005.36686028     A.U. after   16 cycles

 Excitation energies and oscillator strengths:

 Excited State   1:      Singlet-A      1.8222 eV  680.42 nm  f=0.3607  <S**2>=0.000
     245 -> 248        0.15709
     246 -> 247        0.69813
     246 <- 247       -0.11187
 This state for optimization and/or second-order correction.
 Total Energy, E(TD-HF/TD-DFT) =  -3005.29989624
 Copying the excited state density for this state as the 1-particle RhoCI density.

 Excited State   2:      Singlet-A      2.2798 eV  543.85 nm  f=0.0956  <S**2>=0.000
     245 -> 247        0.64652
     246 -> 248       -0.27552

 Excited State   3:      Singlet-A      3.0655 eV  404.45 nm  f=0.0010  <S**2>=0.000
     243 -> 247        0.37339
     243 -> 249        0.10315
     244 -> 247        0.57057

 Excited State   4:      Singlet-A      3.1593 eV  392.44 nm  f=0.0001  <S**2>=0.000
     240 -> 247        0.10063
     241 -> 247       -0.18353
     243 -> 247        0.54776
     244 -> 247       -0.36169

 Excited State   5:      Singlet-A      3.1634 eV  391.93 nm  f=0.0016  <S**2>=0.000
     241 -> 247        0.63645
     241 -> 249       -0.17316
     243 -> 247        0.16651
     244 -> 247       -0.13066

 The electronic state is 1-A.
 Alpha  occ. eigenvalues --  -46.91737 -19.27021 -19.25087 -19.19899 -19.19306
 Alpha  occ. eigenvalues --  -19.19246 -19.18774 -14.42054 -14.41031 -14.39230
 Alpha  occ. eigenvalues --  -14.38141 -10.36659 -10.36019 -10.32622 -10.31456
 Alpha  occ. eigenvalues --  -10.30920 -10.29167 -10.29159 -10.28528 -10.28131
 Alpha  occ. eigenvalues --  -10.28043 -10.27824 -10.27614 -10.26953 -10.26747
 Alpha  occ. eigenvalues --  -10.26379 -10.26370 -10.26168 -10.25568 -10.25370
 Alpha  occ. eigenvalues --  -10.25333 -10.25160 -10.25100 -10.24692 -10.24687
 Alpha  occ. eigenvalues --  -10.24674 -10.24618 -10.24584 -10.24336 -10.24167
 Alpha  occ. eigenvalues --  -10.23872 -10.23728 -10.23711 -10.23606 -10.23440
 Alpha  occ. eigenvalues --  -10.23397 -10.23136 -10.23133 -10.22992 -10.22971
 Alpha  occ. eigenvalues --  -10.22968 -10.22831 -10.22758 -10.22750 -10.22725
 Alpha  occ. eigenvalues --  -10.22609 -10.22505 -10.22446 -10.22422 -10.22398
 Alpha  occ. eigenvalues --  -10.22266 -10.21997 -10.21990 -10.21921 -10.21672
 Alpha  occ. eigenvalues --  -10.21523  -3.13966  -1.86801  -1.86355  -1.86190
 Alpha  occ. eigenvalues --   -1.11961  -1.09562  -1.05164  -1.04898  -1.02692
 Alpha  occ. eigenvalues --   -1.00772  -1.00206  -0.99475  -0.98916  -0.98088
 Alpha  occ. eigenvalues --   -0.86760  -0.85947  -0.84320  -0.84037  -0.83627
 Alpha  occ. eigenvalues --   -0.83599  -0.82801  -0.82288  -0.81928  -0.81660
 Alpha  occ. eigenvalues --   -0.80612  -0.80138  -0.79166  -0.77921  -0.77486
 Alpha  occ. eigenvalues --   -0.76831  -0.75949  -0.75363  -0.75106  -0.74782
 Alpha  occ. eigenvalues --   -0.74153  -0.73010  -0.72515  -0.71955  -0.70805
 Alpha  occ. eigenvalues --   -0.70440  -0.70058  -0.69703  -0.69154  -0.68375
 Alpha  occ. eigenvalues --   -0.67857  -0.67140  -0.66267  -0.65272  -0.64193
 Alpha  occ. eigenvalues --   -0.62976  -0.62508  -0.62179  -0.61510  -0.60180
 Alpha  occ. eigenvalues --   -0.60044  -0.59642  -0.59329  -0.58639  -0.58535
 Alpha  occ. eigenvalues --   -0.58352  -0.57670  -0.56902  -0.56439  -0.55200
 Alpha  occ. eigenvalues --   -0.54919  -0.53964  -0.53846  -0.53759  -0.52561
 Alpha  occ. eigenvalues --   -0.51898  -0.51751  -0.51014  -0.50868  -0.50280
 Alpha  occ. eigenvalues --   -0.50138  -0.49651  -0.49151  -0.49131  -0.48458
 Alpha  occ. eigenvalues --   -0.48351  -0.48104  -0.47996  -0.47660  -0.47522
 Alpha  occ. eigenvalues --   -0.47394  -0.47135  -0.47022  -0.46736  -0.46697
 Alpha  occ. eigenvalues --   -0.46224  -0.45806  -0.45747  -0.45652  -0.45244
 Alpha  occ. eigenvalues --   -0.45068  -0.45029  -0.44701  -0.44483  -0.44376
 Alpha  occ. eigenvalues --   -0.44176  -0.43972  -0.43931  -0.43654  -0.43584
 Alpha  occ. eigenvalues --   -0.43432  -0.43190  -0.43175  -0.42925  -0.42562
 Alpha  occ. eigenvalues --   -0.42430  -0.42099  -0.41883  -0.41649  -0.41449
 Alpha  occ. eigenvalues --   -0.41120  -0.41092  -0.41021  -0.40659  -0.40578
 Alpha  occ. eigenvalues --   -0.40242  -0.40060  -0.39841  -0.39642  -0.39532
 Alpha  occ. eigenvalues --   -0.39371  -0.39242  -0.39014  -0.38930  -0.38845
 Alpha  occ. eigenvalues --   -0.38771  -0.38508  -0.38374  -0.38071  -0.37912
 Alpha  occ. eigenvalues --   -0.37759  -0.37617  -0.37531  -0.37355  -0.37305
 Alpha  occ. eigenvalues --   -0.37109  -0.36972  -0.36612  -0.36473  -0.36342
 Alpha  occ. eigenvalues --   -0.36031  -0.35962  -0.35642  -0.35618  -0.35345
 Alpha  occ. eigenvalues --   -0.34636  -0.34532  -0.34463  -0.33944  -0.33764
 Alpha  occ. eigenvalues --   -0.33420  -0.33381  -0.32880  -0.32733  -0.32553
 Alpha  occ. eigenvalues --   -0.32287  -0.32144  -0.31771  -0.31488  -0.31369
 Alpha  occ. eigenvalues --   -0.30891  -0.30716  -0.30250  -0.29644  -0.29156
 Alpha  occ. eigenvalues --   -0.28959  -0.28716  -0.28306  -0.26980  -0.26142
 Alpha  occ. eigenvalues --   -0.25867  -0.25634  -0.25297  -0.24940  -0.20972
 Alpha  occ. eigenvalues --   -0.18315
 Alpha virt. eigenvalues --   -0.10795  -0.04649  -0.03650  -0.01922   0.00115
 Alpha virt. eigenvalues --    0.00317   0.00577   0.00821   0.01670   0.03390
 Alpha virt. eigenvalues --    0.04289   0.04497   0.04833   0.04916   0.05598

 Mulliken charges:
               1
     1  Mg   0.977245
     2  C   -0.008179
     3  C   -0.066752
     4  C   -0.069753
     5  C   -0.069107
     6  N   -0.396470
     7  C    0.028179
     8  C   -0.131930
     9  C   -0.103778
    10  C    0.056685
    11  C    0.010937
    12  C    0.026006
    13  C    0.007031
    14  C    0.193738
    15  O   -0.269397
    16  O   -0.356930
    17  N   -0.482098
    18  C    0.173459
    19  C   -0.181690
    20  C   -0.063968
    21  C    0.164984
    22  C    0.062010
    23  C    0.047424
    24  O   -0.235697
    25  C   -0.035231
    26  N   -0.386336
    27  C    0.054423
    28  C   -0.095931
    29  C   -0.107644
    30  C    0.030853
    31  C    0.036594
    32  C   -0.058033
    33  C   -0.068652
    34  N   -0.420243
    35  C    0.169386
    36  C   -0.190990
    37  C   -0.031908
    38  C    0.134103
    39  C    0.071841
    40  C    0.097902
    41  O   -0.202726
    42  C   -0.088051
    43  C    0.304372
    44  O   -0.276703
    45  O   -0.380298
    46  C    0.128099
    47  C    0.252864
    48  C   -0.159336
    49  C   -0.240328
    50  C   -0.002667
    51  C    0.063012
    52  C   -0.016311
    53  C   -0.048853
    54  C   -0.196080
    55  C   -0.013449
    56  C    0.012622
    57  C   -0.064157
    58  C   -0.000745
    59  C   -0.235055
    60  C   -0.009024
    61  C   -0.000804
    62  C   -0.057792
    63  C    0.025821
    64  C   -0.230216
    65  C   -0.029845
    66  C   -0.025001
    67  H   -0.005300
    68  H    0.037679
    69  H   -0.002987
    70  H    0.059364
    71  H    0.043000
    72  H    0.061306
    73  H    0.042930
    74  H    0.054098
    75  H    0.048151
    76  H    0.055366
    77  H    0.081817
    78  H    0.050166
    79  H    0.055621
    80  H    0.051104
    81  H    0.061626
    82  H    0.054251
    83  H    0.052189
    84  H    0.072563
    85  H    0.048344
    86  H    0.041742
    87  H    0.045922
    88  H    0.044134
    89  H    0.038566
    90  H    0.046968
    91  H    0.040254
    92  H    0.044244
    93  H    0.042145
    94  H    0.047194
    95  H    0.052021
    96  H    0.031855
    97  H    0.065376
    98  H    0.072040
    99  H    0.058138
   100  H    0.064000
   101  H    0.057169
   102  H    0.074811
   103  H    0.084591
   104  H    0.025368
   105  H    0.019283
   106  H    0.052378
   107  H    0.050101
   108  H    0.026772
   109  H    0.011222
   110  H    0.033273
   111  H    0.033529
   112  H    0.026258
   113  H    0.021457
   114  H    0.020870
   115  H    0.032985
   116  H    0.030658
   117  H    0.037470
   118  H    0.026536
   119  H    0.021224
   120  H    0.033561
   121  H    0.030246
   122  H    0.019837
   123  H    0.028222
   124  H    0.034384
   125  H    0.039476
   126  H    0.039701
   127  H    0.027990
   128  H    0.036007
   129  H    0.023776
   130  H    0.030237
   131  H    0.030187
   132  H    0.037887
   133  H    0.020862
   134  H    0.036568
   135  H    0.027295
   136  H    0.024156
   137  H    0.021078
   138  H    0.044745
   139  H    0.023235
   140  H    0.027277
 Sum of Mulliken charges =  -0.00000

 Dipole moment (field-independent basis, Debye):
    X=              4.8721    Y=              3.3977    Z=             -1.6721  Tot=              6.1707
 Quadrupole moment (field-independent basis, Debye-Ang):
   XX=           -368.3686   YY=           -424.2248   ZZ=           -412.3389
   XY=            -18.5783   XZ=              4.9208   YZ=              6.5580

 Normal termination of Gaussian 16 at Thu May  5 02:05:52 2022.
