 Gaussian 16, Revision A.03,
 Gaussian 16:  ES64L-G16RevA.03 25-Dec-2016

 --------------------------------
 #p wB97XD/Def2SVP td=(nstates=5)
 --------------------------------

 ---------------------------------------------------
 step_51_chromophore_12 TDDFT with wB97XD functional
 ---------------------------------------------------
 Symbolic Z-matrix:
 Charge =  0 Multiplicity = 1

                         Standard orientation:
 ---------------------------------------------------------------------
 Center     Atomic      Atomic             Coordinates (Angstroms)
 Number     Number       Type             X           Y           Z
 ---------------------------------------------------------------------
      1         12           0       -4.186110    0.239635   -0.442716
      2          6           0       -3.009558   -2.951816    0.509414
      3          6           0       -0.989077    1.230257   -0.741195
      4          6           0       -5.306984    3.308480   -1.156846
      5          6           0       -7.303750   -0.668760    0.513578
      6          7           0       -2.314415   -0.739878   -0.079590
      7          6           0       -1.995719   -2.087621    0.083951
      8          6           0       -0.496597   -2.370237    0.115520
      9          6           0        0.076211   -0.929506    0.138365
     10          6           0       -1.139013   -0.112748   -0.299064
     11          6           0        0.529937   -0.342234    1.547403
     12          6           0       -0.147816   -3.192857   -1.146408
     13          6           0        1.021148   -4.250571   -0.996578
     14          6           0        2.170287   -4.063335   -2.027602
     15          8           0        1.949065   -3.763249   -3.182004
     16          8           0        3.433462   -4.135986   -1.548829
     17          7           0       -3.265080    1.946338   -1.175842
     18          6           0       -1.925809    2.153584   -1.166347
     19          6           0       -1.692343    3.547705   -1.656343
     20          6           0       -2.958577    4.090127   -1.876004
     21          6           0       -3.920294    3.107693   -1.377713
     22          6           0       -0.318364    4.158728   -1.927027
     23          6           0       -3.344585    5.456390   -2.372424
     24          8           0       -4.516720    5.775541   -2.499000
     25          6           0       -2.262097    6.487363   -2.759418
     26          7           0       -5.932727    1.318531   -0.004369
     27          6           0       -6.210476    2.450617   -0.585117
     28          6           0       -7.659667    2.884832   -0.450095
     29          6           0       -8.376419    1.578000    0.045084
     30          6           0       -7.119265    0.665439    0.185222
     31          6           0       -7.965186    4.093223    0.415036
     32          6           0       -9.499244    1.041829   -0.839105
     33          6           0      -10.473984    2.003312   -1.575791
     34          7           0       -5.097138   -1.513822    0.313883
     35          6           0       -6.361925   -1.685859    0.700455
     36          6           0       -6.489638   -3.006542    1.260950
     37          6           0       -5.237710   -3.573452    1.079105
     38          6           0       -4.366472   -2.570180    0.560120
     39          6           0       -7.657308   -3.770928    1.741325
     40          6           0       -4.465611   -4.783025    1.297914
     41          8           0       -4.753099   -5.903633    1.647079
     42          6           0       -2.974486   -4.402535    0.970826
     43          6           0       -2.274402   -4.687799    2.235975
     44          8           0       -2.318339   -3.989137    3.259277
     45          8           0       -1.411202   -5.754883    2.120275
     46          6           0       -0.343702   -5.889608    3.159538
     47          6           0        4.498493   -4.020218   -2.631283
     48          6           0        5.827263   -3.918003   -1.877410
     49          6           0        7.015366   -3.424511   -2.261327
     50          6           0        7.254772   -2.975034   -3.722341
     51          6           0        8.155263   -3.119331   -1.366467
     52          6           0        8.564087   -1.695418   -1.129522
     53          6           0       10.026907   -1.458630   -1.233535
     54          6           0       10.606132   -0.152582   -0.798367
     55          6           0       12.148049   -0.293793   -0.741356
     56          6           0       10.155939    0.464641    0.531089
     57          6           0        8.880841    1.272615    0.474984
     58          6           0        8.882525    2.559499    1.453494
     59          6           0        7.521688    3.250419    1.515512
     60          6           0        7.685617    4.793635    1.238405
     61          6           0        6.859286    2.993476    2.828248
     62          6           0        5.269435    3.235154    2.643887
     63          6           0        4.680940    4.431242    3.483076
     64          6           0        3.554334    5.061404    2.660688
     65          6           0        4.191810    6.289409    1.993245
     66          6           0        2.307309    5.414626    3.499783
     67          1           0        0.052683    1.493048   -0.936632
     68          1           0       -5.797660    4.189627   -1.573914
     69          1           0       -8.358416   -0.824267    0.749187
     70          1           0       -0.214909   -2.940501    1.000231
     71          1           0        0.884165   -0.859149   -0.589268
     72          1           0        0.040617    0.460810    2.098553
     73          1           0        1.460421    0.172747    1.307487
     74          1           0        0.560293   -1.181028    2.242956
     75          1           0        0.171933   -2.463141   -1.890587
     76          1           0       -1.031824   -3.641032   -1.601752
     77          1           0        0.679184   -5.268339   -1.185968
     78          1           0        1.385503   -4.128641    0.023183
     79          1           0       -0.424055    4.649198   -2.894508
     80          1           0        0.489432    3.427997   -1.875817
     81          1           0       -0.144125    4.980164   -1.232554
     82          1           0       -1.492918    6.528029   -1.988885
     83          1           0       -2.650901    7.496343   -2.898270
     84          1           0       -1.900977    6.188479   -3.744381
     85          1           0       -8.147374    2.963308   -1.421441
     86          1           0       -8.820341    1.723334    1.029665
     87          1           0       -8.068359    3.866579    1.476873
     88          1           0       -8.825624    4.660236    0.059657
     89          1           0       -7.124104    4.773096    0.283903
     90          1           0      -10.165575    0.362260   -0.308103
     91          1           0       -8.926711    0.504126   -1.595611
     92          1           0      -10.478357    2.990594   -1.112411
     93          1           0      -11.479009    1.582464   -1.552985
     94          1           0      -10.263566    2.126557   -2.637925
     95          1           0       -8.188282   -4.200372    0.892644
     96          1           0       -8.372609   -3.069609    2.171322
     97          1           0       -7.421723   -4.602573    2.405083
     98          1           0       -2.671812   -5.031147    0.133150
     99          1           0        0.309539   -6.701330    2.837613
    100          1           0       -0.791485   -6.218572    4.097225
    101          1           0        0.219619   -4.974525    3.342161
    102          1           0        4.529538   -3.020715   -3.064813
    103          1           0        4.603401   -4.772357   -3.413896
    104          1           0        5.797051   -4.168216   -0.816666
    105          1           0        6.393229   -3.168051   -4.363166
    106          1           0        8.011844   -3.558715   -4.246516
    107          1           0        7.412353   -1.896425   -3.742345
    108          1           0        9.041627   -3.685619   -1.653225
    109          1           0        7.824172   -3.571017   -0.432140
    110          1           0        8.270544   -1.616690   -0.083047
    111          1           0        7.997928   -1.043020   -1.793679
    112          1           0       10.231974   -1.540622   -2.300489
    113          1           0       10.539192   -2.289118   -0.748160
    114          1           0       10.392275    0.514327   -1.634336
    115          1           0       12.542139   -1.153876   -1.283191
    116          1           0       12.355548   -0.376284    0.325490
    117          1           0       12.652648    0.613153   -1.075654
    118          1           0       10.979099    1.027558    0.970126
    119          1           0       10.062290   -0.381353    1.212182
    120          1           0        8.016823    0.676419    0.767517
    121          1           0        8.703966    1.615224   -0.544518
    122          1           0        9.621403    3.262046    1.068516
    123          1           0        9.279445    2.230790    2.413616
    124          1           0        6.885171    2.886684    0.709679
    125          1           0        7.446304    5.328879    2.157915
    126          1           0        7.078686    5.022501    0.362946
    127          1           0        8.706995    5.088715    0.997111
    128          1           0        7.208177    3.572967    3.682996
    129          1           0        7.069237    1.934081    2.977096
    130          1           0        4.823762    2.293345    2.962621
    131          1           0        5.023637    3.308635    1.584318
    132          1           0        5.422824    5.172668    3.780078
    133          1           0        4.237484    4.000507    4.380740
    134          1           0        3.082794    4.484987    1.865342
    135          1           0        3.977026    7.205177    2.544164
    136          1           0        3.964057    6.414522    0.935234
    137          1           0        5.276475    6.365552    1.910716
    138          1           0        1.937571    4.548181    4.047373
    139          1           0        1.463931    5.775014    2.910600
    140          1           0        2.492844    6.322930    4.074183
 ---------------------------------------------------------------------

 SCF Done:  E(RwB97XD) =  -3007.87625234     A.U. after   19 cycles

 Excitation energies and oscillator strengths:

 Excited State   1:      Singlet-A      1.6685 eV  743.08 nm  f=0.3677  <S**2>=0.000
     245 -> 248       -0.16284
     246 -> 247        0.68841
     245 <- 248       -0.10988
 This state for optimization and/or second-order correction.
 Total Energy, E(TD-HF/TD-DFT) =  -3007.81493557
 Copying the excited state density for this state as the 1-particle RhoCI density.

 Excited State   2:      Singlet-A      2.2384 eV  553.90 nm  f=0.0923  <S**2>=0.000
     245 -> 247        0.63108
     246 -> 248        0.30184

 Excited State   3:      Singlet-A      3.5333 eV  350.90 nm  f=0.3887  <S**2>=0.000
     239 -> 247       -0.14756
     240 -> 247       -0.15591
     241 -> 247       -0.32507
     245 -> 247       -0.20949
     246 -> 248        0.52445

 Excited State   4:      Singlet-A      3.6163 eV  342.85 nm  f=0.0157  <S**2>=0.000
     241 -> 247       -0.28917
     244 -> 247        0.59897
     244 -> 249        0.10696
     246 -> 248       -0.13584

 Excited State   5:      Singlet-A      3.6590 eV  338.85 nm  f=0.0635  <S**2>=0.000
     239 -> 247       -0.15057
     239 -> 249        0.10441
     240 -> 247        0.49529
     240 -> 249       -0.36611
     240 -> 250        0.14690
     246 -> 248        0.15733

 The electronic state is 1-A.
 Alpha  occ. eigenvalues --  -46.94691 -19.31574 -19.29576 -19.24533 -19.24460
 Alpha  occ. eigenvalues --  -19.23856 -19.23269 -14.47240 -14.46017 -14.44360
 Alpha  occ. eigenvalues --  -14.42850 -10.43384 -10.42754 -10.39789 -10.38022
 Alpha  occ. eigenvalues --  -10.37429 -10.35797 -10.35628 -10.34976 -10.34926
 Alpha  occ. eigenvalues --  -10.34497 -10.34202 -10.34001 -10.33736 -10.33095
 Alpha  occ. eigenvalues --  -10.32580 -10.32531 -10.32146 -10.32040 -10.31825
 Alpha  occ. eigenvalues --  -10.31586 -10.31553 -10.31374 -10.31283 -10.31212
 Alpha  occ. eigenvalues --  -10.31039 -10.30837 -10.30793 -10.30778 -10.30738
 Alpha  occ. eigenvalues --  -10.30120 -10.30058 -10.29964 -10.29918 -10.29909
 Alpha  occ. eigenvalues --  -10.29510 -10.29452 -10.29445 -10.29410 -10.29400
 Alpha  occ. eigenvalues --  -10.29295 -10.29239 -10.29180 -10.29180 -10.29155
 Alpha  occ. eigenvalues --  -10.29035 -10.28912 -10.28851 -10.28797 -10.28686
 Alpha  occ. eigenvalues --  -10.28522 -10.28510 -10.28425 -10.28406 -10.28186
 Alpha  occ. eigenvalues --  -10.27396  -3.20753  -1.94342  -1.93897  -1.93732
 Alpha  occ. eigenvalues --   -1.19311  -1.16881  -1.12979  -1.12078  -1.10005
 Alpha  occ. eigenvalues --   -1.08055  -1.07489  -1.06631  -1.06436  -1.05540
 Alpha  occ. eigenvalues --   -0.94181  -0.93628  -0.92017  -0.91652  -0.91322
 Alpha  occ. eigenvalues --   -0.91126  -0.90549  -0.90004  -0.89934  -0.89280
 Alpha  occ. eigenvalues --   -0.87951  -0.87762  -0.86822  -0.85421  -0.85112
 Alpha  occ. eigenvalues --   -0.84517  -0.83748  -0.83187  -0.82707  -0.82490
 Alpha  occ. eigenvalues --   -0.81868  -0.80964  -0.80054  -0.79477  -0.78519
 Alpha  occ. eigenvalues --   -0.77916  -0.77837  -0.77305  -0.76899  -0.76081
 Alpha  occ. eigenvalues --   -0.75464  -0.74563  -0.73873  -0.72861  -0.71690
 Alpha  occ. eigenvalues --   -0.70489  -0.70174  -0.69812  -0.69153  -0.67773
 Alpha  occ. eigenvalues --   -0.67711  -0.67052  -0.66684  -0.66289  -0.66087
 Alpha  occ. eigenvalues --   -0.65794  -0.65372  -0.64579  -0.63764  -0.62841
 Alpha  occ. eigenvalues --   -0.62398  -0.61438  -0.61204  -0.61074  -0.59961
 Alpha  occ. eigenvalues --   -0.59292  -0.59171  -0.58525  -0.58317  -0.57766
 Alpha  occ. eigenvalues --   -0.57543  -0.56976  -0.56506  -0.56486  -0.55850
 Alpha  occ. eigenvalues --   -0.55630  -0.55566  -0.55474  -0.55216  -0.55088
 Alpha  occ. eigenvalues --   -0.54937  -0.54819  -0.54312  -0.54130  -0.53951
 Alpha  occ. eigenvalues --   -0.53642  -0.53212  -0.53082  -0.52855  -0.52568
 Alpha  occ. eigenvalues --   -0.52415  -0.52345  -0.52149  -0.51990  -0.51940
 Alpha  occ. eigenvalues --   -0.51567  -0.51473  -0.51275  -0.51007  -0.50849
 Alpha  occ. eigenvalues --   -0.50650  -0.50493  -0.50376  -0.50266  -0.49923
 Alpha  occ. eigenvalues --   -0.49726  -0.49433  -0.49161  -0.48872  -0.48703
 Alpha  occ. eigenvalues --   -0.48394  -0.48280  -0.48251  -0.47768  -0.47662
 Alpha  occ. eigenvalues --   -0.47365  -0.47228  -0.46947  -0.46695  -0.46679
 Alpha  occ. eigenvalues --   -0.46586  -0.46450  -0.46286  -0.46060  -0.45993
 Alpha  occ. eigenvalues --   -0.45924  -0.45783  -0.45585  -0.45278  -0.45087
 Alpha  occ. eigenvalues --   -0.45025  -0.44746  -0.44623  -0.44547  -0.44302
 Alpha  occ. eigenvalues --   -0.44148  -0.44106  -0.43629  -0.43549  -0.43341
 Alpha  occ. eigenvalues --   -0.43162  -0.43007  -0.42759  -0.42619  -0.42334
 Alpha  occ. eigenvalues --   -0.41756  -0.41615  -0.41439  -0.41035  -0.40776
 Alpha  occ. eigenvalues --   -0.40477  -0.40367  -0.39991  -0.39804  -0.39666
 Alpha  occ. eigenvalues --   -0.39315  -0.39150  -0.38784  -0.38446  -0.38227
 Alpha  occ. eigenvalues --   -0.37900  -0.37711  -0.37297  -0.36326  -0.36056
 Alpha  occ. eigenvalues --   -0.35996  -0.35505  -0.35225  -0.33777  -0.33347
 Alpha  occ. eigenvalues --   -0.32879  -0.32408  -0.32024  -0.31172  -0.26102
 Alpha  occ. eigenvalues --   -0.22525
 Alpha virt. eigenvalues --   -0.06537   0.00849   0.02560   0.04683   0.06029
 Alpha virt. eigenvalues --    0.07017   0.07403   0.07628   0.08470   0.09798
 Alpha virt. eigenvalues --    0.11075   0.11224   0.11376   0.11644   0.12442

 Mulliken charges:
               1
     1  Mg   0.967801
     2  C   -0.017104
     3  C   -0.088599
     4  C   -0.099866
     5  C   -0.084914
     6  N   -0.363659
     7  C   -0.002343
     8  C   -0.100506
     9  C   -0.079782
    10  C    0.049373
    11  C    0.017242
    12  C    0.031923
    13  C    0.022649
    14  C    0.185577
    15  O   -0.268858
    16  O   -0.356162
    17  N   -0.451415
    18  C    0.172925
    19  C   -0.170675
    20  C   -0.056037
    21  C    0.163033
    22  C    0.077195
    23  C    0.042311
    24  O   -0.227695
    25  C   -0.022727
    26  N   -0.355009
    27  C    0.054769
    28  C   -0.070829
    29  C   -0.085010
    30  C    0.016888
    31  C    0.047456
    32  C   -0.040399
    33  C   -0.052519
    34  N   -0.374064
    35  C    0.156135
    36  C   -0.188733
    37  C   -0.029931
    38  C    0.110552
    39  C    0.082302
    40  C    0.081619
    41  O   -0.195422
    42  C   -0.047781
    43  C    0.278960
    44  O   -0.271081
    45  O   -0.379116
    46  C    0.143580
    47  C    0.268535
    48  C   -0.167522
    49  C   -0.226502
    50  C    0.008807
    51  C    0.081309
    52  C    0.002068
    53  C   -0.031185
    54  C   -0.168642
    55  C    0.000075
    56  C    0.027517
    57  C   -0.043859
    58  C    0.014783
    59  C   -0.203315
    60  C    0.002379
    61  C    0.013909
    62  C   -0.042331
    63  C    0.041564
    64  C   -0.198665
    65  C   -0.017573
    66  C   -0.012786
    67  H   -0.012032
    68  H    0.033332
    69  H   -0.010899
    70  H    0.041739
    71  H    0.034319
    72  H    0.056176
    73  H    0.037439
    74  H    0.050404
    75  H    0.037420
    76  H    0.048397
    77  H    0.077176
    78  H    0.044075
    79  H    0.049264
    80  H    0.049557
    81  H    0.058144
    82  H    0.047935
    83  H    0.052488
    84  H    0.068639
    85  H    0.034425
    86  H    0.030487
    87  H    0.041433
    88  H    0.039400
    89  H    0.030733
    90  H    0.039885
    91  H    0.029419
    92  H    0.034480
    93  H    0.037282
    94  H    0.041134
    95  H    0.044736
    96  H    0.024113
    97  H    0.060897
    98  H    0.065908
    99  H    0.054770
   100  H    0.060155
   101  H    0.052699
   102  H    0.067238
   103  H    0.081226
   104  H    0.021408
   105  H    0.013198
   106  H    0.047773
   107  H    0.043627
   108  H    0.018352
   109  H    0.003456
   110  H    0.021786
   111  H    0.023598
   112  H    0.015421
   113  H    0.011215
   114  H    0.009031
   115  H    0.028087
   116  H    0.022294
   117  H    0.032184
   118  H    0.016975
   119  H    0.011505
   120  H    0.021996
   121  H    0.020139
   122  H    0.009785
   123  H    0.019601
   124  H    0.020589
   125  H    0.030132
   126  H    0.034291
   127  H    0.022741
   128  H    0.028309
   129  H    0.013696
   130  H    0.023583
   131  H    0.017833
   132  H    0.028211
   133  H    0.013327
   134  H    0.025376
   135  H    0.021307
   136  H    0.018831
   137  H    0.009319
   138  H    0.039454
   139  H    0.016921
   140  H    0.020040
 Sum of Mulliken charges =  -0.00000

 Dipole moment (field-independent basis, Debye):
    X=              5.4817    Y=              4.2231    Z=             -2.0048  Tot=              7.2043
 Quadrupole moment (field-independent basis, Debye-Ang):
   XX=           -373.4325   YY=           -421.9977   ZZ=           -411.6934
   XY=            -21.3824   XZ=              6.1241   YZ=              5.6877

 Normal termination of Gaussian 16 at Thu May  5 02:52:55 2022.
