 Gaussian 16, Revision A.03,
 Gaussian 16:  ES64L-G16RevA.03 25-Dec-2016

 --------------------
 #p ZINDO=(nstates=5)
 --------------------

 ----------------------------
 step_51_chromophore_12 ZINDO
 ----------------------------
 Symbolic Z-matrix:
 Charge =  0 Multiplicity = 1

                         Standard orientation:
 ---------------------------------------------------------------------
 Center     Atomic      Atomic             Coordinates (Angstroms)
 Number     Number       Type             X           Y           Z
 ---------------------------------------------------------------------
      1         12           0       -4.186110    0.239635   -0.442716
      2          6           0       -3.009558   -2.951816    0.509414
      3          6           0       -0.989077    1.230257   -0.741195
      4          6           0       -5.306984    3.308480   -1.156846
      5          6           0       -7.303750   -0.668760    0.513578
      6          7           0       -2.314415   -0.739878   -0.079590
      7          6           0       -1.995719   -2.087621    0.083951
      8          6           0       -0.496597   -2.370237    0.115520
      9          6           0        0.076211   -0.929506    0.138365
     10          6           0       -1.139013   -0.112748   -0.299064
     11          6           0        0.529937   -0.342234    1.547403
     12          6           0       -0.147816   -3.192857   -1.146408
     13          6           0        1.021148   -4.250571   -0.996578
     14          6           0        2.170287   -4.063335   -2.027602
     15          8           0        1.949065   -3.763249   -3.182004
     16          8           0        3.433462   -4.135986   -1.548829
     17          7           0       -3.265080    1.946338   -1.175842
     18          6           0       -1.925809    2.153584   -1.166347
     19          6           0       -1.692343    3.547705   -1.656343
     20          6           0       -2.958577    4.090127   -1.876004
     21          6           0       -3.920294    3.107693   -1.377713
     22          6           0       -0.318364    4.158728   -1.927027
     23          6           0       -3.344585    5.456390   -2.372424
     24          8           0       -4.516720    5.775541   -2.499000
     25          6           0       -2.262097    6.487363   -2.759418
     26          7           0       -5.932727    1.318531   -0.004369
     27          6           0       -6.210476    2.450617   -0.585117
     28          6           0       -7.659667    2.884832   -0.450095
     29          6           0       -8.376419    1.578000    0.045084
     30          6           0       -7.119265    0.665439    0.185222
     31          6           0       -7.965186    4.093223    0.415036
     32          6           0       -9.499244    1.041829   -0.839105
     33          6           0      -10.473984    2.003312   -1.575791
     34          7           0       -5.097138   -1.513822    0.313883
     35          6           0       -6.361925   -1.685859    0.700455
     36          6           0       -6.489638   -3.006542    1.260950
     37          6           0       -5.237710   -3.573452    1.079105
     38          6           0       -4.366472   -2.570180    0.560120
     39          6           0       -7.657308   -3.770928    1.741325
     40          6           0       -4.465611   -4.783025    1.297914
     41          8           0       -4.753099   -5.903633    1.647079
     42          6           0       -2.974486   -4.402535    0.970826
     43          6           0       -2.274402   -4.687799    2.235975
     44          8           0       -2.318339   -3.989137    3.259277
     45          8           0       -1.411202   -5.754883    2.120275
     46          6           0       -0.343702   -5.889608    3.159538
     47          6           0        4.498493   -4.020218   -2.631283
     48          6           0        5.827263   -3.918003   -1.877410
     49          6           0        7.015366   -3.424511   -2.261327
     50          6           0        7.254772   -2.975034   -3.722341
     51          6           0        8.155263   -3.119331   -1.366467
     52          6           0        8.564087   -1.695418   -1.129522
     53          6           0       10.026907   -1.458630   -1.233535
     54          6           0       10.606132   -0.152582   -0.798367
     55          6           0       12.148049   -0.293793   -0.741356
     56          6           0       10.155939    0.464641    0.531089
     57          6           0        8.880841    1.272615    0.474984
     58          6           0        8.882525    2.559499    1.453494
     59          6           0        7.521688    3.250419    1.515512
     60          6           0        7.685617    4.793635    1.238405
     61          6           0        6.859286    2.993476    2.828248
     62          6           0        5.269435    3.235154    2.643887
     63          6           0        4.680940    4.431242    3.483076
     64          6           0        3.554334    5.061404    2.660688
     65          6           0        4.191810    6.289409    1.993245
     66          6           0        2.307309    5.414626    3.499783
     67          1           0        0.052683    1.493048   -0.936632
     68          1           0       -5.797660    4.189627   -1.573914
     69          1           0       -8.358416   -0.824267    0.749187
     70          1           0       -0.214909   -2.940501    1.000231
     71          1           0        0.884165   -0.859149   -0.589268
     72          1           0        0.040617    0.460810    2.098553
     73          1           0        1.460421    0.172747    1.307487
     74          1           0        0.560293   -1.181028    2.242956
     75          1           0        0.171933   -2.463141   -1.890587
     76          1           0       -1.031824   -3.641032   -1.601752
     77          1           0        0.679184   -5.268339   -1.185968
     78          1           0        1.385503   -4.128641    0.023183
     79          1           0       -0.424055    4.649198   -2.894508
     80          1           0        0.489432    3.427997   -1.875817
     81          1           0       -0.144125    4.980164   -1.232554
     82          1           0       -1.492918    6.528029   -1.988885
     83          1           0       -2.650901    7.496343   -2.898270
     84          1           0       -1.900977    6.188479   -3.744381
     85          1           0       -8.147374    2.963308   -1.421441
     86          1           0       -8.820341    1.723334    1.029665
     87          1           0       -8.068359    3.866579    1.476873
     88          1           0       -8.825624    4.660236    0.059657
     89          1           0       -7.124104    4.773096    0.283903
     90          1           0      -10.165575    0.362260   -0.308103
     91          1           0       -8.926711    0.504126   -1.595611
     92          1           0      -10.478357    2.990594   -1.112411
     93          1           0      -11.479009    1.582464   -1.552985
     94          1           0      -10.263566    2.126557   -2.637925
     95          1           0       -8.188282   -4.200372    0.892644
     96          1           0       -8.372609   -3.069609    2.171322
     97          1           0       -7.421723   -4.602573    2.405083
     98          1           0       -2.671812   -5.031147    0.133150
     99          1           0        0.309539   -6.701330    2.837613
    100          1           0       -0.791485   -6.218572    4.097225
    101          1           0        0.219619   -4.974525    3.342161
    102          1           0        4.529538   -3.020715   -3.064813
    103          1           0        4.603401   -4.772357   -3.413896
    104          1           0        5.797051   -4.168216   -0.816666
    105          1           0        6.393229   -3.168051   -4.363166
    106          1           0        8.011844   -3.558715   -4.246516
    107          1           0        7.412353   -1.896425   -3.742345
    108          1           0        9.041627   -3.685619   -1.653225
    109          1           0        7.824172   -3.571017   -0.432140
    110          1           0        8.270544   -1.616690   -0.083047
    111          1           0        7.997928   -1.043020   -1.793679
    112          1           0       10.231974   -1.540622   -2.300489
    113          1           0       10.539192   -2.289118   -0.748160
    114          1           0       10.392275    0.514327   -1.634336
    115          1           0       12.542139   -1.153876   -1.283191
    116          1           0       12.355548   -0.376284    0.325490
    117          1           0       12.652648    0.613153   -1.075654
    118          1           0       10.979099    1.027558    0.970126
    119          1           0       10.062290   -0.381353    1.212182
    120          1           0        8.016823    0.676419    0.767517
    121          1           0        8.703966    1.615224   -0.544518
    122          1           0        9.621403    3.262046    1.068516
    123          1           0        9.279445    2.230790    2.413616
    124          1           0        6.885171    2.886684    0.709679
    125          1           0        7.446304    5.328879    2.157915
    126          1           0        7.078686    5.022501    0.362946
    127          1           0        8.706995    5.088715    0.997111
    128          1           0        7.208177    3.572967    3.682996
    129          1           0        7.069237    1.934081    2.977096
    130          1           0        4.823762    2.293345    2.962621
    131          1           0        5.023637    3.308635    1.584318
    132          1           0        5.422824    5.172668    3.780078
    133          1           0        4.237484    4.000507    4.380740
    134          1           0        3.082794    4.484987    1.865342
    135          1           0        3.977026    7.205177    2.544164
    136          1           0        3.964057    6.414522    0.935234
    137          1           0        5.276475    6.365552    1.910716
    138          1           0        1.937571    4.548181    4.047373
    139          1           0        1.463931    5.775014    2.910600
    140          1           0        2.492844    6.322930    4.074183
 ---------------------------------------------------------------------

 SCF Done:  E(RZINDO/S) =  -474.706090416     A.U. after   19 cycles

 Excitation energies and oscillator strengths:

 Excited State   1:      Singlet-A      1.2745 eV  972.84 nm  f=0.5111  <S**2>=0.000
     175 ->178        -0.14600
     176 ->177         0.67482
 This state for optimization and/or second-order correction.
 Total Energy, E(CIS/TDA) =  -474.659254876
 Copying the excited state density for this state as the 1-particle RhoCI density.

 Excited State   2:      Singlet-A      1.9302 eV  642.35 nm  f=0.0175  <S**2>=0.000
     175 ->177         0.52660
     176 ->178         0.43409

 Excited State   3:      Singlet-A      2.8982 eV  427.80 nm  f=0.5125  <S**2>=0.000
     168 ->177        -0.11495
     168 ->179         0.17834
     170 ->177         0.12477
     175 ->177        -0.30705
     176 ->178         0.43409
     176 ->179        -0.17191
     176 ->180        -0.22360

 Excited State   4:      Singlet-A      2.9219 eV  424.33 nm  f=0.0539  <S**2>=0.000
     168 ->177        -0.27682
     168 ->179         0.42280
     168 ->180        -0.15827
     168 ->186         0.18869
     176 ->178        -0.13272
     176 ->179         0.23560
     176 ->180         0.12854

 Excited State   5:      Singlet-A      3.0412 eV  407.69 nm  f=0.4651  <S**2>=0.000
     168 ->179        -0.12673
     170 ->177         0.12141
     171 ->180         0.13967
     175 ->177        -0.23892
     176 ->178         0.24871
     176 ->179         0.45127
     176 ->180         0.18887

 The electronic state is 1-A.
 Alpha  occ. eigenvalues --   -1.86360  -1.84341  -1.82412  -1.73749  -1.72046
 Alpha  occ. eigenvalues --   -1.70882  -1.67459  -1.63570  -1.59893  -1.58538
 Alpha  occ. eigenvalues --   -1.56386  -1.53573  -1.49647  -1.48497  -1.47316
 Alpha  occ. eigenvalues --   -1.43144  -1.42307  -1.40982  -1.38934  -1.38573
 Alpha  occ. eigenvalues --   -1.36035  -1.34609  -1.32895  -1.32525  -1.28795
 Alpha  occ. eigenvalues --   -1.27944  -1.25178  -1.21853  -1.20972  -1.18313
 Alpha  occ. eigenvalues --   -1.17499  -1.17425  -1.16876  -1.15629  -1.13961
 Alpha  occ. eigenvalues --   -1.13817  -1.12107  -1.10880  -1.05400  -1.03744
 Alpha  occ. eigenvalues --   -1.03351  -1.01611  -0.99221  -0.98327  -0.97883
 Alpha  occ. eigenvalues --   -0.95991  -0.94273  -0.93398  -0.93141  -0.92348
 Alpha  occ. eigenvalues --   -0.90699  -0.90321  -0.89322  -0.88089  -0.87126
 Alpha  occ. eigenvalues --   -0.85871  -0.85051  -0.83989  -0.82467  -0.81413
 Alpha  occ. eigenvalues --   -0.81152  -0.79309  -0.78656  -0.77013  -0.76367
 Alpha  occ. eigenvalues --   -0.75771  -0.75018  -0.74811  -0.74385  -0.74253
 Alpha  occ. eigenvalues --   -0.73487  -0.72973  -0.71483  -0.71366  -0.71116
 Alpha  occ. eigenvalues --   -0.70818  -0.69725  -0.69124  -0.68616  -0.67527
 Alpha  occ. eigenvalues --   -0.67482  -0.67268  -0.66405  -0.66341  -0.66065
 Alpha  occ. eigenvalues --   -0.65249  -0.65053  -0.64833  -0.64315  -0.63474
 Alpha  occ. eigenvalues --   -0.63254  -0.62845  -0.62222  -0.61879  -0.61742
 Alpha  occ. eigenvalues --   -0.61253  -0.61140  -0.60965  -0.60800  -0.60594
 Alpha  occ. eigenvalues --   -0.60291  -0.59231  -0.58821  -0.58421  -0.58149
 Alpha  occ. eigenvalues --   -0.57781  -0.57389  -0.57263  -0.56928  -0.56724
 Alpha  occ. eigenvalues --   -0.56226  -0.55629  -0.55384  -0.54984  -0.54385
 Alpha  occ. eigenvalues --   -0.54194  -0.53832  -0.53704  -0.53182  -0.53120
 Alpha  occ. eigenvalues --   -0.52673  -0.52559  -0.52282  -0.51880  -0.51503
 Alpha  occ. eigenvalues --   -0.51375  -0.51158  -0.50943  -0.50687  -0.50601
 Alpha  occ. eigenvalues --   -0.50284  -0.49852  -0.49805  -0.49295  -0.49154
 Alpha  occ. eigenvalues --   -0.49055  -0.48819  -0.48426  -0.47876  -0.47810
 Alpha  occ. eigenvalues --   -0.47623  -0.47144  -0.46994  -0.46938  -0.46665
 Alpha  occ. eigenvalues --   -0.46355  -0.46199  -0.45720  -0.45488  -0.45463
 Alpha  occ. eigenvalues --   -0.44864  -0.44673  -0.44420  -0.44253  -0.43851
 Alpha  occ. eigenvalues --   -0.43675  -0.43072  -0.42982  -0.42854  -0.42368
 Alpha  occ. eigenvalues --   -0.41950  -0.40904  -0.40812  -0.38878  -0.38706
 Alpha  occ. eigenvalues --   -0.37925  -0.36725  -0.36255  -0.34482  -0.34265
 Alpha  occ. eigenvalues --   -0.33559  -0.32447  -0.32347  -0.31134  -0.26781
 Alpha  occ. eigenvalues --   -0.21320
 Alpha virt. eigenvalues --   -0.07866  -0.01642  -0.00503   0.01172   0.01880
 Alpha virt. eigenvalues --    0.02793   0.02971   0.03438   0.04750   0.05114
 Alpha virt. eigenvalues --    0.06293   0.06614   0.07607   0.07744   0.08058

 Mulliken charges:
               1
     1  Mg   0.421857
     2  C   -0.021129
     3  C   -0.094948
     4  C   -0.099688
     5  C   -0.068964
     6  N   -0.278684
     7  C    0.065910
     8  C    0.008166
     9  C    0.011575
    10  C    0.182405
    11  C   -0.054179
    12  C   -0.026228
    13  C    0.002553
    14  C    0.464100
    15  O   -0.526144
    16  O   -0.259822
    17  N   -0.329893
    18  C    0.141476
    19  C    0.029370
    20  C   -0.032050
    21  C    0.173495
    22  C   -0.041992
    23  C    0.325936
    24  O   -0.511772
    25  C   -0.031711
    26  N   -0.261599
    27  C    0.199934
    28  C    0.000363
    29  C   -0.008706
    30  C    0.080817
    31  C   -0.044483
    32  C   -0.029949
    33  C   -0.059445
    34  N   -0.289533
    35  C    0.076841
    36  C    0.007002
    37  C   -0.071200
    38  C    0.080543
    39  C   -0.036569
    40  C    0.332830
    41  O   -0.525980
    42  C    0.058979
    43  C    0.500171
    44  O   -0.536486
    45  O   -0.277378
    46  C    0.076986
    47  C    0.103454
    48  C   -0.090258
    49  C   -0.016202
    50  C   -0.056514
    51  C   -0.015619
    52  C   -0.025431
    53  C   -0.018970
    54  C   -0.007672
    55  C   -0.064419
    56  C   -0.025443
    57  C   -0.040535
    58  C   -0.043108
    59  C   -0.006426
    60  C   -0.066776
    61  C   -0.035693
    62  C   -0.050599
    63  C   -0.023264
    64  C   -0.004776
    65  C   -0.062901
    66  C   -0.061597
    67  H    0.017238
    68  H    0.045733
    69  H    0.019571
    70  H    0.035398
    71  H    0.033003
    72  H    0.036345
    73  H    0.017003
    74  H    0.031141
    75  H    0.026814
    76  H    0.032404
    77  H    0.051503
    78  H    0.034840
    79  H    0.033458
    80  H    0.034978
    81  H    0.034933
    82  H    0.033438
    83  H    0.036944
    84  H    0.041676
    85  H    0.035680
    86  H    0.025248
    87  H    0.028121
    88  H    0.022781
    89  H    0.017176
    90  H    0.022536
    91  H    0.018149
    92  H    0.019977
    93  H    0.016177
    94  H    0.019607
    95  H    0.025953
    96  H    0.015334
    97  H    0.038845
    98  H    0.050072
    99  H    0.029804
   100  H    0.047003
   101  H    0.044965
   102  H    0.056626
   103  H    0.070462
   104  H    0.023896
   105  H    0.009477
   106  H    0.029362
   107  H    0.029682
   108  H    0.021349
   109  H    0.009265
   110  H    0.018835
   111  H    0.025713
   112  H    0.009314
   113  H    0.016957
   114  H    0.013277
   115  H    0.020193
   116  H    0.016969
   117  H    0.015547
   118  H    0.019599
   119  H    0.014016
   120  H    0.017966
   121  H    0.019025
   122  H    0.013894
   123  H    0.020463
   124  H    0.022529
   125  H    0.023132
   126  H    0.020309
   127  H    0.017218
   128  H    0.030208
   129  H    0.013338
   130  H    0.012815
   131  H    0.024299
   132  H    0.032848
   133  H    0.013694
   134  H    0.023788
   135  H    0.016541
   136  H    0.009426
   137  H    0.014147
   138  H    0.023381
   139  H    0.006802
   140  H    0.019769
 Sum of Mulliken charges =  -0.00000

 Dipole moment (field-independent basis, Debye):
    X=              8.9468    Y=              7.2112    Z=             -3.3834  Tot=             11.9789
 N-N= 4.475826388534D+03 E-N= 0.000000000000D+00  KE=-9.625927454604D+03
 Leave Link  601 at Thu May  5 03:14:59 2022, MaxMem=  6710886400 cpu:               0.7 elap:               0.0
 (Enter /sw/apps/gaussian-16.0/g16/l9999.exe)
 1\1\GINC-BP1-COMPUTE159\SP\RZINDO CIS\STO-3G\C55H74Mg1N4O6\OF15641\05-
 May-2022\0\\#p ZINDO=(nstates=5)\\step_51_chromophore_12 ZINDO\\0,1\Mg
 ,0,47.996,15.345,28.665\C,0,45.839,15.161,31.456\C,0,50.011,17.341,30.
 467\C,0,49.933,15.668,25.958\C,0,45.6,13.889,26.768\N,0,47.854,16.161,
 30.642\C,0,47.043,15.82,31.724\C,0,47.415,16.527,33.024\C,0,48.488,17.
 527,32.521\C,0,48.831,16.941,31.152\C,0,48.028,19.03,32.265\C,0,47.932
 ,15.454,34.01\C,0,47.627,15.702,35.544\C,0,48.896,15.697,36.443\O,0,49

 Normal termination of Gaussian 16 at Thu May  5 03:14:59 2022.
