 Gaussian 16, Revision A.03,
 Gaussian 16:  ES64L-G16RevA.03 25-Dec-2016

 ------------------------------
 #p blyp/Def2SVP td=(nstates=5)
 ------------------------------

 ---------------------------------------------------
 step_1601_chromophore_24 TDDFT with blyp functional
 ---------------------------------------------------
 Symbolic Z-matrix:
 Charge =  0 Multiplicity = 1

                         Standard orientation:
 ---------------------------------------------------------------------
 Center     Atomic      Atomic             Coordinates (Angstroms)
 Number     Number       Type             X           Y           Z
 ---------------------------------------------------------------------
      1         12           0        4.928264    1.228024   -0.276018
      2          6           0        4.968949   -2.263613   -0.160694
      3          6           0        1.508827    1.111072   -0.229687
      4          6           0        4.953722    4.548109   -0.226303
      5          6           0        8.430463    1.205008    0.027496
      6          7           0        3.390807   -0.438375   -0.306132
      7          6           0        3.664436   -1.746686   -0.114631
      8          6           0        2.464392   -2.532150    0.182331
      9          6           0        1.311304   -1.480916   -0.034186
     10          6           0        2.132644   -0.176653   -0.229361
     11          6           0        0.310903   -1.923867   -1.154099
     12          6           0        2.468913   -3.102082    1.622083
     13          6           0        1.145713   -3.760791    2.167541
     14          6           0        0.240244   -4.441468    1.112894
     15          8           0        0.584906   -5.217897    0.236731
     16          8           0       -1.077953   -4.105525    1.307127
     17          7           0        3.453266    2.600171   -0.329000
     18          6           0        2.086731    2.366157   -0.380350
     19          6           0        1.436335    3.623247   -0.398536
     20          6           0        2.343075    4.664253   -0.306748
     21          6           0        3.665379    3.973189   -0.314742
     22          6           0       -0.015781    3.732408   -0.348810
     23          6           0        2.116973    6.195272   -0.162983
     24          8           0        3.060088    7.029196   -0.076383
     25          6           0        0.686706    6.827303   -0.222731
     26          7           0        6.526301    2.679509   -0.214778
     27          6           0        6.233634    3.994817   -0.173378
     28          6           0        7.437453    4.914869    0.025988
     29          6           0        8.608413    3.785143    0.057939
     30          6           0        7.806843    2.501454    0.007551
     31          6           0        7.677196    6.089653   -1.055342
     32          6           0        9.596468    3.966269    1.270986
     33          6           0        9.328484    3.100380    2.521147
     34          7           0        6.444508   -0.225151   -0.216538
     35          6           0        7.779030   -0.089889   -0.061030
     36          6           0        8.381456   -1.352755   -0.140494
     37          6           0        7.337036   -2.244849   -0.262325
     38          6           0        6.166590   -1.480828   -0.214772
     39          6           0        9.836636   -1.657449   -0.088157
     40          6           0        6.979132   -3.635759   -0.337885
     41          8           0        7.742510   -4.585420   -0.421117
     42          6           0        5.392345   -3.713262   -0.196329
     43          6           0        4.857468   -4.571467   -1.190696
     44          8           0        4.933850   -4.384939   -2.408864
     45          8           0        4.135731   -5.563651   -0.618937
     46          6           0        3.339470   -6.429580   -1.525060
     47          6           0       -1.975677   -4.392003    0.171605
     48          6           0       -3.098988   -3.511082    0.171896
     49          6           0       -3.903732   -3.168123   -0.916855
     50          6           0       -3.779628   -3.751578   -2.255143
     51          6           0       -5.123827   -2.163114   -0.741932
     52          6           0       -5.976332   -2.368797    0.618212
     53          6           0       -5.961572   -1.062447    1.457322
     54          6           0       -7.391104   -0.787797    2.052165
     55          6           0       -7.095642   -0.330486    3.517593
     56          6           0       -8.082497    0.308819    1.181462
     57          6           0       -9.422955   -0.211352    0.624153
     58          6           0      -10.628275    0.005254    1.581749
     59          6           0      -11.796401    0.862507    1.196280
     60          6           0      -12.471024    1.250084    2.472157
     61          6           0      -12.743582    0.220505    0.161669
     62          6           0      -13.222852    1.282340   -0.858563
     63          6           0      -14.597334    1.038207   -1.383525
     64          6           0      -15.374126    2.389334   -1.666289
     65          6           0      -16.810393    2.448021   -1.150437
     66          6           0      -15.271842    2.647498   -3.193809
     67          1           0        0.429264    1.068226   -0.071975
     68          1           0        4.917055    5.640020   -0.204522
     69          1           0        9.513089    1.198966    0.175062
     70          1           0        2.445206   -3.315023   -0.575565
     71          1           0        0.696068   -1.360671    0.857231
     72          1           0       -0.609753   -1.671677   -0.627652
     73          1           0        0.328743   -2.975297   -1.437904
     74          1           0        0.380583   -1.310553   -2.053054
     75          1           0        2.930763   -2.439217    2.353598
     76          1           0        3.065345   -4.014235    1.583212
     77          1           0        0.643071   -3.005263    2.770432
     78          1           0        1.501754   -4.458984    2.924106
     79          1           0       -0.244521    4.208073    0.605126
     80          1           0       -0.580752    2.807231   -0.465151
     81          1           0       -0.452194    4.479812   -1.011723
     82          1           0        0.290146    6.584801   -1.208193
     83          1           0        0.795223    7.891661   -0.013314
     84          1           0       -0.020679    6.450743    0.516908
     85          1           0        7.259515    5.292572    1.032713
     86          1           0        9.209601    3.870796   -0.847502
     87          1           0        8.681825    6.136000   -1.476634
     88          1           0        7.515108    7.094334   -0.665367
     89          1           0        7.006813    5.966595   -1.906044
     90          1           0        9.504364    5.032085    1.480723
     91          1           0       10.566869    3.679468    0.868395
     92          1           0        8.383499    2.559306    2.577550
     93          1           0        9.435967    3.682138    3.436514
     94          1           0       10.153302    2.402076    2.664591
     95          1           0        9.913986   -2.245117    0.826270
     96          1           0       10.478595   -0.792116   -0.253725
     97          1           0       10.051564   -2.212773   -1.001134
     98          1           0        5.186576   -4.154207    0.778801
     99          1           0        3.916098   -7.073582   -2.188599
    100          1           0        2.619794   -5.822583   -2.075182
    101          1           0        2.776431   -6.996210   -0.782935
    102          1           0       -2.228072   -5.445602    0.288532
    103          1           0       -1.387196   -4.331736   -0.744278
    104          1           0       -3.230302   -3.097771    1.171113
    105          1           0       -4.670607   -4.318173   -2.523576
    106          1           0       -2.881567   -4.363323   -2.336926
    107          1           0       -3.681739   -2.908928   -2.939073
    108          1           0       -5.742455   -2.144002   -1.639730
    109          1           0       -4.658464   -1.177222   -0.769181
    110          1           0       -5.587961   -3.184472    1.229193
    111          1           0       -7.028666   -2.579413    0.430352
    112          1           0       -5.470018   -0.207993    0.993043
    113          1           0       -5.168422   -1.238796    2.183809
    114          1           0       -7.970847   -1.695873    2.222089
    115          1           0       -7.170991   -1.202911    4.167768
    116          1           0       -7.729158    0.475775    3.885902
    117          1           0       -6.079305    0.001922    3.732419
    118          1           0       -7.545035    0.541073    0.262055
    119          1           0       -8.270780    1.299112    1.598930
    120          1           0       -9.368956   -1.255792    0.318331
    121          1           0       -9.716231    0.369859   -0.249791
    122          1           0      -10.222010    0.335453    2.537276
    123          1           0      -11.081687   -0.964848    1.786074
    124          1           0      -11.377341    1.757190    0.733814
    125          1           0      -13.556836    1.255613    2.382284
    126          1           0      -12.256813    2.279662    2.756728
    127          1           0      -12.260166    0.580845    3.306654
    128          1           0      -13.518815   -0.335110    0.689378
    129          1           0      -12.116326   -0.560132   -0.269831
    130          1           0      -12.479287    1.240723   -1.654107
    131          1           0      -13.125501    2.284276   -0.440348
    132          1           0      -15.175963    0.320697   -0.802615
    133          1           0      -14.332055    0.479907   -2.281112
    134          1           0      -14.974728    3.282702   -1.187950
    135          1           0      -17.530405    2.515589   -1.965578
    136          1           0      -16.774414    3.426420   -0.670614
    137          1           0      -17.058030    1.630177   -0.472425
    138          1           0      -14.408876    2.242750   -3.721316
    139          1           0      -15.284036    3.720592   -3.383674
    140          1           0      -16.143444    2.148910   -3.617810
 ---------------------------------------------------------------------

 SCF Done:  E(RB-LYP) =  -3007.36011396     A.U. after   21 cycles

 Excitation energies and oscillator strengths:

 Excited State   1:      Singlet-A      1.8296 eV  677.64 nm  f=0.2708  <S**2>=0.000
     245 -> 248       -0.18448
     245 -> 249       -0.10376
     246 -> 247        0.68210
     246 <- 247       -0.13840
 This state for optimization and/or second-order correction.
 Total Energy, E(TD-HF/TD-DFT) =  -3007.29287584
 Copying the excited state density for this state as the 1-particle RhoCI density.

 Excited State   2:      Singlet-A      1.9457 eV  637.21 nm  f=0.0025  <S**2>=0.000
     244 -> 247        0.70279

 Excited State   3:      Singlet-A      2.0350 eV  609.27 nm  f=0.0900  <S**2>=0.000
     245 -> 247        0.64285
     246 -> 248        0.22162
     246 -> 249        0.13747

 Excited State   4:      Singlet-A      2.1992 eV  563.77 nm  f=0.0003  <S**2>=0.000
     243 -> 247        0.70602

 Excited State   5:      Singlet-A      2.4185 eV  512.66 nm  f=0.0001  <S**2>=0.000
     242 -> 247        0.70407

 The electronic state is 1-A.
 Alpha  occ. eigenvalues --  -46.27134 -18.82640 -18.81454 -18.78145 -18.76238
 Alpha  occ. eigenvalues --  -18.75124 -18.75076 -14.03022 -14.02960 -14.01115
 Alpha  occ. eigenvalues --  -14.00189 -10.05484 -10.02362 -10.01162  -9.98924
 Alpha  occ. eigenvalues --   -9.97925  -9.96788  -9.96369  -9.96082  -9.96045
 Alpha  occ. eigenvalues --   -9.95925  -9.95836  -9.95329  -9.94715  -9.94566
 Alpha  occ. eigenvalues --   -9.94322  -9.94231  -9.93788  -9.93742  -9.93630
 Alpha  occ. eigenvalues --   -9.93606  -9.93440  -9.93372  -9.93307  -9.93259
 Alpha  occ. eigenvalues --   -9.93200  -9.93117  -9.92881  -9.92871  -9.92868
 Alpha  occ. eigenvalues --   -9.92831  -9.92806  -9.92751  -9.92695  -9.92554
 Alpha  occ. eigenvalues --   -9.92400  -9.92325  -9.92232  -9.92192  -9.92037
 Alpha  occ. eigenvalues --   -9.91779  -9.91728  -9.91566  -9.91551  -9.91510
 Alpha  occ. eigenvalues --   -9.91176  -9.91062  -9.91004  -9.90920  -9.90889
 Alpha  occ. eigenvalues --   -9.90823  -9.90804  -9.90800  -9.90358  -9.90344
 Alpha  occ. eigenvalues --   -9.89633  -2.91759  -1.72205  -1.71651  -1.71453
 Alpha  occ. eigenvalues --   -0.98702  -0.96884  -0.90775  -0.90768  -0.90005
 Alpha  occ. eigenvalues --   -0.88389  -0.88005  -0.87759  -0.87127  -0.84942
 Alpha  occ. eigenvalues --   -0.75389  -0.73909  -0.73661  -0.72921  -0.72328
 Alpha  occ. eigenvalues --   -0.72150  -0.71429  -0.71289  -0.70990  -0.70469
 Alpha  occ. eigenvalues --   -0.70140  -0.69317  -0.68170  -0.67610  -0.67252
 Alpha  occ. eigenvalues --   -0.66698  -0.66257  -0.65403  -0.64750  -0.64717
 Alpha  occ. eigenvalues --   -0.64448  -0.62656  -0.62551  -0.61526  -0.60679
 Alpha  occ. eigenvalues --   -0.60345  -0.60222  -0.60110  -0.59780  -0.59251
 Alpha  occ. eigenvalues --   -0.58457  -0.57748  -0.56820  -0.55545  -0.55341
 Alpha  occ. eigenvalues --   -0.53975  -0.53806  -0.52870  -0.52428  -0.51985
 Alpha  occ. eigenvalues --   -0.51763  -0.51178  -0.50890  -0.50646  -0.50383
 Alpha  occ. eigenvalues --   -0.50105  -0.49712  -0.48511  -0.47718  -0.47469
 Alpha  occ. eigenvalues --   -0.46514  -0.46041  -0.45781  -0.45008  -0.44245
 Alpha  occ. eigenvalues --   -0.44002  -0.43686  -0.43194  -0.43038  -0.42447
 Alpha  occ. eigenvalues --   -0.42216  -0.41890  -0.41814  -0.41430  -0.41216
 Alpha  occ. eigenvalues --   -0.40916  -0.40792  -0.40593  -0.40373  -0.40013
 Alpha  occ. eigenvalues --   -0.39767  -0.39652  -0.39572  -0.39461  -0.39370
 Alpha  occ. eigenvalues --   -0.39136  -0.38985  -0.38821  -0.38592  -0.38460
 Alpha  occ. eigenvalues --   -0.38236  -0.37788  -0.37722  -0.37581  -0.37491
 Alpha  occ. eigenvalues --   -0.36984  -0.36920  -0.36735  -0.36559  -0.36487
 Alpha  occ. eigenvalues --   -0.36407  -0.36291  -0.35984  -0.35719  -0.35696
 Alpha  occ. eigenvalues --   -0.35318  -0.35149  -0.34984  -0.34852  -0.34654
 Alpha  occ. eigenvalues --   -0.34574  -0.34421  -0.34339  -0.34083  -0.33952
 Alpha  occ. eigenvalues --   -0.33758  -0.33673  -0.33594  -0.33186  -0.33158
 Alpha  occ. eigenvalues --   -0.32862  -0.32826  -0.32724  -0.32512  -0.32300
 Alpha  occ. eigenvalues --   -0.32080  -0.32010  -0.31850  -0.31676  -0.31565
 Alpha  occ. eigenvalues --   -0.31534  -0.31353  -0.31244  -0.31016  -0.30961
 Alpha  occ. eigenvalues --   -0.30828  -0.30201  -0.30105  -0.30101  -0.30045
 Alpha  occ. eigenvalues --   -0.29794  -0.29689  -0.29605  -0.29474  -0.29262
 Alpha  occ. eigenvalues --   -0.29026  -0.28804  -0.28768  -0.28120  -0.27946
 Alpha  occ. eigenvalues --   -0.27293  -0.27252  -0.27076  -0.26499  -0.26306
 Alpha  occ. eigenvalues --   -0.25959  -0.25870  -0.25845  -0.25382  -0.25309
 Alpha  occ. eigenvalues --   -0.25282  -0.24343  -0.24209  -0.23755  -0.23641
 Alpha  occ. eigenvalues --   -0.23366  -0.23145  -0.21894  -0.20875  -0.20531
 Alpha  occ. eigenvalues --   -0.20174  -0.20017  -0.19115  -0.18188  -0.16969
 Alpha  occ. eigenvalues --   -0.15588
 Alpha virt. eigenvalues --   -0.11132  -0.06999  -0.05937  -0.04391  -0.04102
 Alpha virt. eigenvalues --   -0.03154  -0.02080  -0.01124  -0.00773   0.00017
 Alpha virt. eigenvalues --    0.00724   0.01649   0.02119   0.02566   0.02765

 Mulliken charges:
               1
     1  Mg   0.694946
     2  C    0.009721
     3  C   -0.095703
     4  C   -0.038123
     5  C   -0.071853
     6  N   -0.124901
     7  C   -0.139472
     8  C    0.073378
     9  C   -0.049762
    10  C    0.001335
    11  C    0.108177
    12  C    0.074273
    13  C    0.121521
    14  C    0.102135
    15  O   -0.191228
    16  O   -0.284533
    17  N   -0.343500
    18  C    0.188005
    19  C   -0.123304
    20  C    0.057851
    21  C    0.079258
    22  C    0.181958
    23  C   -0.041634
    24  O   -0.189942
    25  C    0.103075
    26  N   -0.159328
    27  C   -0.004638
    28  C    0.029926
    29  C    0.023189
    30  C   -0.020112
    31  C    0.112441
    32  C    0.080414
    33  C    0.067548
    34  N   -0.178367
    35  C    0.094247
    36  C   -0.210972
    37  C    0.115241
    38  C    0.024999
    39  C    0.198819
    40  C   -0.081121
    41  O   -0.125521
    42  C    0.117072
    43  C    0.084948
    44  O   -0.202422
    45  O   -0.270185
    46  C    0.226567
    47  C    0.305398
    48  C   -0.097879
    49  C   -0.167462
    50  C    0.165305
    51  C    0.120995
    52  C    0.076784
    53  C    0.061663
    54  C   -0.024264
    55  C    0.078812
    56  C    0.148970
    57  C    0.056571
    58  C    0.061578
    59  C   -0.087905
    60  C    0.135801
    61  C    0.127291
    62  C    0.060747
    63  C    0.125667
    64  C   -0.097272
    65  C    0.118327
    66  C    0.084454
    67  H   -0.073156
    68  H   -0.052853
    69  H   -0.068875
    70  H   -0.008094
    71  H   -0.021396
    72  H   -0.006615
    73  H    0.023468
    74  H   -0.008753
    75  H   -0.014147
    76  H   -0.002042
    77  H   -0.012440
    78  H    0.002301
    79  H   -0.007407
    80  H   -0.007385
    81  H   -0.021247
    82  H    0.021013
    83  H    0.001105
    84  H   -0.001583
    85  H   -0.010751
    86  H   -0.018475
    87  H   -0.009697
    88  H   -0.000346
    89  H    0.001071
    90  H   -0.010809
    91  H   -0.016686
    92  H    0.015481
    93  H   -0.021548
    94  H   -0.017325
    95  H    0.022522
    96  H   -0.024475
    97  H    0.003850
    98  H   -0.007272
    99  H    0.024482
   100  H    0.014045
   101  H    0.013753
   102  H   -0.002079
   103  H    0.001609
   104  H   -0.026982
   105  H    0.011941
   106  H   -0.019588
   107  H   -0.001640
   108  H   -0.037498
   109  H   -0.009687
   110  H   -0.011348
   111  H   -0.020225
   112  H   -0.031567
   113  H   -0.043030
   114  H   -0.017279
   115  H   -0.024457
   116  H   -0.018573
   117  H   -0.022937
   118  H   -0.037940
   119  H   -0.031032
   120  H   -0.029733
   121  H   -0.046949
   122  H   -0.038241
   123  H   -0.048666
   124  H   -0.049973
   125  H   -0.039112
   126  H   -0.023664
   127  H   -0.017903
   128  H   -0.039265
   129  H   -0.049624
   130  H   -0.029321
   131  H   -0.020596
   132  H   -0.035332
   133  H   -0.037423
   134  H   -0.028686
   135  H   -0.021280
   136  H   -0.020911
   137  H   -0.007296
   138  H   -0.014983
   139  H   -0.020387
   140  H   -0.016062
 Sum of Mulliken charges =  -0.00000

 Dipole moment (field-independent basis, Debye):
    X=             -5.5948    Y=              2.4104    Z=              2.2271  Tot=              6.4863
 Quadrupole moment (field-independent basis, Debye-Ang):
   XX=           -406.4144   YY=           -432.7641   ZZ=           -406.4941
   XY=             37.6295   XZ=             20.2676   YZ=             -7.7000

 Normal termination of Gaussian 16 at Thu Apr 28 15:33:34 2022.
