 Gaussian 16, Revision A.03,
 Gaussian 16:  ES64L-G16RevA.03 25-Dec-2016

 -----------------------------------
 #p cam-b3lyp/Def2SVP td=(nstates=5)
 -----------------------------------

 --------------------------------------------------------
 step_1601_chromophore_24 TDDFT with cam-b3lyp functional
 --------------------------------------------------------
 Symbolic Z-matrix:
 Charge =  0 Multiplicity = 1

                         Standard orientation:
 ---------------------------------------------------------------------
 Center     Atomic      Atomic             Coordinates (Angstroms)
 Number     Number       Type             X           Y           Z
 ---------------------------------------------------------------------
      1         12           0        4.928264    1.228024   -0.276018
      2          6           0        4.968949   -2.263613   -0.160694
      3          6           0        1.508827    1.111072   -0.229687
      4          6           0        4.953722    4.548109   -0.226303
      5          6           0        8.430463    1.205008    0.027496
      6          7           0        3.390807   -0.438375   -0.306132
      7          6           0        3.664436   -1.746686   -0.114631
      8          6           0        2.464392   -2.532150    0.182331
      9          6           0        1.311304   -1.480916   -0.034186
     10          6           0        2.132644   -0.176653   -0.229361
     11          6           0        0.310903   -1.923867   -1.154099
     12          6           0        2.468913   -3.102082    1.622083
     13          6           0        1.145713   -3.760791    2.167541
     14          6           0        0.240244   -4.441468    1.112894
     15          8           0        0.584906   -5.217897    0.236731
     16          8           0       -1.077953   -4.105525    1.307127
     17          7           0        3.453266    2.600171   -0.329000
     18          6           0        2.086731    2.366157   -0.380350
     19          6           0        1.436335    3.623247   -0.398536
     20          6           0        2.343075    4.664253   -0.306748
     21          6           0        3.665379    3.973189   -0.314742
     22          6           0       -0.015781    3.732408   -0.348810
     23          6           0        2.116973    6.195272   -0.162983
     24          8           0        3.060088    7.029196   -0.076383
     25          6           0        0.686706    6.827303   -0.222731
     26          7           0        6.526301    2.679509   -0.214778
     27          6           0        6.233634    3.994817   -0.173378
     28          6           0        7.437453    4.914869    0.025988
     29          6           0        8.608413    3.785143    0.057939
     30          6           0        7.806843    2.501454    0.007551
     31          6           0        7.677196    6.089653   -1.055342
     32          6           0        9.596468    3.966269    1.270986
     33          6           0        9.328484    3.100380    2.521147
     34          7           0        6.444508   -0.225151   -0.216538
     35          6           0        7.779030   -0.089889   -0.061030
     36          6           0        8.381456   -1.352755   -0.140494
     37          6           0        7.337036   -2.244849   -0.262325
     38          6           0        6.166590   -1.480828   -0.214772
     39          6           0        9.836636   -1.657449   -0.088157
     40          6           0        6.979132   -3.635759   -0.337885
     41          8           0        7.742510   -4.585420   -0.421117
     42          6           0        5.392345   -3.713262   -0.196329
     43          6           0        4.857468   -4.571467   -1.190696
     44          8           0        4.933850   -4.384939   -2.408864
     45          8           0        4.135731   -5.563651   -0.618937
     46          6           0        3.339470   -6.429580   -1.525060
     47          6           0       -1.975677   -4.392003    0.171605
     48          6           0       -3.098988   -3.511082    0.171896
     49          6           0       -3.903732   -3.168123   -0.916855
     50          6           0       -3.779628   -3.751578   -2.255143
     51          6           0       -5.123827   -2.163114   -0.741932
     52          6           0       -5.976332   -2.368797    0.618212
     53          6           0       -5.961572   -1.062447    1.457322
     54          6           0       -7.391104   -0.787797    2.052165
     55          6           0       -7.095642   -0.330486    3.517593
     56          6           0       -8.082497    0.308819    1.181462
     57          6           0       -9.422955   -0.211352    0.624153
     58          6           0      -10.628275    0.005254    1.581749
     59          6           0      -11.796401    0.862507    1.196280
     60          6           0      -12.471024    1.250084    2.472157
     61          6           0      -12.743582    0.220505    0.161669
     62          6           0      -13.222852    1.282340   -0.858563
     63          6           0      -14.597334    1.038207   -1.383525
     64          6           0      -15.374126    2.389334   -1.666289
     65          6           0      -16.810393    2.448021   -1.150437
     66          6           0      -15.271842    2.647498   -3.193809
     67          1           0        0.429264    1.068226   -0.071975
     68          1           0        4.917055    5.640020   -0.204522
     69          1           0        9.513089    1.198966    0.175062
     70          1           0        2.445206   -3.315023   -0.575565
     71          1           0        0.696068   -1.360671    0.857231
     72          1           0       -0.609753   -1.671677   -0.627652
     73          1           0        0.328743   -2.975297   -1.437904
     74          1           0        0.380583   -1.310553   -2.053054
     75          1           0        2.930763   -2.439217    2.353598
     76          1           0        3.065345   -4.014235    1.583212
     77          1           0        0.643071   -3.005263    2.770432
     78          1           0        1.501754   -4.458984    2.924106
     79          1           0       -0.244521    4.208073    0.605126
     80          1           0       -0.580752    2.807231   -0.465151
     81          1           0       -0.452194    4.479812   -1.011723
     82          1           0        0.290146    6.584801   -1.208193
     83          1           0        0.795223    7.891661   -0.013314
     84          1           0       -0.020679    6.450743    0.516908
     85          1           0        7.259515    5.292572    1.032713
     86          1           0        9.209601    3.870796   -0.847502
     87          1           0        8.681825    6.136000   -1.476634
     88          1           0        7.515108    7.094334   -0.665367
     89          1           0        7.006813    5.966595   -1.906044
     90          1           0        9.504364    5.032085    1.480723
     91          1           0       10.566869    3.679468    0.868395
     92          1           0        8.383499    2.559306    2.577550
     93          1           0        9.435967    3.682138    3.436514
     94          1           0       10.153302    2.402076    2.664591
     95          1           0        9.913986   -2.245117    0.826270
     96          1           0       10.478595   -0.792116   -0.253725
     97          1           0       10.051564   -2.212773   -1.001134
     98          1           0        5.186576   -4.154207    0.778801
     99          1           0        3.916098   -7.073582   -2.188599
    100          1           0        2.619794   -5.822583   -2.075182
    101          1           0        2.776431   -6.996210   -0.782935
    102          1           0       -2.228072   -5.445602    0.288532
    103          1           0       -1.387196   -4.331736   -0.744278
    104          1           0       -3.230302   -3.097771    1.171113
    105          1           0       -4.670607   -4.318173   -2.523576
    106          1           0       -2.881567   -4.363323   -2.336926
    107          1           0       -3.681739   -2.908928   -2.939073
    108          1           0       -5.742455   -2.144002   -1.639730
    109          1           0       -4.658464   -1.177222   -0.769181
    110          1           0       -5.587961   -3.184472    1.229193
    111          1           0       -7.028666   -2.579413    0.430352
    112          1           0       -5.470018   -0.207993    0.993043
    113          1           0       -5.168422   -1.238796    2.183809
    114          1           0       -7.970847   -1.695873    2.222089
    115          1           0       -7.170991   -1.202911    4.167768
    116          1           0       -7.729158    0.475775    3.885902
    117          1           0       -6.079305    0.001922    3.732419
    118          1           0       -7.545035    0.541073    0.262055
    119          1           0       -8.270780    1.299112    1.598930
    120          1           0       -9.368956   -1.255792    0.318331
    121          1           0       -9.716231    0.369859   -0.249791
    122          1           0      -10.222010    0.335453    2.537276
    123          1           0      -11.081687   -0.964848    1.786074
    124          1           0      -11.377341    1.757190    0.733814
    125          1           0      -13.556836    1.255613    2.382284
    126          1           0      -12.256813    2.279662    2.756728
    127          1           0      -12.260166    0.580845    3.306654
    128          1           0      -13.518815   -0.335110    0.689378
    129          1           0      -12.116326   -0.560132   -0.269831
    130          1           0      -12.479287    1.240723   -1.654107
    131          1           0      -13.125501    2.284276   -0.440348
    132          1           0      -15.175963    0.320697   -0.802615
    133          1           0      -14.332055    0.479907   -2.281112
    134          1           0      -14.974728    3.282702   -1.187950
    135          1           0      -17.530405    2.515589   -1.965578
    136          1           0      -16.774414    3.426420   -0.670614
    137          1           0      -17.058030    1.630177   -0.472425
    138          1           0      -14.408876    2.242750   -3.721316
    139          1           0      -15.284036    3.720592   -3.383674
    140          1           0      -16.143444    2.148910   -3.617810
 ---------------------------------------------------------------------

 SCF Done:  E(RCAM-B3LYP) =  -3007.16295706     A.U. after   18 cycles

 Excitation energies and oscillator strengths:

 Excited State   1:      Singlet-A      1.7617 eV  703.77 nm  f=0.3689  <S**2>=0.000
     245 -> 248       -0.18602
     246 -> 247        0.68157
     245 <- 248       -0.10459
 This state for optimization and/or second-order correction.
 Total Energy, E(TD-HF/TD-DFT) =  -3007.09821536
 Copying the excited state density for this state as the 1-particle RhoCI density.

 Excited State   2:      Singlet-A      2.2715 eV  545.83 nm  f=0.1039  <S**2>=0.000
     245 -> 247        0.62899
     246 -> 248        0.30422

 Excited State   3:      Singlet-A      3.4923 eV  355.02 nm  f=0.6132  <S**2>=0.000
     240 -> 247       -0.10829
     241 -> 247       -0.17267
     245 -> 247       -0.28049
     246 -> 248        0.61178
     245 <- 247        0.10404

 Excited State   4:      Singlet-A      3.5445 eV  349.79 nm  f=0.0011  <S**2>=0.000
     241 -> 247       -0.19356
     242 -> 247       -0.25292
     242 -> 249       -0.14763
     242 -> 250       -0.18495
     243 -> 247        0.53815
     244 -> 247       -0.13889

 Excited State   5:      Singlet-A      3.5979 eV  344.60 nm  f=0.0117  <S**2>=0.000
     242 -> 247        0.53776
     242 -> 249        0.15123
     242 -> 250        0.16716
     243 -> 247        0.30947
     244 -> 247       -0.12655

 The electronic state is 1-A.
 Alpha  occ. eigenvalues --  -46.88675 -19.25481 -19.24381 -19.21152 -19.19791
 Alpha  occ. eigenvalues --  -19.18093 -19.18056 -14.41914 -14.41755 -14.39688
 Alpha  occ. eigenvalues --  -14.38398 -10.40836 -10.37696 -10.36834 -10.34059
 Alpha  occ. eigenvalues --  -10.31940 -10.31017 -10.30777 -10.30771 -10.30493
 Alpha  occ. eigenvalues --  -10.30212 -10.30112 -10.29932 -10.28609 -10.28574
 Alpha  occ. eigenvalues --  -10.28526 -10.28257 -10.28238 -10.27923 -10.27902
 Alpha  occ. eigenvalues --  -10.27715 -10.27633 -10.27583 -10.27501 -10.27213
 Alpha  occ. eigenvalues --  -10.27169 -10.27151 -10.27091 -10.27058 -10.26914
 Alpha  occ. eigenvalues --  -10.26878 -10.26832 -10.26528 -10.26508 -10.26306
 Alpha  occ. eigenvalues --  -10.26294 -10.26215 -10.26179 -10.25998 -10.25777
 Alpha  occ. eigenvalues --  -10.25601 -10.25485 -10.25287 -10.25172 -10.25064
 Alpha  occ. eigenvalues --  -10.24887 -10.24733 -10.24653 -10.24581 -10.24570
 Alpha  occ. eigenvalues --  -10.24479 -10.24411 -10.24390 -10.24025 -10.23942
 Alpha  occ. eigenvalues --  -10.23335  -3.17207  -1.92129  -1.91665  -1.91503
 Alpha  occ. eigenvalues --   -1.17163  -1.15375  -1.08954  -1.08633  -1.08607
 Alpha  occ. eigenvalues --   -1.06150  -1.05882  -1.05390  -1.04742  -1.02727
 Alpha  occ. eigenvalues --   -0.92454  -0.90806  -0.90512  -0.89709  -0.89125
 Alpha  occ. eigenvalues --   -0.89047  -0.88060  -0.87850  -0.87679  -0.86982
 Alpha  occ. eigenvalues --   -0.86603  -0.85622  -0.84456  -0.83797  -0.83356
 Alpha  occ. eigenvalues --   -0.82829  -0.82238  -0.81456  -0.80846  -0.80598
 Alpha  occ. eigenvalues --   -0.80368  -0.78543  -0.78181  -0.76948  -0.76029
 Alpha  occ. eigenvalues --   -0.75725  -0.75524  -0.75421  -0.75117  -0.74534
 Alpha  occ. eigenvalues --   -0.73470  -0.72722  -0.71782  -0.70338  -0.69938
 Alpha  occ. eigenvalues --   -0.68642  -0.68397  -0.67347  -0.66816  -0.66213
 Alpha  occ. eigenvalues --   -0.66074  -0.65137  -0.65024  -0.64741  -0.64357
 Alpha  occ. eigenvalues --   -0.64044  -0.63753  -0.62404  -0.61376  -0.61064
 Alpha  occ. eigenvalues --   -0.60309  -0.59573  -0.59338  -0.58323  -0.57788
 Alpha  occ. eigenvalues --   -0.57502  -0.57118  -0.56255  -0.56208  -0.55495
 Alpha  occ. eigenvalues --   -0.55331  -0.54975  -0.54862  -0.54406  -0.54072
 Alpha  occ. eigenvalues --   -0.53890  -0.53751  -0.53221  -0.53018  -0.52933
 Alpha  occ. eigenvalues --   -0.52703  -0.52551  -0.52241  -0.52085  -0.52003
 Alpha  occ. eigenvalues --   -0.51704  -0.51503  -0.51327  -0.51025  -0.50819
 Alpha  occ. eigenvalues --   -0.50466  -0.50325  -0.50019  -0.49925  -0.49795
 Alpha  occ. eigenvalues --   -0.49419  -0.49126  -0.49116  -0.48912  -0.48749
 Alpha  occ. eigenvalues --   -0.48603  -0.48506  -0.48280  -0.47931  -0.47815
 Alpha  occ. eigenvalues --   -0.47680  -0.47404  -0.47076  -0.47010  -0.46740
 Alpha  occ. eigenvalues --   -0.46535  -0.46275  -0.46115  -0.45892  -0.45737
 Alpha  occ. eigenvalues --   -0.45531  -0.45443  -0.45366  -0.45017  -0.44878
 Alpha  occ. eigenvalues --   -0.44643  -0.44563  -0.44453  -0.44388  -0.44030
 Alpha  occ. eigenvalues --   -0.43781  -0.43670  -0.43254  -0.43215  -0.42985
 Alpha  occ. eigenvalues --   -0.42920  -0.42817  -0.42539  -0.42474  -0.42409
 Alpha  occ. eigenvalues --   -0.42195  -0.41892  -0.41811  -0.41514  -0.41343
 Alpha  occ. eigenvalues --   -0.41237  -0.41206  -0.40885  -0.40809  -0.40664
 Alpha  occ. eigenvalues --   -0.40258  -0.39830  -0.39760  -0.39065  -0.38873
 Alpha  occ. eigenvalues --   -0.38447  -0.38130  -0.38081  -0.37477  -0.37271
 Alpha  occ. eigenvalues --   -0.37238  -0.36669  -0.36534  -0.36166  -0.35978
 Alpha  occ. eigenvalues --   -0.35934  -0.35719  -0.35318  -0.34675  -0.34256
 Alpha  occ. eigenvalues --   -0.34212  -0.33420  -0.32581  -0.31689  -0.31207
 Alpha  occ. eigenvalues --   -0.30241  -0.29963  -0.29481  -0.29442  -0.23704
 Alpha  occ. eigenvalues --   -0.20870
 Alpha virt. eigenvalues --   -0.08142  -0.01697   0.00324   0.02956   0.03259
 Alpha virt. eigenvalues --    0.03644   0.04361   0.05089   0.05817   0.06986
 Alpha virt. eigenvalues --    0.07748   0.08222   0.08849   0.08932   0.09314

 Mulliken charges:
               1
     1  Mg   0.829793
     2  C   -0.010328
     3  C   -0.108639
     4  C   -0.061450
     5  C   -0.069071
     6  N   -0.198102
     7  C   -0.091775
     8  C    0.013375
     9  C   -0.099081
    10  C    0.025656
    11  C    0.053376
    12  C    0.029058
    13  C    0.051858
    14  C    0.177750
    15  O   -0.231615
    16  O   -0.348677
    17  N   -0.435022
    18  C    0.199760
    19  C   -0.129493
    20  C   -0.009450
    21  C    0.109689
    22  C    0.115212
    23  C    0.036485
    24  O   -0.229043
    25  C    0.028955
    26  N   -0.234362
    27  C    0.019843
    28  C   -0.029375
    29  C   -0.021743
    30  C   -0.010652
    31  C    0.053800
    32  C    0.027134
    33  C    0.002079
    34  N   -0.272163
    35  C    0.092574
    36  C   -0.210714
    37  C    0.035876
    38  C    0.060355
    39  C    0.146826
    40  C    0.023535
    41  O   -0.166653
    42  C    0.030466
    43  C    0.175219
    44  O   -0.239172
    45  O   -0.334257
    46  C    0.188113
    47  C    0.274235
    48  C   -0.123206
    49  C   -0.184811
    50  C    0.097615
    51  C    0.070209
    52  C    0.021704
    53  C    0.011895
    54  C   -0.089708
    55  C    0.024958
    56  C    0.093432
    57  C    0.003652
    58  C    0.010830
    59  C   -0.141093
    60  C    0.070723
    61  C    0.073713
    62  C    0.011161
    63  C    0.064149
    64  C   -0.157874
    65  C    0.059001
    66  C    0.029684
    67  H   -0.036960
    68  H   -0.011370
    69  H   -0.034271
    70  H    0.025013
    71  H    0.012074
    72  H    0.015154
    73  H    0.043080
    74  H    0.019134
    75  H    0.017559
    76  H    0.026015
    77  H    0.021590
    78  H    0.036318
    79  H    0.020833
    80  H    0.022735
    81  H    0.008093
    82  H    0.046195
    83  H    0.036956
    84  H    0.026283
    85  H    0.023117
    86  H    0.016184
    87  H    0.015104
    88  H    0.023782
    89  H    0.026052
    90  H    0.015932
    91  H    0.010820
    92  H    0.038486
    93  H    0.003914
    94  H    0.006810
    95  H    0.046596
    96  H    0.000747
    97  H    0.030144
    98  H    0.038330
    99  H    0.047903
   100  H    0.035644
   101  H    0.038571
   102  H    0.028218
   103  H    0.025296
   104  H    0.006998
   105  H    0.036658
   106  H    0.005462
   107  H    0.021758
   108  H   -0.006240
   109  H    0.017240
   110  H    0.017759
   111  H    0.006059
   112  H   -0.003336
   113  H   -0.014397
   114  H    0.014297
   115  H    0.000639
   116  H    0.004315
   117  H    0.000951
   118  H   -0.008031
   119  H   -0.002121
   120  H   -0.002946
   121  H   -0.018105
   122  H   -0.010261
   123  H   -0.019650
   124  H   -0.017965
   125  H   -0.012770
   126  H    0.002228
   127  H    0.007868
   128  H   -0.010483
   129  H   -0.019701
   130  H   -0.002776
   131  H    0.005283
   132  H   -0.006700
   133  H   -0.007547
   134  H    0.001841
   135  H    0.003332
   136  H    0.002688
   137  H    0.016498
   138  H    0.008275
   139  H    0.003963
   140  H    0.006613
 Sum of Mulliken charges =  -0.00000

 Dipole moment (field-independent basis, Debye):
    X=             -6.4897    Y=              3.2109    Z=              2.3711  Tot=              7.6190
 Quadrupole moment (field-independent basis, Debye-Ang):
   XX=           -412.0199   YY=           -428.6741   ZZ=           -406.3585
   XY=             39.1059   XZ=             21.2462   YZ=             -8.2038

 Normal termination of Gaussian 16 at Thu Apr 28 14:31:14 2022.
