 Gaussian 16, Revision A.03,
 Gaussian 16:  ES64L-G16RevA.03 25-Dec-2016

 ---------------------------------
 #p PBE1PBE/Def2SVP td=(nstates=5)
 ---------------------------------

 ------------------------------------------------------
 step_1601_chromophore_24 TDDFT with PBE1PBE functional
 ------------------------------------------------------
 Symbolic Z-matrix:
 Charge =  0 Multiplicity = 1

                         Standard orientation:
 ---------------------------------------------------------------------
 Center     Atomic      Atomic             Coordinates (Angstroms)
 Number     Number       Type             X           Y           Z
 ---------------------------------------------------------------------
      1         12           0        4.928264    1.228024   -0.276018
      2          6           0        4.968949   -2.263613   -0.160694
      3          6           0        1.508827    1.111072   -0.229687
      4          6           0        4.953722    4.548109   -0.226303
      5          6           0        8.430463    1.205008    0.027496
      6          7           0        3.390807   -0.438375   -0.306132
      7          6           0        3.664436   -1.746686   -0.114631
      8          6           0        2.464392   -2.532150    0.182331
      9          6           0        1.311304   -1.480916   -0.034186
     10          6           0        2.132644   -0.176653   -0.229361
     11          6           0        0.310903   -1.923867   -1.154099
     12          6           0        2.468913   -3.102082    1.622083
     13          6           0        1.145713   -3.760791    2.167541
     14          6           0        0.240244   -4.441468    1.112894
     15          8           0        0.584906   -5.217897    0.236731
     16          8           0       -1.077953   -4.105525    1.307127
     17          7           0        3.453266    2.600171   -0.329000
     18          6           0        2.086731    2.366157   -0.380350
     19          6           0        1.436335    3.623247   -0.398536
     20          6           0        2.343075    4.664253   -0.306748
     21          6           0        3.665379    3.973189   -0.314742
     22          6           0       -0.015781    3.732408   -0.348810
     23          6           0        2.116973    6.195272   -0.162983
     24          8           0        3.060088    7.029196   -0.076383
     25          6           0        0.686706    6.827303   -0.222731
     26          7           0        6.526301    2.679509   -0.214778
     27          6           0        6.233634    3.994817   -0.173378
     28          6           0        7.437453    4.914869    0.025988
     29          6           0        8.608413    3.785143    0.057939
     30          6           0        7.806843    2.501454    0.007551
     31          6           0        7.677196    6.089653   -1.055342
     32          6           0        9.596468    3.966269    1.270986
     33          6           0        9.328484    3.100380    2.521147
     34          7           0        6.444508   -0.225151   -0.216538
     35          6           0        7.779030   -0.089889   -0.061030
     36          6           0        8.381456   -1.352755   -0.140494
     37          6           0        7.337036   -2.244849   -0.262325
     38          6           0        6.166590   -1.480828   -0.214772
     39          6           0        9.836636   -1.657449   -0.088157
     40          6           0        6.979132   -3.635759   -0.337885
     41          8           0        7.742510   -4.585420   -0.421117
     42          6           0        5.392345   -3.713262   -0.196329
     43          6           0        4.857468   -4.571467   -1.190696
     44          8           0        4.933850   -4.384939   -2.408864
     45          8           0        4.135731   -5.563651   -0.618937
     46          6           0        3.339470   -6.429580   -1.525060
     47          6           0       -1.975677   -4.392003    0.171605
     48          6           0       -3.098988   -3.511082    0.171896
     49          6           0       -3.903732   -3.168123   -0.916855
     50          6           0       -3.779628   -3.751578   -2.255143
     51          6           0       -5.123827   -2.163114   -0.741932
     52          6           0       -5.976332   -2.368797    0.618212
     53          6           0       -5.961572   -1.062447    1.457322
     54          6           0       -7.391104   -0.787797    2.052165
     55          6           0       -7.095642   -0.330486    3.517593
     56          6           0       -8.082497    0.308819    1.181462
     57          6           0       -9.422955   -0.211352    0.624153
     58          6           0      -10.628275    0.005254    1.581749
     59          6           0      -11.796401    0.862507    1.196280
     60          6           0      -12.471024    1.250084    2.472157
     61          6           0      -12.743582    0.220505    0.161669
     62          6           0      -13.222852    1.282340   -0.858563
     63          6           0      -14.597334    1.038207   -1.383525
     64          6           0      -15.374126    2.389334   -1.666289
     65          6           0      -16.810393    2.448021   -1.150437
     66          6           0      -15.271842    2.647498   -3.193809
     67          1           0        0.429264    1.068226   -0.071975
     68          1           0        4.917055    5.640020   -0.204522
     69          1           0        9.513089    1.198966    0.175062
     70          1           0        2.445206   -3.315023   -0.575565
     71          1           0        0.696068   -1.360671    0.857231
     72          1           0       -0.609753   -1.671677   -0.627652
     73          1           0        0.328743   -2.975297   -1.437904
     74          1           0        0.380583   -1.310553   -2.053054
     75          1           0        2.930763   -2.439217    2.353598
     76          1           0        3.065345   -4.014235    1.583212
     77          1           0        0.643071   -3.005263    2.770432
     78          1           0        1.501754   -4.458984    2.924106
     79          1           0       -0.244521    4.208073    0.605126
     80          1           0       -0.580752    2.807231   -0.465151
     81          1           0       -0.452194    4.479812   -1.011723
     82          1           0        0.290146    6.584801   -1.208193
     83          1           0        0.795223    7.891661   -0.013314
     84          1           0       -0.020679    6.450743    0.516908
     85          1           0        7.259515    5.292572    1.032713
     86          1           0        9.209601    3.870796   -0.847502
     87          1           0        8.681825    6.136000   -1.476634
     88          1           0        7.515108    7.094334   -0.665367
     89          1           0        7.006813    5.966595   -1.906044
     90          1           0        9.504364    5.032085    1.480723
     91          1           0       10.566869    3.679468    0.868395
     92          1           0        8.383499    2.559306    2.577550
     93          1           0        9.435967    3.682138    3.436514
     94          1           0       10.153302    2.402076    2.664591
     95          1           0        9.913986   -2.245117    0.826270
     96          1           0       10.478595   -0.792116   -0.253725
     97          1           0       10.051564   -2.212773   -1.001134
     98          1           0        5.186576   -4.154207    0.778801
     99          1           0        3.916098   -7.073582   -2.188599
    100          1           0        2.619794   -5.822583   -2.075182
    101          1           0        2.776431   -6.996210   -0.782935
    102          1           0       -2.228072   -5.445602    0.288532
    103          1           0       -1.387196   -4.331736   -0.744278
    104          1           0       -3.230302   -3.097771    1.171113
    105          1           0       -4.670607   -4.318173   -2.523576
    106          1           0       -2.881567   -4.363323   -2.336926
    107          1           0       -3.681739   -2.908928   -2.939073
    108          1           0       -5.742455   -2.144002   -1.639730
    109          1           0       -4.658464   -1.177222   -0.769181
    110          1           0       -5.587961   -3.184472    1.229193
    111          1           0       -7.028666   -2.579413    0.430352
    112          1           0       -5.470018   -0.207993    0.993043
    113          1           0       -5.168422   -1.238796    2.183809
    114          1           0       -7.970847   -1.695873    2.222089
    115          1           0       -7.170991   -1.202911    4.167768
    116          1           0       -7.729158    0.475775    3.885902
    117          1           0       -6.079305    0.001922    3.732419
    118          1           0       -7.545035    0.541073    0.262055
    119          1           0       -8.270780    1.299112    1.598930
    120          1           0       -9.368956   -1.255792    0.318331
    121          1           0       -9.716231    0.369859   -0.249791
    122          1           0      -10.222010    0.335453    2.537276
    123          1           0      -11.081687   -0.964848    1.786074
    124          1           0      -11.377341    1.757190    0.733814
    125          1           0      -13.556836    1.255613    2.382284
    126          1           0      -12.256813    2.279662    2.756728
    127          1           0      -12.260166    0.580845    3.306654
    128          1           0      -13.518815   -0.335110    0.689378
    129          1           0      -12.116326   -0.560132   -0.269831
    130          1           0      -12.479287    1.240723   -1.654107
    131          1           0      -13.125501    2.284276   -0.440348
    132          1           0      -15.175963    0.320697   -0.802615
    133          1           0      -14.332055    0.479907   -2.281112
    134          1           0      -14.974728    3.282702   -1.187950
    135          1           0      -17.530405    2.515589   -1.965578
    136          1           0      -16.774414    3.426420   -0.670614
    137          1           0      -17.058030    1.630177   -0.472425
    138          1           0      -14.408876    2.242750   -3.721316
    139          1           0      -15.284036    3.720592   -3.383674
    140          1           0      -16.143444    2.148910   -3.617810
 ---------------------------------------------------------------------

 SCF Done:  E(RPBE1PBE) =  -3005.35124681     A.U. after   15 cycles

 Excitation energies and oscillator strengths:

 Excited State   1:      Singlet-A      1.9003 eV  652.45 nm  f=0.3526  <S**2>=0.000
     245 -> 248       -0.17653
     246 -> 247        0.68783
 This state for optimization and/or second-order correction.
 Total Energy, E(TD-HF/TD-DFT) =  -3005.28141230
 Copying the excited state density for this state as the 1-particle RhoCI density.

 Excited State   2:      Singlet-A      2.2695 eV  546.30 nm  f=0.1086  <S**2>=0.000
     245 -> 247        0.64431
     246 -> 248        0.26777

 Excited State   3:      Singlet-A      3.0114 eV  411.71 nm  f=0.0009  <S**2>=0.000
     242 -> 247        0.11238
     243 -> 247        0.66704
     243 -> 249        0.12442
     243 -> 250        0.11557

 Excited State   4:      Singlet-A      3.2055 eV  386.78 nm  f=0.0350  <S**2>=0.000
     242 -> 247        0.62026
     243 -> 247       -0.11638
     246 -> 248       -0.26801
     246 -> 249       -0.10967

 Excited State   5:      Singlet-A      3.2382 eV  382.88 nm  f=0.2027  <S**2>=0.000
     239 -> 247       -0.10108
     241 -> 247       -0.10362
     242 -> 247        0.28849
     245 -> 247       -0.18557
     246 -> 248        0.53497
     246 -> 249        0.23234

 The electronic state is 1-A.
 Alpha  occ. eigenvalues --  -46.92063 -19.26183 -19.25062 -19.21418 -19.19859
 Alpha  occ. eigenvalues --  -19.18462 -19.18370 -14.41327 -14.41249 -14.39305
 Alpha  occ. eigenvalues --  -14.38099 -10.37892 -10.34706 -10.33857 -10.31366
 Alpha  occ. eigenvalues --  -10.29325 -10.28550 -10.28306 -10.28099 -10.28096
 Alpha  occ. eigenvalues --  -10.28025 -10.27921 -10.27378 -10.26471 -10.26273
 Alpha  occ. eigenvalues --  -10.26120 -10.26089 -10.25647 -10.25617 -10.25555
 Alpha  occ. eigenvalues --  -10.25441 -10.25407 -10.25401 -10.25310 -10.25028
 Alpha  occ. eigenvalues --  -10.24759 -10.24737 -10.24697 -10.24651 -10.24601
 Alpha  occ. eigenvalues --  -10.24252 -10.24207 -10.24133 -10.24098 -10.23874
 Alpha  occ. eigenvalues --  -10.23855 -10.23782 -10.23754 -10.23455 -10.23405
 Alpha  occ. eigenvalues --  -10.23232 -10.23047 -10.22891 -10.22745 -10.22542
 Alpha  occ. eigenvalues --  -10.22416 -10.22376 -10.22152 -10.22119 -10.22022
 Alpha  occ. eigenvalues --  -10.21978 -10.21790 -10.21772 -10.21555 -10.21298
 Alpha  occ. eigenvalues --  -10.21262  -3.14177  -1.87041  -1.86553  -1.86397
 Alpha  occ. eigenvalues --   -1.11970  -1.10182  -1.03857  -1.03477  -1.03182
 Alpha  occ. eigenvalues --   -1.00871  -1.00717  -1.00153  -0.99459  -0.97240
 Alpha  occ. eigenvalues --   -0.86871  -0.84897  -0.84642  -0.83932  -0.83290
 Alpha  occ. eigenvalues --   -0.83150  -0.82167  -0.82133  -0.81966  -0.81380
 Alpha  occ. eigenvalues --   -0.80978  -0.79830  -0.78620  -0.78096  -0.77638
 Alpha  occ. eigenvalues --   -0.77067  -0.76427  -0.75643  -0.74987  -0.74746
 Alpha  occ. eigenvalues --   -0.74694  -0.72703  -0.72520  -0.71289  -0.70392
 Alpha  occ. eigenvalues --   -0.69824  -0.69815  -0.69635  -0.69226  -0.68697
 Alpha  occ. eigenvalues --   -0.67819  -0.67156  -0.66215  -0.64631  -0.64349
 Alpha  occ. eigenvalues --   -0.63062  -0.62667  -0.61792  -0.61030  -0.60636
 Alpha  occ. eigenvalues --   -0.60233  -0.59648  -0.59283  -0.59154  -0.58918
 Alpha  occ. eigenvalues --   -0.58525  -0.57897  -0.56574  -0.55986  -0.55511
 Alpha  occ. eigenvalues --   -0.54757  -0.54120  -0.53893  -0.53030  -0.52283
 Alpha  occ. eigenvalues --   -0.51945  -0.51634  -0.50851  -0.50677  -0.49995
 Alpha  occ. eigenvalues --   -0.49888  -0.49556  -0.49398  -0.48829  -0.48519
 Alpha  occ. eigenvalues --   -0.48476  -0.48166  -0.47697  -0.47518  -0.47469
 Alpha  occ. eigenvalues --   -0.47211  -0.46878  -0.46702  -0.46638  -0.46509
 Alpha  occ. eigenvalues --   -0.46267  -0.46116  -0.45855  -0.45652  -0.45333
 Alpha  occ. eigenvalues --   -0.44995  -0.44768  -0.44606  -0.44533  -0.44454
 Alpha  occ. eigenvalues --   -0.43929  -0.43712  -0.43695  -0.43440  -0.43373
 Alpha  occ. eigenvalues --   -0.43171  -0.43059  -0.42917  -0.42581  -0.42466
 Alpha  occ. eigenvalues --   -0.42354  -0.42130  -0.41751  -0.41600  -0.41457
 Alpha  occ. eigenvalues --   -0.41109  -0.40972  -0.40733  -0.40680  -0.40383
 Alpha  occ. eigenvalues --   -0.40214  -0.40159  -0.40044  -0.39767  -0.39572
 Alpha  occ. eigenvalues --   -0.39324  -0.39282  -0.39153  -0.39110  -0.38696
 Alpha  occ. eigenvalues --   -0.38617  -0.38392  -0.38136  -0.38066  -0.37894
 Alpha  occ. eigenvalues --   -0.37763  -0.37702  -0.37335  -0.37272  -0.37259
 Alpha  occ. eigenvalues --   -0.36959  -0.36722  -0.36556  -0.36339  -0.36023
 Alpha  occ. eigenvalues --   -0.36012  -0.35962  -0.35787  -0.35565  -0.35458
 Alpha  occ. eigenvalues --   -0.35131  -0.34669  -0.34551  -0.33857  -0.33653
 Alpha  occ. eigenvalues --   -0.33419  -0.33056  -0.32867  -0.32463  -0.32239
 Alpha  occ. eigenvalues --   -0.32079  -0.31735  -0.31371  -0.31231  -0.30764
 Alpha  occ. eigenvalues --   -0.30753  -0.30714  -0.30143  -0.29624  -0.29490
 Alpha  occ. eigenvalues --   -0.29121  -0.28795  -0.27625  -0.26781  -0.26245
 Alpha  occ. eigenvalues --   -0.25815  -0.25298  -0.24941  -0.24795  -0.20639
 Alpha  occ. eigenvalues --   -0.18513
 Alpha virt. eigenvalues --   -0.10664  -0.05239  -0.03797  -0.01498  -0.01278
 Alpha virt. eigenvalues --   -0.00162   0.00884   0.01119   0.01884   0.02885
 Alpha virt. eigenvalues --    0.03508   0.04673   0.05063   0.05570   0.05708

 Mulliken charges:
               1
     1  Mg   0.978760
     2  C   -0.007345
     3  C   -0.099091
     4  C   -0.052262
     5  C   -0.053750
     6  N   -0.314014
     7  C   -0.010583
     8  C   -0.071668
     9  C   -0.171339
    10  C    0.070687
    11  C   -0.003731
    12  C   -0.018294
    13  C   -0.023056
    14  C    0.243135
    15  O   -0.265662
    16  O   -0.380617
    17  N   -0.552374
    18  C    0.228317
    19  C   -0.175436
    20  C   -0.053970
    21  C    0.143406
    22  C    0.059103
    23  C    0.084288
    24  O   -0.265116
    25  C   -0.043523
    26  N   -0.346881
    27  C    0.051172
    28  C   -0.105180
    29  C   -0.085361
    30  C    0.027426
    31  C   -0.005262
    32  C   -0.037424
    33  C   -0.070343
    34  N   -0.413441
    35  C    0.118128
    36  C   -0.238433
    37  C   -0.014803
    38  C    0.118302
    39  C    0.093415
    40  C    0.130781
    41  O   -0.212914
    42  C   -0.085575
    43  C    0.271821
    44  O   -0.275649
    45  O   -0.368841
    46  C    0.132833
    47  C    0.238048
    48  C   -0.140780
    49  C   -0.228977
    50  C    0.030416
    51  C    0.016436
    52  C   -0.044230
    53  C   -0.036097
    54  C   -0.183304
    55  C   -0.030602
    56  C    0.041768
    57  C   -0.064770
    58  C   -0.040940
    59  C   -0.230496
    60  C    0.012927
    61  C    0.021683
    62  C   -0.051361
    63  C    0.006177
    64  C   -0.250035
    65  C    0.000902
    66  C   -0.030163
    67  H   -0.003804
    68  H    0.021695
    69  H   -0.001623
    70  H    0.068768
    71  H    0.049576
    72  H    0.043929
    73  H    0.067011
    74  H    0.047270
    75  H    0.049214
    76  H    0.060848
    77  H    0.052955
    78  H    0.068468
    79  H    0.049507
    80  H    0.048226
    81  H    0.036134
    82  H    0.072395
    83  H    0.063341
    84  H    0.051832
    85  H    0.060669
    86  H    0.053608
    87  H    0.041444
    88  H    0.050726
    89  H    0.053586
    90  H    0.049270
    91  H    0.042541
    92  H    0.066972
    93  H    0.033309
    94  H    0.034455
    95  H    0.074537
    96  H    0.028040
    97  H    0.058979
    98  H    0.077098
    99  H    0.069536
   100  H    0.056985
   101  H    0.060339
   102  H    0.055973
   103  H    0.051411
   104  H    0.037647
   105  H    0.064480
   106  H    0.033053
   107  H    0.050175
   108  H    0.024602
   109  H    0.049823
   110  H    0.049451
   111  H    0.040227
   112  H    0.026560
   113  H    0.018419
   114  H    0.049285
   115  H    0.028915
   116  H    0.030982
   117  H    0.028037
   118  H    0.025131
   119  H    0.029395
   120  H    0.029594
   121  H    0.016520
   122  H    0.024420
   123  H    0.014771
   124  H    0.020839
   125  H    0.015637
   126  H    0.030304
   127  H    0.034425
   128  H    0.020464
   129  H    0.015358
   130  H    0.030106
   131  H    0.036858
   132  H    0.024202
   133  H    0.025589
   134  H    0.038306
   135  H    0.030119
   136  H    0.030002
   137  H    0.043077
   138  H    0.035630
   139  H    0.031899
   140  H    0.034243
 Sum of Mulliken charges =  -0.00000

 Dipole moment (field-independent basis, Debye):
    X=             -6.1150    Y=              2.9584    Z=              2.4332  Tot=              7.2156
 Quadrupole moment (field-independent basis, Debye-Ang):
   XX=           -403.4728   YY=           -426.3407   ZZ=           -403.7936
   XY=             39.3294   XZ=             21.5209   YZ=             -8.0343

 Normal termination of Gaussian 16 at Thu Apr 28 14:55:39 2022.
