 Gaussian 16, Revision A.03,
 Gaussian 16:  ES64L-G16RevA.03 25-Dec-2016

 --------------------------------
 #p wB97XD/Def2SVP td=(nstates=5)
 --------------------------------

 -----------------------------------------------------
 step_1601_chromophore_24 TDDFT with wB97XD functional
 -----------------------------------------------------
 Symbolic Z-matrix:
 Charge =  0 Multiplicity = 1

                         Standard orientation:
 ---------------------------------------------------------------------
 Center     Atomic      Atomic             Coordinates (Angstroms)
 Number     Number       Type             X           Y           Z
 ---------------------------------------------------------------------
      1         12           0        4.928264    1.228024   -0.276018
      2          6           0        4.968949   -2.263613   -0.160694
      3          6           0        1.508827    1.111072   -0.229687
      4          6           0        4.953722    4.548109   -0.226303
      5          6           0        8.430463    1.205008    0.027496
      6          7           0        3.390807   -0.438375   -0.306132
      7          6           0        3.664436   -1.746686   -0.114631
      8          6           0        2.464392   -2.532150    0.182331
      9          6           0        1.311304   -1.480916   -0.034186
     10          6           0        2.132644   -0.176653   -0.229361
     11          6           0        0.310903   -1.923867   -1.154099
     12          6           0        2.468913   -3.102082    1.622083
     13          6           0        1.145713   -3.760791    2.167541
     14          6           0        0.240244   -4.441468    1.112894
     15          8           0        0.584906   -5.217897    0.236731
     16          8           0       -1.077953   -4.105525    1.307127
     17          7           0        3.453266    2.600171   -0.329000
     18          6           0        2.086731    2.366157   -0.380350
     19          6           0        1.436335    3.623247   -0.398536
     20          6           0        2.343075    4.664253   -0.306748
     21          6           0        3.665379    3.973189   -0.314742
     22          6           0       -0.015781    3.732408   -0.348810
     23          6           0        2.116973    6.195272   -0.162983
     24          8           0        3.060088    7.029196   -0.076383
     25          6           0        0.686706    6.827303   -0.222731
     26          7           0        6.526301    2.679509   -0.214778
     27          6           0        6.233634    3.994817   -0.173378
     28          6           0        7.437453    4.914869    0.025988
     29          6           0        8.608413    3.785143    0.057939
     30          6           0        7.806843    2.501454    0.007551
     31          6           0        7.677196    6.089653   -1.055342
     32          6           0        9.596468    3.966269    1.270986
     33          6           0        9.328484    3.100380    2.521147
     34          7           0        6.444508   -0.225151   -0.216538
     35          6           0        7.779030   -0.089889   -0.061030
     36          6           0        8.381456   -1.352755   -0.140494
     37          6           0        7.337036   -2.244849   -0.262325
     38          6           0        6.166590   -1.480828   -0.214772
     39          6           0        9.836636   -1.657449   -0.088157
     40          6           0        6.979132   -3.635759   -0.337885
     41          8           0        7.742510   -4.585420   -0.421117
     42          6           0        5.392345   -3.713262   -0.196329
     43          6           0        4.857468   -4.571467   -1.190696
     44          8           0        4.933850   -4.384939   -2.408864
     45          8           0        4.135731   -5.563651   -0.618937
     46          6           0        3.339470   -6.429580   -1.525060
     47          6           0       -1.975677   -4.392003    0.171605
     48          6           0       -3.098988   -3.511082    0.171896
     49          6           0       -3.903732   -3.168123   -0.916855
     50          6           0       -3.779628   -3.751578   -2.255143
     51          6           0       -5.123827   -2.163114   -0.741932
     52          6           0       -5.976332   -2.368797    0.618212
     53          6           0       -5.961572   -1.062447    1.457322
     54          6           0       -7.391104   -0.787797    2.052165
     55          6           0       -7.095642   -0.330486    3.517593
     56          6           0       -8.082497    0.308819    1.181462
     57          6           0       -9.422955   -0.211352    0.624153
     58          6           0      -10.628275    0.005254    1.581749
     59          6           0      -11.796401    0.862507    1.196280
     60          6           0      -12.471024    1.250084    2.472157
     61          6           0      -12.743582    0.220505    0.161669
     62          6           0      -13.222852    1.282340   -0.858563
     63          6           0      -14.597334    1.038207   -1.383525
     64          6           0      -15.374126    2.389334   -1.666289
     65          6           0      -16.810393    2.448021   -1.150437
     66          6           0      -15.271842    2.647498   -3.193809
     67          1           0        0.429264    1.068226   -0.071975
     68          1           0        4.917055    5.640020   -0.204522
     69          1           0        9.513089    1.198966    0.175062
     70          1           0        2.445206   -3.315023   -0.575565
     71          1           0        0.696068   -1.360671    0.857231
     72          1           0       -0.609753   -1.671677   -0.627652
     73          1           0        0.328743   -2.975297   -1.437904
     74          1           0        0.380583   -1.310553   -2.053054
     75          1           0        2.930763   -2.439217    2.353598
     76          1           0        3.065345   -4.014235    1.583212
     77          1           0        0.643071   -3.005263    2.770432
     78          1           0        1.501754   -4.458984    2.924106
     79          1           0       -0.244521    4.208073    0.605126
     80          1           0       -0.580752    2.807231   -0.465151
     81          1           0       -0.452194    4.479812   -1.011723
     82          1           0        0.290146    6.584801   -1.208193
     83          1           0        0.795223    7.891661   -0.013314
     84          1           0       -0.020679    6.450743    0.516908
     85          1           0        7.259515    5.292572    1.032713
     86          1           0        9.209601    3.870796   -0.847502
     87          1           0        8.681825    6.136000   -1.476634
     88          1           0        7.515108    7.094334   -0.665367
     89          1           0        7.006813    5.966595   -1.906044
     90          1           0        9.504364    5.032085    1.480723
     91          1           0       10.566869    3.679468    0.868395
     92          1           0        8.383499    2.559306    2.577550
     93          1           0        9.435967    3.682138    3.436514
     94          1           0       10.153302    2.402076    2.664591
     95          1           0        9.913986   -2.245117    0.826270
     96          1           0       10.478595   -0.792116   -0.253725
     97          1           0       10.051564   -2.212773   -1.001134
     98          1           0        5.186576   -4.154207    0.778801
     99          1           0        3.916098   -7.073582   -2.188599
    100          1           0        2.619794   -5.822583   -2.075182
    101          1           0        2.776431   -6.996210   -0.782935
    102          1           0       -2.228072   -5.445602    0.288532
    103          1           0       -1.387196   -4.331736   -0.744278
    104          1           0       -3.230302   -3.097771    1.171113
    105          1           0       -4.670607   -4.318173   -2.523576
    106          1           0       -2.881567   -4.363323   -2.336926
    107          1           0       -3.681739   -2.908928   -2.939073
    108          1           0       -5.742455   -2.144002   -1.639730
    109          1           0       -4.658464   -1.177222   -0.769181
    110          1           0       -5.587961   -3.184472    1.229193
    111          1           0       -7.028666   -2.579413    0.430352
    112          1           0       -5.470018   -0.207993    0.993043
    113          1           0       -5.168422   -1.238796    2.183809
    114          1           0       -7.970847   -1.695873    2.222089
    115          1           0       -7.170991   -1.202911    4.167768
    116          1           0       -7.729158    0.475775    3.885902
    117          1           0       -6.079305    0.001922    3.732419
    118          1           0       -7.545035    0.541073    0.262055
    119          1           0       -8.270780    1.299112    1.598930
    120          1           0       -9.368956   -1.255792    0.318331
    121          1           0       -9.716231    0.369859   -0.249791
    122          1           0      -10.222010    0.335453    2.537276
    123          1           0      -11.081687   -0.964848    1.786074
    124          1           0      -11.377341    1.757190    0.733814
    125          1           0      -13.556836    1.255613    2.382284
    126          1           0      -12.256813    2.279662    2.756728
    127          1           0      -12.260166    0.580845    3.306654
    128          1           0      -13.518815   -0.335110    0.689378
    129          1           0      -12.116326   -0.560132   -0.269831
    130          1           0      -12.479287    1.240723   -1.654107
    131          1           0      -13.125501    2.284276   -0.440348
    132          1           0      -15.175963    0.320697   -0.802615
    133          1           0      -14.332055    0.479907   -2.281112
    134          1           0      -14.974728    3.282702   -1.187950
    135          1           0      -17.530405    2.515589   -1.965578
    136          1           0      -16.774414    3.426420   -0.670614
    137          1           0      -17.058030    1.630177   -0.472425
    138          1           0      -14.408876    2.242750   -3.721316
    139          1           0      -15.284036    3.720592   -3.383674
    140          1           0      -16.143444    2.148910   -3.617810
 ---------------------------------------------------------------------

 SCF Done:  E(RwB97XD) =  -3007.86332755     A.U. after   19 cycles

 Excitation energies and oscillator strengths:

 Excited State   1:      Singlet-A      1.7112 eV  724.56 nm  f=0.3673  <S**2>=0.000
     245 -> 248       -0.19152
     246 -> 247        0.67972
     245 <- 248       -0.11377
 This state for optimization and/or second-order correction.
 Total Energy, E(TD-HF/TD-DFT) =  -3007.80044377
 Copying the excited state density for this state as the 1-particle RhoCI density.

 Excited State   2:      Singlet-A      2.2171 eV  559.21 nm  f=0.1012  <S**2>=0.000
     245 -> 247        0.62739
     246 -> 248        0.30650

 Excited State   3:      Singlet-A      3.5103 eV  353.20 nm  f=0.6139  <S**2>=0.000
     240 -> 247       -0.11241
     241 -> 247       -0.22606
     245 -> 247       -0.27295
     246 -> 248        0.59641
     245 <- 247        0.10845

 Excited State   4:      Singlet-A      3.5815 eV  346.18 nm  f=0.0086  <S**2>=0.000
     241 -> 247       -0.18252
     242 -> 247       -0.11098
     242 -> 249       -0.11916
     242 -> 250       -0.16843
     243 -> 247        0.60037
     243 -> 249        0.13141

 Excited State   5:      Singlet-A      3.6375 eV  340.85 nm  f=0.0330  <S**2>=0.000
     241 -> 247       -0.16260
     242 -> 247        0.56034
     242 -> 249        0.19067
     242 -> 250        0.20772
     243 -> 247        0.14853

 The electronic state is 1-A.
 Alpha  occ. eigenvalues --  -46.95009 -19.30718 -19.29586 -19.26062 -19.24878
 Alpha  occ. eigenvalues --  -19.23090 -19.23043 -14.46482 -14.46323 -14.44337
 Alpha  occ. eigenvalues --  -14.42947 -10.44659 -10.41510 -10.40893 -10.38061
 Alpha  occ. eigenvalues --  -10.35834 -10.35054 -10.34890 -10.34541 -10.34503
 Alpha  occ. eigenvalues --  -10.34175 -10.34098 -10.34023 -10.32638 -10.32500
 Alpha  occ. eigenvalues --  -10.32491 -10.32424 -10.32312 -10.32078 -10.31960
 Alpha  occ. eigenvalues --  -10.31845 -10.31623 -10.31537 -10.31522 -10.31263
 Alpha  occ. eigenvalues --  -10.31233 -10.31142 -10.31073 -10.31011 -10.30942
 Alpha  occ. eigenvalues --  -10.30882 -10.30852 -10.30447 -10.30333 -10.30259
 Alpha  occ. eigenvalues --  -10.30257 -10.30181 -10.30140 -10.29892 -10.29734
 Alpha  occ. eigenvalues --  -10.29672 -10.29433 -10.29251 -10.29010 -10.28876
 Alpha  occ. eigenvalues --  -10.28810 -10.28680 -10.28553 -10.28505 -10.28416
 Alpha  occ. eigenvalues --  -10.28393 -10.28230 -10.28195 -10.27945 -10.27751
 Alpha  occ. eigenvalues --  -10.27332  -3.20975  -1.94591  -1.94103  -1.93941
 Alpha  occ. eigenvalues --   -1.19322  -1.17538  -1.11166  -1.10892  -1.10797
 Alpha  occ. eigenvalues --   -1.08177  -1.08043  -1.07407  -1.06757  -1.04819
 Alpha  occ. eigenvalues --   -0.94404  -0.92581  -0.92321  -0.91553  -0.91103
 Alpha  occ. eigenvalues --   -0.90830  -0.89834  -0.89751  -0.89582  -0.88909
 Alpha  occ. eigenvalues --   -0.88531  -0.87491  -0.86294  -0.85708  -0.85251
 Alpha  occ. eigenvalues --   -0.84712  -0.84089  -0.83363  -0.82770  -0.82423
 Alpha  occ. eigenvalues --   -0.82335  -0.80531  -0.80085  -0.78851  -0.77958
 Alpha  occ. eigenvalues --   -0.77522  -0.77414  -0.77310  -0.76925  -0.76369
 Alpha  occ. eigenvalues --   -0.75406  -0.74682  -0.73771  -0.72268  -0.71850
 Alpha  occ. eigenvalues --   -0.70622  -0.70301  -0.69359  -0.68683  -0.68166
 Alpha  occ. eigenvalues --   -0.67909  -0.67071  -0.66845  -0.66749  -0.66344
 Alpha  occ. eigenvalues --   -0.65996  -0.65570  -0.64228  -0.63349  -0.62997
 Alpha  occ. eigenvalues --   -0.62355  -0.61520  -0.61346  -0.60322  -0.59725
 Alpha  occ. eigenvalues --   -0.59451  -0.59076  -0.58199  -0.58118  -0.57427
 Alpha  occ. eigenvalues --   -0.57274  -0.56928  -0.56786  -0.56279  -0.55950
 Alpha  occ. eigenvalues --   -0.55816  -0.55629  -0.55114  -0.54938  -0.54857
 Alpha  occ. eigenvalues --   -0.54601  -0.54506  -0.54186  -0.53976  -0.53889
 Alpha  occ. eigenvalues --   -0.53606  -0.53427  -0.53208  -0.52946  -0.52701
 Alpha  occ. eigenvalues --   -0.52369  -0.52292  -0.51915  -0.51824  -0.51706
 Alpha  occ. eigenvalues --   -0.51399  -0.51081  -0.51002  -0.50857  -0.50655
 Alpha  occ. eigenvalues --   -0.50475  -0.50386  -0.50234  -0.49871  -0.49724
 Alpha  occ. eigenvalues --   -0.49583  -0.49344  -0.48979  -0.48877  -0.48663
 Alpha  occ. eigenvalues --   -0.48493  -0.48174  -0.47956  -0.47800  -0.47618
 Alpha  occ. eigenvalues --   -0.47459  -0.47356  -0.47242  -0.46918  -0.46777
 Alpha  occ. eigenvalues --   -0.46561  -0.46470  -0.46324  -0.46298  -0.45932
 Alpha  occ. eigenvalues --   -0.45699  -0.45565  -0.45195  -0.45153  -0.44919
 Alpha  occ. eigenvalues --   -0.44845  -0.44747  -0.44405  -0.44387  -0.44316
 Alpha  occ. eigenvalues --   -0.44076  -0.43937  -0.43785  -0.43462  -0.43188
 Alpha  occ. eigenvalues --   -0.43092  -0.43072  -0.42768  -0.42666  -0.42545
 Alpha  occ. eigenvalues --   -0.42133  -0.41668  -0.41659  -0.40896  -0.40726
 Alpha  occ. eigenvalues --   -0.40350  -0.40046  -0.39960  -0.39404  -0.39215
 Alpha  occ. eigenvalues --   -0.39113  -0.38738  -0.38380  -0.38154  -0.37816
 Alpha  occ. eigenvalues --   -0.37776  -0.37754  -0.37221  -0.36535  -0.36231
 Alpha  occ. eigenvalues --   -0.36033  -0.35552  -0.34637  -0.33691  -0.33393
 Alpha  occ. eigenvalues --   -0.32450  -0.31959  -0.31606  -0.31501  -0.25625
 Alpha  occ. eigenvalues --   -0.22693
 Alpha virt. eigenvalues --   -0.06496   0.00213   0.02351   0.05055   0.05497
 Alpha virt. eigenvalues --    0.06493   0.06818   0.07726   0.08257   0.09502
 Alpha virt. eigenvalues --    0.10180   0.11460   0.11823   0.12373   0.12517

 Mulliken charges:
               1
     1  Mg   0.969865
     2  C   -0.017889
     3  C   -0.117619
     4  C   -0.070566
     5  C   -0.072424
     6  N   -0.272406
     7  C   -0.046188
     8  C   -0.033875
     9  C   -0.145769
    10  C    0.052611
    11  C    0.010260
    12  C   -0.007316
    13  C   -0.007506
    14  C    0.228121
    15  O   -0.260817
    16  O   -0.377945
    17  N   -0.522516
    18  C    0.220514
    19  C   -0.153417
    20  C   -0.050023
    21  C    0.136342
    22  C    0.068711
    23  C    0.080121
    24  O   -0.258386
    25  C   -0.030601
    26  N   -0.309852
    27  C    0.041623
    28  C   -0.082487
    29  C   -0.066921
    30  C    0.013431
    31  C    0.005634
    32  C   -0.021793
    33  C   -0.053515
    34  N   -0.368717
    35  C    0.106772
    36  C   -0.229837
    37  C   -0.010452
    38  C    0.097246
    39  C    0.103889
    40  C    0.106825
    41  O   -0.204226
    42  C   -0.041703
    43  C    0.244195
    44  O   -0.269017
    45  O   -0.365375
    46  C    0.145202
    47  C    0.252714
    48  C   -0.146915
    49  C   -0.212243
    50  C    0.044462
    51  C    0.029097
    52  C   -0.024630
    53  C   -0.021911
    54  C   -0.153973
    55  C   -0.018548
    56  C    0.053481
    57  C   -0.044544
    58  C   -0.022257
    59  C   -0.196955
    60  C    0.021542
    61  C    0.032777
    62  C   -0.031202
    63  C    0.021548
    64  C   -0.220533
    65  C    0.011132
    66  C   -0.017381
    67  H   -0.010607
    68  H    0.015336
    69  H   -0.009454
    70  H    0.048524
    71  H    0.037057
    72  H    0.033690
    73  H    0.060491
    74  H    0.043241
    75  H    0.043872
    76  H    0.048139
    77  H    0.047589
    78  H    0.064076
    79  H    0.043150
    80  H    0.046225
    81  H    0.030781
    82  H    0.066834
    83  H    0.063126
    84  H    0.047141
    85  H    0.050037
    86  H    0.043574
    87  H    0.036592
    88  H    0.045723
    89  H    0.047211
    90  H    0.040402
    91  H    0.035937
    92  H    0.058233
    93  H    0.027656
    94  H    0.028610
    95  H    0.069327
    96  H    0.022406
    97  H    0.053325
    98  H    0.068560
    99  H    0.066686
   100  H    0.053487
   101  H    0.058387
   102  H    0.052303
   103  H    0.038115
   104  H    0.033203
   105  H    0.059406
   106  H    0.028029
   107  H    0.043879
   108  H    0.019227
   109  H    0.039938
   110  H    0.040715
   111  H    0.029703
   112  H    0.017297
   113  H    0.008039
   114  H    0.038600
   115  H    0.023226
   116  H    0.025201
   117  H    0.021091
   118  H    0.016073
   119  H    0.021776
   120  H    0.020596
   121  H    0.006135
   122  H    0.010697
   123  H    0.003662
   124  H    0.006087
   125  H    0.009194
   126  H    0.025448
   127  H    0.028400
   128  H    0.011777
   129  H    0.005386
   130  H    0.021520
   131  H    0.024580
   132  H    0.015639
   133  H    0.016411
   134  H    0.026735
   135  H    0.024036
   136  H    0.024477
   137  H    0.037888
   138  H    0.029162
   139  H    0.026849
   140  H    0.026263
 Sum of Mulliken charges =  -0.00000

 Dipole moment (field-independent basis, Debye):
    X=             -6.6467    Y=              3.3557    Z=              2.4121  Tot=              7.8267
 Quadrupole moment (field-independent basis, Debye-Ang):
   XX=           -407.9471   YY=           -424.3082   ZZ=           -403.4091
   XY=             39.4540   XZ=             21.6648   YZ=             -8.2407

 Normal termination of Gaussian 16 at Thu Apr 28 15:20:32 2022.
