 Gaussian 16, Revision A.03,
 Gaussian 16:  ES64L-G16RevA.03 25-Dec-2016

 --------------------
 #p ZINDO=(nstates=5)
 --------------------

 ------------------------------
 step_1601_chromophore_24 ZINDO
 ------------------------------
 Symbolic Z-matrix:
 Charge =  0 Multiplicity = 1

                         Standard orientation:
 ---------------------------------------------------------------------
 Center     Atomic      Atomic             Coordinates (Angstroms)
 Number     Number       Type             X           Y           Z
 ---------------------------------------------------------------------
      1         12           0        4.928264    1.228024   -0.276018
      2          6           0        4.968949   -2.263613   -0.160694
      3          6           0        1.508827    1.111072   -0.229687
      4          6           0        4.953722    4.548109   -0.226303
      5          6           0        8.430463    1.205008    0.027496
      6          7           0        3.390807   -0.438375   -0.306132
      7          6           0        3.664436   -1.746686   -0.114631
      8          6           0        2.464392   -2.532150    0.182331
      9          6           0        1.311304   -1.480916   -0.034186
     10          6           0        2.132644   -0.176653   -0.229361
     11          6           0        0.310903   -1.923867   -1.154099
     12          6           0        2.468913   -3.102082    1.622083
     13          6           0        1.145713   -3.760791    2.167541
     14          6           0        0.240244   -4.441468    1.112894
     15          8           0        0.584906   -5.217897    0.236731
     16          8           0       -1.077953   -4.105525    1.307127
     17          7           0        3.453266    2.600171   -0.329000
     18          6           0        2.086731    2.366157   -0.380350
     19          6           0        1.436335    3.623247   -0.398536
     20          6           0        2.343075    4.664253   -0.306748
     21          6           0        3.665379    3.973189   -0.314742
     22          6           0       -0.015781    3.732408   -0.348810
     23          6           0        2.116973    6.195272   -0.162983
     24          8           0        3.060088    7.029196   -0.076383
     25          6           0        0.686706    6.827303   -0.222731
     26          7           0        6.526301    2.679509   -0.214778
     27          6           0        6.233634    3.994817   -0.173378
     28          6           0        7.437453    4.914869    0.025988
     29          6           0        8.608413    3.785143    0.057939
     30          6           0        7.806843    2.501454    0.007551
     31          6           0        7.677196    6.089653   -1.055342
     32          6           0        9.596468    3.966269    1.270986
     33          6           0        9.328484    3.100380    2.521147
     34          7           0        6.444508   -0.225151   -0.216538
     35          6           0        7.779030   -0.089889   -0.061030
     36          6           0        8.381456   -1.352755   -0.140494
     37          6           0        7.337036   -2.244849   -0.262325
     38          6           0        6.166590   -1.480828   -0.214772
     39          6           0        9.836636   -1.657449   -0.088157
     40          6           0        6.979132   -3.635759   -0.337885
     41          8           0        7.742510   -4.585420   -0.421117
     42          6           0        5.392345   -3.713262   -0.196329
     43          6           0        4.857468   -4.571467   -1.190696
     44          8           0        4.933850   -4.384939   -2.408864
     45          8           0        4.135731   -5.563651   -0.618937
     46          6           0        3.339470   -6.429580   -1.525060
     47          6           0       -1.975677   -4.392003    0.171605
     48          6           0       -3.098988   -3.511082    0.171896
     49          6           0       -3.903732   -3.168123   -0.916855
     50          6           0       -3.779628   -3.751578   -2.255143
     51          6           0       -5.123827   -2.163114   -0.741932
     52          6           0       -5.976332   -2.368797    0.618212
     53          6           0       -5.961572   -1.062447    1.457322
     54          6           0       -7.391104   -0.787797    2.052165
     55          6           0       -7.095642   -0.330486    3.517593
     56          6           0       -8.082497    0.308819    1.181462
     57          6           0       -9.422955   -0.211352    0.624153
     58          6           0      -10.628275    0.005254    1.581749
     59          6           0      -11.796401    0.862507    1.196280
     60          6           0      -12.471024    1.250084    2.472157
     61          6           0      -12.743582    0.220505    0.161669
     62          6           0      -13.222852    1.282340   -0.858563
     63          6           0      -14.597334    1.038207   -1.383525
     64          6           0      -15.374126    2.389334   -1.666289
     65          6           0      -16.810393    2.448021   -1.150437
     66          6           0      -15.271842    2.647498   -3.193809
     67          1           0        0.429264    1.068226   -0.071975
     68          1           0        4.917055    5.640020   -0.204522
     69          1           0        9.513089    1.198966    0.175062
     70          1           0        2.445206   -3.315023   -0.575565
     71          1           0        0.696068   -1.360671    0.857231
     72          1           0       -0.609753   -1.671677   -0.627652
     73          1           0        0.328743   -2.975297   -1.437904
     74          1           0        0.380583   -1.310553   -2.053054
     75          1           0        2.930763   -2.439217    2.353598
     76          1           0        3.065345   -4.014235    1.583212
     77          1           0        0.643071   -3.005263    2.770432
     78          1           0        1.501754   -4.458984    2.924106
     79          1           0       -0.244521    4.208073    0.605126
     80          1           0       -0.580752    2.807231   -0.465151
     81          1           0       -0.452194    4.479812   -1.011723
     82          1           0        0.290146    6.584801   -1.208193
     83          1           0        0.795223    7.891661   -0.013314
     84          1           0       -0.020679    6.450743    0.516908
     85          1           0        7.259515    5.292572    1.032713
     86          1           0        9.209601    3.870796   -0.847502
     87          1           0        8.681825    6.136000   -1.476634
     88          1           0        7.515108    7.094334   -0.665367
     89          1           0        7.006813    5.966595   -1.906044
     90          1           0        9.504364    5.032085    1.480723
     91          1           0       10.566869    3.679468    0.868395
     92          1           0        8.383499    2.559306    2.577550
     93          1           0        9.435967    3.682138    3.436514
     94          1           0       10.153302    2.402076    2.664591
     95          1           0        9.913986   -2.245117    0.826270
     96          1           0       10.478595   -0.792116   -0.253725
     97          1           0       10.051564   -2.212773   -1.001134
     98          1           0        5.186576   -4.154207    0.778801
     99          1           0        3.916098   -7.073582   -2.188599
    100          1           0        2.619794   -5.822583   -2.075182
    101          1           0        2.776431   -6.996210   -0.782935
    102          1           0       -2.228072   -5.445602    0.288532
    103          1           0       -1.387196   -4.331736   -0.744278
    104          1           0       -3.230302   -3.097771    1.171113
    105          1           0       -4.670607   -4.318173   -2.523576
    106          1           0       -2.881567   -4.363323   -2.336926
    107          1           0       -3.681739   -2.908928   -2.939073
    108          1           0       -5.742455   -2.144002   -1.639730
    109          1           0       -4.658464   -1.177222   -0.769181
    110          1           0       -5.587961   -3.184472    1.229193
    111          1           0       -7.028666   -2.579413    0.430352
    112          1           0       -5.470018   -0.207993    0.993043
    113          1           0       -5.168422   -1.238796    2.183809
    114          1           0       -7.970847   -1.695873    2.222089
    115          1           0       -7.170991   -1.202911    4.167768
    116          1           0       -7.729158    0.475775    3.885902
    117          1           0       -6.079305    0.001922    3.732419
    118          1           0       -7.545035    0.541073    0.262055
    119          1           0       -8.270780    1.299112    1.598930
    120          1           0       -9.368956   -1.255792    0.318331
    121          1           0       -9.716231    0.369859   -0.249791
    122          1           0      -10.222010    0.335453    2.537276
    123          1           0      -11.081687   -0.964848    1.786074
    124          1           0      -11.377341    1.757190    0.733814
    125          1           0      -13.556836    1.255613    2.382284
    126          1           0      -12.256813    2.279662    2.756728
    127          1           0      -12.260166    0.580845    3.306654
    128          1           0      -13.518815   -0.335110    0.689378
    129          1           0      -12.116326   -0.560132   -0.269831
    130          1           0      -12.479287    1.240723   -1.654107
    131          1           0      -13.125501    2.284276   -0.440348
    132          1           0      -15.175963    0.320697   -0.802615
    133          1           0      -14.332055    0.479907   -2.281112
    134          1           0      -14.974728    3.282702   -1.187950
    135          1           0      -17.530405    2.515589   -1.965578
    136          1           0      -16.774414    3.426420   -0.670614
    137          1           0      -17.058030    1.630177   -0.472425
    138          1           0      -14.408876    2.242750   -3.721316
    139          1           0      -15.284036    3.720592   -3.383674
    140          1           0      -16.143444    2.148910   -3.617810
 ---------------------------------------------------------------------

 SCF Done:  E(RZINDO/S) =  -474.551618447     A.U. after   19 cycles

 Excitation energies and oscillator strengths:

 Excited State   1:      Singlet-A      1.2971 eV  955.85 nm  f=0.5629  <S**2>=0.000
     175 ->178        -0.19618
     176 ->177         0.66113
 This state for optimization and/or second-order correction.
 Total Energy, E(CIS/TDA) =  -474.503950672
 Copying the excited state density for this state as the 1-particle RhoCI density.

 Excited State   2:      Singlet-A      1.9288 eV  642.81 nm  f=0.0258  <S**2>=0.000
     175 ->177         0.52625
     176 ->178         0.44634

 Excited State   3:      Singlet-A      2.9677 eV  417.78 nm  f=0.0463  <S**2>=0.000
     167 ->177         0.15930
     167 ->178        -0.10104
     167 ->179        -0.27491
     167 ->181         0.15482
     167 ->186        -0.11762
     168 ->177         0.22273
     168 ->178        -0.13267
     168 ->179        -0.35976
     168 ->181         0.19095
     168 ->186        -0.15686
     176 ->178         0.11938
     176 ->179         0.16904

 Excited State   4:      Singlet-A      2.9948 eV  414.00 nm  f=0.6142  <S**2>=0.000
     167 ->179         0.10240
     168 ->179         0.12326
     175 ->177        -0.30318
     176 ->178         0.40124
     176 ->179         0.39160

 Excited State   5:      Singlet-A      3.0251 eV  409.85 nm  f=0.0093  <S**2>=0.000
     171 ->177        -0.30701
     171 ->179        -0.25638
     171 ->181        -0.37789
     171 ->183        -0.10951
     171 ->186        -0.22884
     171 ->189         0.13827
     173 ->177         0.12258

 The electronic state is 1-A.
 Alpha  occ. eigenvalues --   -1.88220  -1.83315  -1.81544  -1.74763  -1.72882
 Alpha  occ. eigenvalues --   -1.72646  -1.66942  -1.60430  -1.58264  -1.55975
 Alpha  occ. eigenvalues --   -1.55712  -1.52353  -1.48475  -1.47412  -1.46250
 Alpha  occ. eigenvalues --   -1.43488  -1.43049  -1.41648  -1.39790  -1.38188
 Alpha  occ. eigenvalues --   -1.35884  -1.34649  -1.34251  -1.33214  -1.29509
 Alpha  occ. eigenvalues --   -1.27184  -1.24949  -1.23378  -1.21125  -1.19442
 Alpha  occ. eigenvalues --   -1.18068  -1.16138  -1.15820  -1.14467  -1.12793
 Alpha  occ. eigenvalues --   -1.12318  -1.10622  -1.10176  -1.05525  -1.03914
 Alpha  occ. eigenvalues --   -1.02838  -1.01456  -0.98743  -0.97687  -0.97506
 Alpha  occ. eigenvalues --   -0.96356  -0.96078  -0.94316  -0.93122  -0.92584
 Alpha  occ. eigenvalues --   -0.91532  -0.90204  -0.89883  -0.88077  -0.87160
 Alpha  occ. eigenvalues --   -0.86277  -0.85484  -0.83253  -0.82379  -0.80447
 Alpha  occ. eigenvalues --   -0.79546  -0.78249  -0.77424  -0.76207  -0.75738
 Alpha  occ. eigenvalues --   -0.75083  -0.74848  -0.74552  -0.74362  -0.73439
 Alpha  occ. eigenvalues --   -0.73160  -0.72446  -0.71971  -0.71635  -0.71467
 Alpha  occ. eigenvalues --   -0.70541  -0.69733  -0.69166  -0.68111  -0.67755
 Alpha  occ. eigenvalues --   -0.67638  -0.66437  -0.66303  -0.66130  -0.65926
 Alpha  occ. eigenvalues --   -0.65107  -0.64870  -0.64554  -0.64361  -0.63974
 Alpha  occ. eigenvalues --   -0.63496  -0.63222  -0.63038  -0.62064  -0.61961
 Alpha  occ. eigenvalues --   -0.61675  -0.61117  -0.60891  -0.60585  -0.60154
 Alpha  occ. eigenvalues --   -0.59701  -0.59148  -0.59104  -0.58960  -0.58875
 Alpha  occ. eigenvalues --   -0.58478  -0.58205  -0.58173  -0.57122  -0.56598
 Alpha  occ. eigenvalues --   -0.55978  -0.55176  -0.55084  -0.54790  -0.54450
 Alpha  occ. eigenvalues --   -0.54239  -0.54137  -0.53246  -0.53050  -0.52970
 Alpha  occ. eigenvalues --   -0.52851  -0.52540  -0.52271  -0.51608  -0.51255
 Alpha  occ. eigenvalues --   -0.51093  -0.50922  -0.50540  -0.50427  -0.50174
 Alpha  occ. eigenvalues --   -0.50154  -0.49838  -0.49538  -0.49227  -0.49007
 Alpha  occ. eigenvalues --   -0.48844  -0.48628  -0.48454  -0.48107  -0.48067
 Alpha  occ. eigenvalues --   -0.47965  -0.47793  -0.47231  -0.47069  -0.46944
 Alpha  occ. eigenvalues --   -0.46545  -0.46093  -0.45790  -0.45355  -0.45178
 Alpha  occ. eigenvalues --   -0.45045  -0.44759  -0.44354  -0.44152  -0.43638
 Alpha  occ. eigenvalues --   -0.43485  -0.43099  -0.42698  -0.42336  -0.41920
 Alpha  occ. eigenvalues --   -0.41576  -0.41523  -0.40618  -0.39650  -0.38591
 Alpha  occ. eigenvalues --   -0.37450  -0.36676  -0.36217  -0.34415  -0.34043
 Alpha  occ. eigenvalues --   -0.33876  -0.32207  -0.31837  -0.31587  -0.26305
 Alpha  occ. eigenvalues --   -0.21574
 Alpha virt. eigenvalues --   -0.07989  -0.02122  -0.00627   0.01255   0.01766
 Alpha virt. eigenvalues --    0.03079   0.03367   0.03555   0.03624   0.04697
 Alpha virt. eigenvalues --    0.06128   0.06467   0.06696   0.07863   0.08348

 Mulliken charges:
               1
     1  Mg   0.424762
     2  C   -0.045544
     3  C   -0.089157
     4  C   -0.075151
     5  C   -0.086148
     6  N   -0.253288
     7  C    0.106483
     8  C    0.007960
     9  C   -0.006901
    10  C    0.153849
    11  C   -0.055827
    12  C   -0.026534
    13  C    0.001855
    14  C    0.475957
    15  O   -0.516198
    16  O   -0.282299
    17  N   -0.339666
    18  C    0.117512
    19  C    0.043958
    20  C   -0.042539
    21  C    0.135558
    22  C   -0.047008
    23  C    0.319932
    24  O   -0.522614
    25  C   -0.028842
    26  N   -0.250561
    27  C    0.151490
    28  C   -0.007592
    29  C   -0.005851
    30  C    0.116004
    31  C   -0.050928
    32  C   -0.028459
    33  C   -0.057030
    34  N   -0.299220
    35  C    0.072242
    36  C    0.032458
    37  C   -0.065626
    38  C    0.111612
    39  C   -0.047619
    40  C    0.329117
    41  O   -0.524021
    42  C    0.063313
    43  C    0.501894
    44  O   -0.537036
    45  O   -0.270478
    46  C    0.075456
    47  C    0.114605
    48  C   -0.088470
    49  C   -0.018848
    50  C   -0.034133
    51  C   -0.033467
    52  C   -0.038277
    53  C   -0.041058
    54  C   -0.002096
    55  C   -0.065086
    56  C   -0.028471
    57  C   -0.043486
    58  C   -0.036257
    59  C   -0.002200
    60  C   -0.052316
    61  C   -0.036774
    62  C   -0.026649
    63  C   -0.032883
    64  C   -0.016295
    65  C   -0.061174
    66  C   -0.059540
    67  H    0.023026
    68  H    0.040120
    69  H    0.026846
    70  H    0.050381
    71  H    0.025366
    72  H    0.015090
    73  H    0.040742
    74  H    0.024380
    75  H    0.033300
    76  H    0.019460
    77  H    0.028888
    78  H    0.043058
    79  H    0.028022
    80  H    0.027223
    81  H    0.025375
    82  H    0.040914
    83  H    0.042108
    84  H    0.032223
    85  H    0.041145
    86  H    0.032601
    87  H    0.021358
    88  H    0.025169
    89  H    0.025499
    90  H    0.025664
    91  H    0.022938
    92  H    0.032249
    93  H    0.010662
    94  H    0.016169
    95  H    0.046619
    96  H    0.024531
    97  H    0.032893
    98  H    0.046033
    99  H    0.055135
   100  H    0.044994
   101  H    0.030804
   102  H    0.049215
   103  H    0.049639
   104  H    0.033263
   105  H    0.035026
   106  H    0.022742
   107  H    0.026054
   108  H    0.022751
   109  H    0.025028
   110  H    0.028739
   111  H    0.021338
   112  H    0.026226
   113  H    0.008278
   114  H    0.039262
   115  H    0.011829
   116  H    0.015666
   117  H    0.015195
   118  H    0.011127
   119  H    0.028231
   120  H    0.020790
   121  H    0.009522
   122  H    0.011343
   123  H    0.007263
   124  H    0.013751
   125  H    0.006420
   126  H    0.013778
   127  H    0.020654
   128  H    0.022774
   129  H    0.014004
   130  H    0.015732
   131  H    0.019795
   132  H    0.022009
   133  H    0.016781
   134  H    0.023962
   135  H    0.020700
   136  H    0.017837
   137  H    0.026003
   138  H    0.018609
   139  H    0.013976
   140  H    0.017304
 Sum of Mulliken charges =  -0.00000

 Dipole moment (field-independent basis, Debye):
    X=             -9.3403    Y=              4.6867    Z=              4.5931  Tot=             11.4150
 N-N= 4.340293087392D+03 E-N= 0.000000000000D+00  KE=-9.354895061031D+03
 Leave Link  601 at Thu Apr 28 15:33:40 2022, MaxMem=  6710886400 cpu:               0.8 elap:               0.0
 (Enter /sw/apps/gaussian-16.0/g16/l9999.exe)
 1\1\GINC-BP1-COMPUTE159\SP\RZINDO CIS\STO-3G\C55H74Mg1N4O6\OF15641\28-
 Apr-2022\0\\#p ZINDO=(nstates=5)\\step_1601_chromophore_24 ZINDO\\0,1\
 Mg,0,-0.666,42.674,26.053\C,0,1.988,42.601,28.324\C,0,-2.827,42.383,28
 .69\C,0,-3.151,42.908,23.863\C,0,1.647,43.313,23.484\N,0,-0.421,42.404
 ,28.291\C,0,0.74,42.549,28.965\C,0,0.536,42.685,30.409\C,0,-1.009,42.4
 16,30.558\C,0,-1.447,42.373,29.068\C,0,-1.308,41.182,31.474\C,0,0.936,
 44.085,30.936\C,0,0.55,44.463,32.416\C,0,0.491,43.29,33.424\O,0,1.322,

 Normal termination of Gaussian 16 at Thu Apr 28 15:33:40 2022.
