 Gaussian 16, Revision A.03,
 Gaussian 16:  ES64L-G16RevA.03 25-Dec-2016

 ------------------------------
 #p blyp/Def2SVP td=(nstates=5)
 ------------------------------

 ---------------------------------------------------
 step_1501_chromophore_20 TDDFT with blyp functional
 ---------------------------------------------------
 Symbolic Z-matrix:
 Charge =  0 Multiplicity = 1

                         Standard orientation:
 ---------------------------------------------------------------------
 Center     Atomic      Atomic             Coordinates (Angstroms)
 Number     Number       Type             X           Y           Z
 ---------------------------------------------------------------------
      1         12           0       -4.037483   -1.604533   -0.965541
      2          6           0       -4.232949    2.088518   -1.047462
      3          6           0       -1.336315   -1.238963   -3.019673
      4          6           0       -3.184370   -4.757839   -0.132663
      5          6           0       -6.444215   -1.436740    1.669117
      6          7           0       -2.969714    0.186361   -1.716332
      7          6           0       -3.226934    1.514430   -1.807453
      8          6           0       -2.223661    2.318354   -2.616777
      9          6           0       -1.642496    1.228253   -3.499810
     10          6           0       -1.998547   -0.048948   -2.666271
     11          6           0       -2.063744    1.186883   -4.999797
     12          6           0       -1.155449    3.032780   -1.624415
     13          6           0       -0.748454    4.447996   -1.945202
     14          6           0        0.111920    5.225134   -0.975855
     15          8           0       -0.295412    6.169496   -0.336820
     16          8           0        1.417483    4.837939   -1.024216
     17          7           0       -2.464376   -2.879753   -1.573978
     18          6           0       -1.491294   -2.537176   -2.428675
     19          6           0       -0.698326   -3.790486   -2.614290
     20          6           0       -1.276579   -4.811456   -1.877693
     21          6           0       -2.365734   -4.186062   -1.183919
     22          6           0        0.536978   -3.877217   -3.513295
     23          6           0       -0.693057   -6.203899   -1.687930
     24          8           0        0.250932   -6.458176   -2.418052
     25          6           0       -1.252095   -7.318704   -0.760214
     26          7           0       -4.727787   -2.866350    0.614298
     27          6           0       -4.331561   -4.178160    0.587627
     28          6           0       -5.055966   -4.935007    1.742808
     29          6           0       -6.123049   -3.891833    2.274724
     30          6           0       -5.875055   -2.645550    1.440332
     31          6           0       -5.676859   -6.253562    1.322589
     32          6           0       -6.203374   -3.623349    3.855337
     33          6           0       -7.595699   -3.805871    4.513637
     34          7           0       -5.146662    0.018421    0.100622
     35          6           0       -6.055216   -0.153548    1.117868
     36          6           0       -6.624382    1.119957    1.443393
     37          6           0       -6.017002    2.011263    0.540854
     38          6           0       -5.017749    1.288961   -0.130956
     39          6           0       -7.594597    1.464696    2.527924
     40          6           0       -5.923209    3.413944    0.113709
     41          8           0       -6.588349    4.375075    0.461008
     42          6           0       -4.827386    3.446395   -0.955374
     43          6           0       -3.990719    4.619197   -0.761072
     44          8           0       -3.230399    4.765031    0.195453
     45          8           0       -4.257169    5.592958   -1.712689
     46          6           0       -3.810101    6.921541   -1.349900
     47          6           0        2.300121    5.346450    0.089053
     48          6           0        3.028267    4.114925    0.673177
     49          6           0        4.238311    4.160846    1.306036
     50          6           0        4.931445    5.381251    1.983794
     51          6           0        4.670341    2.753351    1.751835
     52          6           0        4.022043    2.240794    3.105592
     53          6           0        5.094557    1.772483    4.176341
     54          6           0        5.404868    0.259929    4.060820
     55          6           0        4.497716   -0.602802    4.997549
     56          6           0        6.845305    0.026834    4.366329
     57          6           0        7.663685    0.234288    3.050796
     58          6           0        7.857307   -1.052906    2.202335
     59          6           0        7.763568   -0.886620    0.676627
     60          6           0        6.400481   -1.012769    0.182010
     61          6           0        8.775080   -1.798458   -0.026481
     62          6           0        9.969946   -1.112451   -0.588443
     63          6           0       11.011380   -2.183682   -1.125041
     64          6           0       12.061035   -1.557869   -2.075164
     65          6           0       12.408625   -2.406923   -3.334114
     66          6           0       13.319710   -1.473367   -1.238952
     67          1           0       -0.482493   -1.086991   -3.682014
     68          1           0       -3.047883   -5.830056    0.020200
     69          1           0       -7.217666   -1.470129    2.439406
     70          1           0       -2.630269    3.102506   -3.254500
     71          1           0       -0.555784    1.208698   -3.573102
     72          1           0       -1.214642    1.508600   -5.601166
     73          1           0       -2.883931    1.887306   -5.157652
     74          1           0       -2.475655    0.233570   -5.330291
     75          1           0       -0.271668    2.413337   -1.775829
     76          1           0       -1.471843    2.860955   -0.595051
     77          1           0       -1.593246    5.102599   -2.156519
     78          1           0       -0.280246    4.331635   -2.922270
     79          1           0        0.507168   -4.806928   -4.081402
     80          1           0        1.425830   -3.896625   -2.882746
     81          1           0        0.689702   -3.012952   -4.160193
     82          1           0       -1.203852   -7.164877    0.318397
     83          1           0       -0.766826   -8.262575   -1.008172
     84          1           0       -2.283978   -7.583685   -0.992523
     85          1           0       -4.334626   -5.171318    2.524810
     86          1           0       -7.100913   -4.210870    1.914749
     87          1           0       -4.967699   -7.071455    1.448968
     88          1           0       -5.802285   -6.206659    0.240497
     89          1           0       -6.702072   -6.416915    1.654818
     90          1           0       -5.854044   -2.655814    4.215970
     91          1           0       -5.532969   -4.392881    4.238230
     92          1           0       -7.742835   -2.739825    4.685224
     93          1           0       -7.621037   -4.341657    5.462395
     94          1           0       -8.275325   -4.113142    3.718728
     95          1           0       -8.179215    2.356970    2.304963
     96          1           0       -6.885242    1.608764    3.343452
     97          1           0       -8.224184    0.586633    2.671489
     98          1           0       -5.415766    3.560796   -1.866528
     99          1           0       -2.755129    6.964097   -1.621068
    100          1           0       -3.873150    7.185354   -0.294446
    101          1           0       -4.400170    7.603778   -1.961572
    102          1           0        1.781661    5.845417    0.908512
    103          1           0        2.900018    6.166654   -0.305463
    104          1           0        2.576850    3.154914    0.421317
    105          1           0        5.437342    5.077788    2.901181
    106          1           0        4.123553    6.089909    2.164987
    107          1           0        5.607782    5.839761    1.261804
    108          1           0        5.727545    2.921779    1.957356
    109          1           0        4.518161    2.024888    0.954613
    110          1           0        3.412678    1.408945    2.751494
    111          1           0        3.288348    2.926588    3.530113
    112          1           0        4.597459    1.958137    5.128175
    113          1           0        5.997664    2.382243    4.142633
    114          1           0        5.171911   -0.134153    3.071398
    115          1           0        4.197390   -1.467616    4.405644
    116          1           0        3.518884   -0.134813    5.102692
    117          1           0        5.023890   -0.869623    5.913835
    118          1           0        6.978122   -1.001162    4.702727
    119          1           0        7.229747    0.709741    5.124671
    120          1           0        8.616516    0.593535    3.438727
    121          1           0        7.206860    1.009504    2.436081
    122          1           0        7.257211   -1.831731    2.673335
    123          1           0        8.895584   -1.363769    2.316038
    124          1           0        8.086833    0.108544    0.375508
    125          1           0        5.696318   -0.676627    0.942639
    126          1           0        6.118737   -1.950478   -0.297428
    127          1           0        6.450700   -0.309900   -0.649726
    128          1           0        8.210311   -2.129253   -0.898685
    129          1           0        9.050671   -2.724244    0.479117
    130          1           0       10.402507   -0.402198    0.115993
    131          1           0        9.674966   -0.432079   -1.386403
    132          1           0       10.463150   -2.949910   -1.672658
    133          1           0       11.449069   -2.629132   -0.231953
    134          1           0       11.828359   -0.536729   -2.377047
    135          1           0       11.455088   -2.696183   -3.775547
    136          1           0       12.928229   -3.338978   -3.108431
    137          1           0       12.974624   -1.745548   -3.989648
    138          1           0       13.097102   -1.298347   -0.186109
    139          1           0       13.825934   -0.571797   -1.586131
    140          1           0       13.939770   -2.342676   -1.455785
 ---------------------------------------------------------------------

 SCF Done:  E(RB-LYP) =  -3007.35090637     A.U. after   21 cycles

 Excitation energies and oscillator strengths:

 Excited State   1:      Singlet-A      1.7740 eV  698.91 nm  f=0.1927  <S**2>=0.000
     244 -> 247        0.35966
     245 -> 247       -0.22263
     245 -> 248        0.12265
     246 -> 247        0.55792
     246 <- 247       -0.12644
 This state for optimization and/or second-order correction.
 Total Energy, E(TD-HF/TD-DFT) =  -3007.28571401
 Copying the excited state density for this state as the 1-particle RhoCI density.

 Excited State   2:      Singlet-A      1.7932 eV  691.40 nm  f=0.1271  <S**2>=0.000
     244 -> 247        0.49500
     245 -> 247       -0.26889
     246 -> 247       -0.41682

 Excited State   3:      Singlet-A      2.0130 eV  615.93 nm  f=0.0043  <S**2>=0.000
     243 -> 247        0.69551

 Excited State   4:      Singlet-A      2.0444 eV  606.45 nm  f=0.0396  <S**2>=0.000
     242 -> 247        0.47150
     243 -> 247       -0.10703
     244 -> 247       -0.25020
     245 -> 247       -0.40558
     246 -> 248        0.15037

 Excited State   5:      Singlet-A      2.0661 eV  600.09 nm  f=0.0369  <S**2>=0.000
     242 -> 247        0.52522
     244 -> 247        0.21499
     245 -> 247        0.36588
     246 -> 248       -0.15489

 The electronic state is 1-A.
 Alpha  occ. eigenvalues --  -46.28861 -18.81607 -18.81504 -18.76183 -18.76051
 Alpha  occ. eigenvalues --  -18.75939 -18.75249 -14.03891 -14.03578 -14.01627
 Alpha  occ. eigenvalues --  -14.00192 -10.03304 -10.03133 -10.01024  -9.99150
 Alpha  occ. eigenvalues --   -9.97803  -9.97730  -9.96931  -9.96485  -9.96474
 Alpha  occ. eigenvalues --   -9.96297  -9.96214  -9.96205  -9.95131  -9.94430
 Alpha  occ. eigenvalues --   -9.94394  -9.94280  -9.94098  -9.94010  -9.93983
 Alpha  occ. eigenvalues --   -9.93454  -9.93405  -9.93249  -9.93242  -9.93236
 Alpha  occ. eigenvalues --   -9.93121  -9.93097  -9.93066  -9.92929  -9.92869
 Alpha  occ. eigenvalues --   -9.92772  -9.92757  -9.92745  -9.92556  -9.92530
 Alpha  occ. eigenvalues --   -9.92254  -9.92074  -9.91762  -9.91628  -9.91585
 Alpha  occ. eigenvalues --   -9.91543  -9.91432  -9.91291  -9.91265  -9.91008
 Alpha  occ. eigenvalues --   -9.90982  -9.90948  -9.90837  -9.90676  -9.90546
 Alpha  occ. eigenvalues --   -9.90523  -9.90478  -9.90222  -9.90106  -9.90016
 Alpha  occ. eigenvalues --   -9.89827  -2.93248  -1.73640  -1.73129  -1.72977
 Alpha  occ. eigenvalues --   -0.97049  -0.96795  -0.92557  -0.91088  -0.89198
 Alpha  occ. eigenvalues --   -0.88963  -0.87178  -0.86521  -0.86049  -0.84232
 Alpha  occ. eigenvalues --   -0.75622  -0.73859  -0.72908  -0.72758  -0.72164
 Alpha  occ. eigenvalues --   -0.71884  -0.71571  -0.71354  -0.70974  -0.69971
 Alpha  occ. eigenvalues --   -0.69624  -0.69174  -0.67894  -0.67606  -0.67300
 Alpha  occ. eigenvalues --   -0.66303  -0.65818  -0.65258  -0.64838  -0.64520
 Alpha  occ. eigenvalues --   -0.63855  -0.62454  -0.62406  -0.61762  -0.60488
 Alpha  occ. eigenvalues --   -0.60438  -0.59891  -0.59642  -0.59619  -0.58600
 Alpha  occ. eigenvalues --   -0.57828  -0.57198  -0.56449  -0.55302  -0.54131
 Alpha  occ. eigenvalues --   -0.53554  -0.53348  -0.52985  -0.52138  -0.51763
 Alpha  occ. eigenvalues --   -0.51397  -0.51129  -0.51057  -0.50181  -0.49654
 Alpha  occ. eigenvalues --   -0.49416  -0.48907  -0.48344  -0.47995  -0.46670
 Alpha  occ. eigenvalues --   -0.46374  -0.45847  -0.45707  -0.45533  -0.44723
 Alpha  occ. eigenvalues --   -0.44183  -0.43525  -0.42848  -0.42432  -0.42091
 Alpha  occ. eigenvalues --   -0.41853  -0.41555  -0.41290  -0.41103  -0.40823
 Alpha  occ. eigenvalues --   -0.40517  -0.40397  -0.40183  -0.40066  -0.39702
 Alpha  occ. eigenvalues --   -0.39621  -0.39459  -0.39372  -0.39328  -0.39176
 Alpha  occ. eigenvalues --   -0.38916  -0.38765  -0.38613  -0.38563  -0.38249
 Alpha  occ. eigenvalues --   -0.38195  -0.37964  -0.37553  -0.37469  -0.37340
 Alpha  occ. eigenvalues --   -0.37267  -0.36928  -0.36899  -0.36558  -0.36507
 Alpha  occ. eigenvalues --   -0.36234  -0.36111  -0.35963  -0.35740  -0.35304
 Alpha  occ. eigenvalues --   -0.35221  -0.35001  -0.34984  -0.34744  -0.34586
 Alpha  occ. eigenvalues --   -0.34523  -0.34355  -0.34278  -0.33966  -0.33854
 Alpha  occ. eigenvalues --   -0.33722  -0.33563  -0.33394  -0.33217  -0.32903
 Alpha  occ. eigenvalues --   -0.32808  -0.32634  -0.32335  -0.32239  -0.32004
 Alpha  occ. eigenvalues --   -0.31943  -0.31823  -0.31715  -0.31541  -0.31455
 Alpha  occ. eigenvalues --   -0.31097  -0.30930  -0.30805  -0.30673  -0.30466
 Alpha  occ. eigenvalues --   -0.30108  -0.30090  -0.29922  -0.29755  -0.29739
 Alpha  occ. eigenvalues --   -0.29621  -0.29332  -0.29219  -0.29075  -0.28835
 Alpha  occ. eigenvalues --   -0.28684  -0.28542  -0.28461  -0.28018  -0.27871
 Alpha  occ. eigenvalues --   -0.27771  -0.27440  -0.27110  -0.26309  -0.26290
 Alpha  occ. eigenvalues --   -0.25991  -0.25849  -0.25580  -0.25563  -0.24753
 Alpha  occ. eigenvalues --   -0.24506  -0.24285  -0.24168  -0.23927  -0.23744
 Alpha  occ. eigenvalues --   -0.22963  -0.22207  -0.21416  -0.21130  -0.20768
 Alpha  occ. eigenvalues --   -0.19872  -0.19320  -0.19232  -0.18433  -0.17435
 Alpha  occ. eigenvalues --   -0.15944
 Alpha virt. eigenvalues --   -0.11834  -0.06899  -0.05904  -0.04677  -0.04598
 Alpha virt. eigenvalues --   -0.02764  -0.02628  -0.02147  -0.01566  -0.00709
 Alpha virt. eigenvalues --    0.00913   0.01903   0.02340   0.02413   0.02710

 Mulliken charges:
               1
     1  Mg   0.690265
     2  C    0.039260
     3  C   -0.080753
     4  C   -0.018064
     5  C   -0.075050
     6  N   -0.186494
     7  C   -0.115967
     8  C    0.017000
     9  C   -0.028331
    10  C    0.051870
    11  C    0.139364
    12  C    0.122233
    13  C    0.157898
    14  C    0.075343
    15  O   -0.168765
    16  O   -0.282551
    17  N   -0.275943
    18  C    0.119017
    19  C   -0.156080
    20  C    0.062244
    21  C    0.083166
    22  C    0.190190
    23  C   -0.056771
    24  O   -0.163189
    25  C    0.118201
    26  N   -0.285053
    27  C    0.051548
    28  C   -0.025029
    29  C    0.083056
    30  C    0.006390
    31  C    0.127124
    32  C    0.066035
    33  C    0.057800
    34  N   -0.155723
    35  C    0.108884
    36  C   -0.207625
    37  C    0.058931
    38  C   -0.011012
    39  C    0.183769
    40  C   -0.067883
    41  O   -0.124808
    42  C    0.156500
    43  C    0.097145
    44  O   -0.187637
    45  O   -0.278091
    46  C    0.225925
    47  C    0.281291
    48  C   -0.075931
    49  C   -0.166389
    50  C    0.140454
    51  C    0.081542
    52  C    0.065847
    53  C    0.119418
    54  C   -0.100217
    55  C    0.125905
    56  C    0.104457
    57  C    0.056084
    58  C    0.126031
    59  C   -0.054287
    60  C    0.137339
    61  C    0.112579
    62  C    0.032212
    63  C    0.108178
    64  C   -0.088599
    65  C    0.103842
    66  C    0.106157
    67  H   -0.051759
    68  H   -0.091044
    69  H   -0.069674
    70  H   -0.033924
    71  H   -0.029977
    72  H   -0.000784
    73  H   -0.017391
    74  H   -0.005815
    75  H   -0.028332
    76  H    0.006649
    77  H   -0.014282
    78  H   -0.023920
    79  H    0.014517
    80  H   -0.002748
    81  H   -0.027831
    82  H    0.022276
    83  H   -0.012817
    84  H    0.012383
    85  H   -0.009165
    86  H   -0.031417
    87  H   -0.001765
    88  H   -0.026999
    89  H   -0.004455
    90  H   -0.003875
    91  H   -0.026999
    92  H   -0.006231
    93  H    0.008953
    94  H   -0.005419
    95  H    0.016254
    96  H    0.014880
    97  H   -0.008569
    98  H   -0.003280
    99  H    0.004889
   100  H    0.026277
   101  H    0.007235
   102  H    0.014243
   103  H    0.000617
   104  H   -0.022146
   105  H    0.008758
   106  H   -0.003323
   107  H    0.009176
   108  H   -0.022690
   109  H   -0.009479
   110  H   -0.030987
   111  H   -0.026190
   112  H   -0.037170
   113  H   -0.026466
   114  H   -0.031249
   115  H   -0.031858
   116  H   -0.030262
   117  H   -0.001849
   118  H   -0.041819
   119  H   -0.037402
   120  H   -0.042011
   121  H   -0.023149
   122  H   -0.033571
   123  H   -0.047558
   124  H   -0.051666
   125  H   -0.015467
   126  H   -0.016035
   127  H   -0.030999
   128  H   -0.059761
   129  H   -0.032171
   130  H   -0.035698
   131  H   -0.039437
   132  H   -0.042986
   133  H   -0.022810
   134  H   -0.031829
   135  H   -0.018642
   136  H   -0.010213
   137  H   -0.009979
   138  H   -0.016344
   139  H   -0.036026
   140  H   -0.013645
 Sum of Mulliken charges =  -0.00000

 Dipole moment (field-independent basis, Debye):
    X=             -0.0038    Y=             -4.0379    Z=             -0.7664  Tot=              4.1100
 Quadrupole moment (field-independent basis, Debye-Ang):
   XX=           -398.7573   YY=           -417.7524   ZZ=           -391.2046
   XY=             53.1509   XZ=              6.3223   YZ=            -24.0010

 Normal termination of Gaussian 16 at Wed May  4 08:33:06 2022.
