 Gaussian 16, Revision A.03,
 Gaussian 16:  ES64L-G16RevA.03 25-Dec-2016

 -----------------------------------
 #p cam-b3lyp/Def2SVP td=(nstates=5)
 -----------------------------------

 --------------------------------------------------------
 step_1501_chromophore_20 TDDFT with cam-b3lyp functional
 --------------------------------------------------------
 Symbolic Z-matrix:
 Charge =  0 Multiplicity = 1

                         Standard orientation:
 ---------------------------------------------------------------------
 Center     Atomic      Atomic             Coordinates (Angstroms)
 Number     Number       Type             X           Y           Z
 ---------------------------------------------------------------------
      1         12           0       -4.037483   -1.604533   -0.965541
      2          6           0       -4.232949    2.088518   -1.047462
      3          6           0       -1.336315   -1.238963   -3.019673
      4          6           0       -3.184370   -4.757839   -0.132663
      5          6           0       -6.444215   -1.436740    1.669117
      6          7           0       -2.969714    0.186361   -1.716332
      7          6           0       -3.226934    1.514430   -1.807453
      8          6           0       -2.223661    2.318354   -2.616777
      9          6           0       -1.642496    1.228253   -3.499810
     10          6           0       -1.998547   -0.048948   -2.666271
     11          6           0       -2.063744    1.186883   -4.999797
     12          6           0       -1.155449    3.032780   -1.624415
     13          6           0       -0.748454    4.447996   -1.945202
     14          6           0        0.111920    5.225134   -0.975855
     15          8           0       -0.295412    6.169496   -0.336820
     16          8           0        1.417483    4.837939   -1.024216
     17          7           0       -2.464376   -2.879753   -1.573978
     18          6           0       -1.491294   -2.537176   -2.428675
     19          6           0       -0.698326   -3.790486   -2.614290
     20          6           0       -1.276579   -4.811456   -1.877693
     21          6           0       -2.365734   -4.186062   -1.183919
     22          6           0        0.536978   -3.877217   -3.513295
     23          6           0       -0.693057   -6.203899   -1.687930
     24          8           0        0.250932   -6.458176   -2.418052
     25          6           0       -1.252095   -7.318704   -0.760214
     26          7           0       -4.727787   -2.866350    0.614298
     27          6           0       -4.331561   -4.178160    0.587627
     28          6           0       -5.055966   -4.935007    1.742808
     29          6           0       -6.123049   -3.891833    2.274724
     30          6           0       -5.875055   -2.645550    1.440332
     31          6           0       -5.676859   -6.253562    1.322589
     32          6           0       -6.203374   -3.623349    3.855337
     33          6           0       -7.595699   -3.805871    4.513637
     34          7           0       -5.146662    0.018421    0.100622
     35          6           0       -6.055216   -0.153548    1.117868
     36          6           0       -6.624382    1.119957    1.443393
     37          6           0       -6.017002    2.011263    0.540854
     38          6           0       -5.017749    1.288961   -0.130956
     39          6           0       -7.594597    1.464696    2.527924
     40          6           0       -5.923209    3.413944    0.113709
     41          8           0       -6.588349    4.375075    0.461008
     42          6           0       -4.827386    3.446395   -0.955374
     43          6           0       -3.990719    4.619197   -0.761072
     44          8           0       -3.230399    4.765031    0.195453
     45          8           0       -4.257169    5.592958   -1.712689
     46          6           0       -3.810101    6.921541   -1.349900
     47          6           0        2.300121    5.346450    0.089053
     48          6           0        3.028267    4.114925    0.673177
     49          6           0        4.238311    4.160846    1.306036
     50          6           0        4.931445    5.381251    1.983794
     51          6           0        4.670341    2.753351    1.751835
     52          6           0        4.022043    2.240794    3.105592
     53          6           0        5.094557    1.772483    4.176341
     54          6           0        5.404868    0.259929    4.060820
     55          6           0        4.497716   -0.602802    4.997549
     56          6           0        6.845305    0.026834    4.366329
     57          6           0        7.663685    0.234288    3.050796
     58          6           0        7.857307   -1.052906    2.202335
     59          6           0        7.763568   -0.886620    0.676627
     60          6           0        6.400481   -1.012769    0.182010
     61          6           0        8.775080   -1.798458   -0.026481
     62          6           0        9.969946   -1.112451   -0.588443
     63          6           0       11.011380   -2.183682   -1.125041
     64          6           0       12.061035   -1.557869   -2.075164
     65          6           0       12.408625   -2.406923   -3.334114
     66          6           0       13.319710   -1.473367   -1.238952
     67          1           0       -0.482493   -1.086991   -3.682014
     68          1           0       -3.047883   -5.830056    0.020200
     69          1           0       -7.217666   -1.470129    2.439406
     70          1           0       -2.630269    3.102506   -3.254500
     71          1           0       -0.555784    1.208698   -3.573102
     72          1           0       -1.214642    1.508600   -5.601166
     73          1           0       -2.883931    1.887306   -5.157652
     74          1           0       -2.475655    0.233570   -5.330291
     75          1           0       -0.271668    2.413337   -1.775829
     76          1           0       -1.471843    2.860955   -0.595051
     77          1           0       -1.593246    5.102599   -2.156519
     78          1           0       -0.280246    4.331635   -2.922270
     79          1           0        0.507168   -4.806928   -4.081402
     80          1           0        1.425830   -3.896625   -2.882746
     81          1           0        0.689702   -3.012952   -4.160193
     82          1           0       -1.203852   -7.164877    0.318397
     83          1           0       -0.766826   -8.262575   -1.008172
     84          1           0       -2.283978   -7.583685   -0.992523
     85          1           0       -4.334626   -5.171318    2.524810
     86          1           0       -7.100913   -4.210870    1.914749
     87          1           0       -4.967699   -7.071455    1.448968
     88          1           0       -5.802285   -6.206659    0.240497
     89          1           0       -6.702072   -6.416915    1.654818
     90          1           0       -5.854044   -2.655814    4.215970
     91          1           0       -5.532969   -4.392881    4.238230
     92          1           0       -7.742835   -2.739825    4.685224
     93          1           0       -7.621037   -4.341657    5.462395
     94          1           0       -8.275325   -4.113142    3.718728
     95          1           0       -8.179215    2.356970    2.304963
     96          1           0       -6.885242    1.608764    3.343452
     97          1           0       -8.224184    0.586633    2.671489
     98          1           0       -5.415766    3.560796   -1.866528
     99          1           0       -2.755129    6.964097   -1.621068
    100          1           0       -3.873150    7.185354   -0.294446
    101          1           0       -4.400170    7.603778   -1.961572
    102          1           0        1.781661    5.845417    0.908512
    103          1           0        2.900018    6.166654   -0.305463
    104          1           0        2.576850    3.154914    0.421317
    105          1           0        5.437342    5.077788    2.901181
    106          1           0        4.123553    6.089909    2.164987
    107          1           0        5.607782    5.839761    1.261804
    108          1           0        5.727545    2.921779    1.957356
    109          1           0        4.518161    2.024888    0.954613
    110          1           0        3.412678    1.408945    2.751494
    111          1           0        3.288348    2.926588    3.530113
    112          1           0        4.597459    1.958137    5.128175
    113          1           0        5.997664    2.382243    4.142633
    114          1           0        5.171911   -0.134153    3.071398
    115          1           0        4.197390   -1.467616    4.405644
    116          1           0        3.518884   -0.134813    5.102692
    117          1           0        5.023890   -0.869623    5.913835
    118          1           0        6.978122   -1.001162    4.702727
    119          1           0        7.229747    0.709741    5.124671
    120          1           0        8.616516    0.593535    3.438727
    121          1           0        7.206860    1.009504    2.436081
    122          1           0        7.257211   -1.831731    2.673335
    123          1           0        8.895584   -1.363769    2.316038
    124          1           0        8.086833    0.108544    0.375508
    125          1           0        5.696318   -0.676627    0.942639
    126          1           0        6.118737   -1.950478   -0.297428
    127          1           0        6.450700   -0.309900   -0.649726
    128          1           0        8.210311   -2.129253   -0.898685
    129          1           0        9.050671   -2.724244    0.479117
    130          1           0       10.402507   -0.402198    0.115993
    131          1           0        9.674966   -0.432079   -1.386403
    132          1           0       10.463150   -2.949910   -1.672658
    133          1           0       11.449069   -2.629132   -0.231953
    134          1           0       11.828359   -0.536729   -2.377047
    135          1           0       11.455088   -2.696183   -3.775547
    136          1           0       12.928229   -3.338978   -3.108431
    137          1           0       12.974624   -1.745548   -3.989648
    138          1           0       13.097102   -1.298347   -0.186109
    139          1           0       13.825934   -0.571797   -1.586131
    140          1           0       13.939770   -2.342676   -1.455785
 ---------------------------------------------------------------------

 SCF Done:  E(RCAM-B3LYP) =  -3007.14657657     A.U. after   17 cycles

 Excitation energies and oscillator strengths:

 Excited State   1:      Singlet-A      1.6985 eV  729.97 nm  f=0.3722  <S**2>=0.000
     245 -> 248        0.15220
     246 -> 247        0.69157
 This state for optimization and/or second-order correction.
 Total Energy, E(TD-HF/TD-DFT) =  -3007.08415810
 Copying the excited state density for this state as the 1-particle RhoCI density.

 Excited State   2:      Singlet-A      2.2298 eV  556.03 nm  f=0.1258  <S**2>=0.000
     245 -> 247        0.64585
     246 -> 248       -0.26698

 Excited State   3:      Singlet-A      3.1297 eV  396.16 nm  f=0.0061  <S**2>=0.000
     244 -> 247        0.68389

 Excited State   4:      Singlet-A      3.4852 eV  355.75 nm  f=0.0524  <S**2>=0.000
     240 -> 247        0.29277
     241 -> 247        0.50356
     246 -> 248        0.28857
     246 -> 249       -0.19004

 Excited State   5:      Singlet-A      3.5395 eV  350.28 nm  f=0.0017  <S**2>=0.000
     240 -> 247        0.14217
     241 -> 247        0.17354
     246 -> 249        0.62002
     246 -> 250        0.22130

 The electronic state is 1-A.
 Alpha  occ. eigenvalues --  -46.90644 -19.24342 -19.24264 -19.19914 -19.19015
 Alpha  occ. eigenvalues --  -19.18756 -19.17919 -14.42812 -14.42645 -14.40445
 Alpha  occ. eigenvalues --  -14.38227 -10.38457 -10.38384 -10.36669 -10.34005
 Alpha  occ. eigenvalues --  -10.32879 -10.31899 -10.31779 -10.31643 -10.31407
 Alpha  occ. eigenvalues --  -10.30588 -10.30208 -10.29981 -10.29303 -10.28618
 Alpha  occ. eigenvalues --  -10.28578 -10.28571 -10.28289 -10.28269 -10.28113
 Alpha  occ. eigenvalues --  -10.27746 -10.27595 -10.27428 -10.27297 -10.27196
 Alpha  occ. eigenvalues --  -10.27138 -10.27043 -10.26928 -10.26913 -10.26733
 Alpha  occ. eigenvalues --  -10.26728 -10.26707 -10.26557 -10.26458 -10.26435
 Alpha  occ. eigenvalues --  -10.25857 -10.25814 -10.25756 -10.25313 -10.25276
 Alpha  occ. eigenvalues --  -10.25273 -10.25139 -10.24976 -10.24963 -10.24717
 Alpha  occ. eigenvalues --  -10.24689 -10.24581 -10.24515 -10.24362 -10.24166
 Alpha  occ. eigenvalues --  -10.24146 -10.24142 -10.23869 -10.23679 -10.23603
 Alpha  occ. eigenvalues --  -10.23211  -3.18915  -1.93786  -1.93363  -1.93213
 Alpha  occ. eigenvalues --   -1.15370  -1.15147  -1.11450  -1.09033  -1.06896
 Alpha  occ. eigenvalues --   -1.06737  -1.05011  -1.04375  -1.03418  -1.01869
 Alpha  occ. eigenvalues --   -0.92484  -0.90763  -0.89701  -0.89516  -0.88851
 Alpha  occ. eigenvalues --   -0.88610  -0.88355  -0.88008  -0.87646  -0.86746
 Alpha  occ. eigenvalues --   -0.86141  -0.85582  -0.84079  -0.83782  -0.83543
 Alpha  occ. eigenvalues --   -0.82375  -0.81992  -0.81310  -0.80728  -0.80369
 Alpha  occ. eigenvalues --   -0.79542  -0.78121  -0.77937  -0.77466  -0.75797
 Alpha  occ. eigenvalues --   -0.75668  -0.75262  -0.74966  -0.74933  -0.73858
 Alpha  occ. eigenvalues --   -0.72787  -0.72149  -0.71360  -0.70082  -0.68652
 Alpha  occ. eigenvalues --   -0.68330  -0.67922  -0.67545  -0.66511  -0.65886
 Alpha  occ. eigenvalues --   -0.65577  -0.65392  -0.65038  -0.64175  -0.63739
 Alpha  occ. eigenvalues --   -0.63078  -0.62825  -0.62238  -0.61546  -0.60359
 Alpha  occ. eigenvalues --   -0.60278  -0.59454  -0.59178  -0.58924  -0.58083
 Alpha  occ. eigenvalues --   -0.57810  -0.56779  -0.56084  -0.55497  -0.55017
 Alpha  occ. eigenvalues --   -0.54777  -0.54542  -0.54043  -0.53807  -0.53700
 Alpha  occ. eigenvalues --   -0.53235  -0.53068  -0.52839  -0.52760  -0.52682
 Alpha  occ. eigenvalues --   -0.52478  -0.52351  -0.52001  -0.51916  -0.51820
 Alpha  occ. eigenvalues --   -0.51602  -0.51163  -0.51084  -0.50971  -0.50648
 Alpha  occ. eigenvalues --   -0.50576  -0.50474  -0.50299  -0.50023  -0.49778
 Alpha  occ. eigenvalues --   -0.49542  -0.49349  -0.49240  -0.48980  -0.48648
 Alpha  occ. eigenvalues --   -0.48551  -0.48408  -0.48330  -0.48159  -0.47287
 Alpha  occ. eigenvalues --   -0.47216  -0.47079  -0.47035  -0.46831  -0.46503
 Alpha  occ. eigenvalues --   -0.46439  -0.46305  -0.46131  -0.46053  -0.45642
 Alpha  occ. eigenvalues --   -0.45431  -0.45224  -0.45151  -0.44876  -0.44842
 Alpha  occ. eigenvalues --   -0.44460  -0.44155  -0.44028  -0.43965  -0.43789
 Alpha  occ. eigenvalues --   -0.43580  -0.43437  -0.43412  -0.43183  -0.43136
 Alpha  occ. eigenvalues --   -0.42682  -0.42419  -0.42105  -0.42053  -0.41863
 Alpha  occ. eigenvalues --   -0.41751  -0.41551  -0.41319  -0.41168  -0.40931
 Alpha  occ. eigenvalues --   -0.40686  -0.40446  -0.40327  -0.40207  -0.40001
 Alpha  occ. eigenvalues --   -0.39862  -0.39677  -0.39519  -0.38962  -0.38786
 Alpha  occ. eigenvalues --   -0.38716  -0.38358  -0.37935  -0.37399  -0.37056
 Alpha  occ. eigenvalues --   -0.36794  -0.36687  -0.36624  -0.36506  -0.35565
 Alpha  occ. eigenvalues --   -0.35396  -0.35283  -0.34991  -0.34169  -0.33905
 Alpha  occ. eigenvalues --   -0.33768  -0.33191  -0.33115  -0.32113  -0.31154
 Alpha  occ. eigenvalues --   -0.30850  -0.30172  -0.28822  -0.28385  -0.24359
 Alpha  occ. eigenvalues --   -0.21338
 Alpha virt. eigenvalues --   -0.09031  -0.01521   0.00051   0.00727   0.02598
 Alpha virt. eigenvalues --    0.04520   0.05089   0.05286   0.06102   0.06466
 Alpha virt. eigenvalues --    0.07981   0.08203   0.08632   0.08701   0.09045

 Mulliken charges:
               1
     1  Mg   0.816703
     2  C    0.014435
     3  C   -0.093936
     4  C   -0.039306
     5  C   -0.076901
     6  N   -0.254483
     7  C   -0.073947
     8  C   -0.032804
     9  C   -0.083680
    10  C    0.071218
    11  C    0.081445
    12  C    0.070291
    13  C    0.089213
    14  C    0.158006
    15  O   -0.210353
    16  O   -0.347328
    17  N   -0.366929
    18  C    0.135029
    19  C   -0.158369
    20  C   -0.005029
    21  C    0.118474
    22  C    0.135197
    23  C    0.015428
    24  O   -0.200826
    25  C    0.037688
    26  N   -0.351917
    27  C    0.078126
    28  C   -0.080679
    29  C    0.024557
    30  C    0.027753
    31  C    0.064962
    32  C    0.009430
    33  C   -0.002153
    34  N   -0.241406
    35  C    0.104487
    36  C   -0.207867
    37  C   -0.020348
    38  C    0.023426
    39  C    0.133279
    40  C    0.036306
    41  O   -0.168186
    42  C    0.071773
    43  C    0.178568
    44  O   -0.221817
    45  O   -0.340796
    46  C    0.185753
    47  C    0.250433
    48  C   -0.097360
    49  C   -0.180441
    50  C    0.078458
    51  C    0.023550
    52  C    0.014231
    53  C    0.062729
    54  C   -0.150653
    55  C    0.067861
    56  C    0.044582
    57  C    0.008433
    58  C    0.070108
    59  C   -0.110555
    60  C    0.080665
    61  C    0.051236
    62  C   -0.012337
    63  C    0.048198
    64  C   -0.150787
    65  C    0.046667
    66  C    0.047891
    67  H   -0.017463
    68  H   -0.056326
    69  H   -0.035825
    70  H    0.002349
    71  H    0.005445
    72  H    0.023944
    73  H    0.009363
    74  H    0.020724
    75  H    0.000263
    76  H    0.039472
    77  H    0.011827
    78  H    0.008586
    79  H    0.044556
    80  H    0.027265
    81  H    0.000361
    82  H    0.051277
    83  H    0.025055
    84  H    0.039770
    85  H    0.025083
    86  H    0.002484
    87  H    0.020955
    88  H   -0.000321
    89  H    0.023378
    90  H    0.025973
    91  H   -0.000165
    92  H    0.014571
    93  H    0.033263
    94  H    0.016460
    95  H    0.041691
    96  H    0.039005
    97  H    0.011243
    98  H    0.041863
    99  H    0.024738
   100  H    0.050956
   101  H    0.030830
   102  H    0.044947
   103  H    0.027830
   104  H    0.010761
   105  H    0.031561
   106  H    0.019645
   107  H    0.033702
   108  H    0.002753
   109  H    0.017503
   110  H   -0.004172
   111  H    0.004320
   112  H   -0.005694
   113  H   -0.000372
   114  H   -0.005064
   115  H   -0.006751
   116  H   -0.004720
   117  H    0.021650
   118  H   -0.011429
   119  H   -0.006604
   120  H   -0.011469
   121  H   -0.001470
   122  H   -0.005568
   123  H   -0.016542
   124  H   -0.016947
   125  H    0.003106
   126  H    0.009171
   127  H   -0.006218
   128  H   -0.028245
   129  H   -0.002715
   130  H   -0.009876
   131  H   -0.011955
   132  H   -0.014102
   133  H    0.005415
   134  H   -0.000301
   135  H    0.005060
   136  H    0.012620
   137  H    0.014502
   138  H    0.007800
   139  H   -0.010088
   140  H    0.009908
 Sum of Mulliken charges =  -0.00000

 Dipole moment (field-independent basis, Debye):
    X=              0.7300    Y=             -5.4831    Z=             -1.3566  Tot=              5.6954
 Quadrupole moment (field-independent basis, Debye-Ang):
   XX=           -403.8850   YY=           -411.7724   ZZ=           -389.3420
   XY=             57.5868   XZ=              7.5909   YZ=            -23.7058

 Normal termination of Gaussian 16 at Wed May  4 07:32:30 2022.
