 Gaussian 16, Revision A.03,
 Gaussian 16:  ES64L-G16RevA.03 25-Dec-2016

 ---------------------------------
 #p PBE1PBE/Def2SVP td=(nstates=5)
 ---------------------------------

 ------------------------------------------------------
 step_1501_chromophore_20 TDDFT with PBE1PBE functional
 ------------------------------------------------------
 Symbolic Z-matrix:
 Charge =  0 Multiplicity = 1

                         Standard orientation:
 ---------------------------------------------------------------------
 Center     Atomic      Atomic             Coordinates (Angstroms)
 Number     Number       Type             X           Y           Z
 ---------------------------------------------------------------------
      1         12           0       -4.037483   -1.604533   -0.965541
      2          6           0       -4.232949    2.088518   -1.047462
      3          6           0       -1.336315   -1.238963   -3.019673
      4          6           0       -3.184370   -4.757839   -0.132663
      5          6           0       -6.444215   -1.436740    1.669117
      6          7           0       -2.969714    0.186361   -1.716332
      7          6           0       -3.226934    1.514430   -1.807453
      8          6           0       -2.223661    2.318354   -2.616777
      9          6           0       -1.642496    1.228253   -3.499810
     10          6           0       -1.998547   -0.048948   -2.666271
     11          6           0       -2.063744    1.186883   -4.999797
     12          6           0       -1.155449    3.032780   -1.624415
     13          6           0       -0.748454    4.447996   -1.945202
     14          6           0        0.111920    5.225134   -0.975855
     15          8           0       -0.295412    6.169496   -0.336820
     16          8           0        1.417483    4.837939   -1.024216
     17          7           0       -2.464376   -2.879753   -1.573978
     18          6           0       -1.491294   -2.537176   -2.428675
     19          6           0       -0.698326   -3.790486   -2.614290
     20          6           0       -1.276579   -4.811456   -1.877693
     21          6           0       -2.365734   -4.186062   -1.183919
     22          6           0        0.536978   -3.877217   -3.513295
     23          6           0       -0.693057   -6.203899   -1.687930
     24          8           0        0.250932   -6.458176   -2.418052
     25          6           0       -1.252095   -7.318704   -0.760214
     26          7           0       -4.727787   -2.866350    0.614298
     27          6           0       -4.331561   -4.178160    0.587627
     28          6           0       -5.055966   -4.935007    1.742808
     29          6           0       -6.123049   -3.891833    2.274724
     30          6           0       -5.875055   -2.645550    1.440332
     31          6           0       -5.676859   -6.253562    1.322589
     32          6           0       -6.203374   -3.623349    3.855337
     33          6           0       -7.595699   -3.805871    4.513637
     34          7           0       -5.146662    0.018421    0.100622
     35          6           0       -6.055216   -0.153548    1.117868
     36          6           0       -6.624382    1.119957    1.443393
     37          6           0       -6.017002    2.011263    0.540854
     38          6           0       -5.017749    1.288961   -0.130956
     39          6           0       -7.594597    1.464696    2.527924
     40          6           0       -5.923209    3.413944    0.113709
     41          8           0       -6.588349    4.375075    0.461008
     42          6           0       -4.827386    3.446395   -0.955374
     43          6           0       -3.990719    4.619197   -0.761072
     44          8           0       -3.230399    4.765031    0.195453
     45          8           0       -4.257169    5.592958   -1.712689
     46          6           0       -3.810101    6.921541   -1.349900
     47          6           0        2.300121    5.346450    0.089053
     48          6           0        3.028267    4.114925    0.673177
     49          6           0        4.238311    4.160846    1.306036
     50          6           0        4.931445    5.381251    1.983794
     51          6           0        4.670341    2.753351    1.751835
     52          6           0        4.022043    2.240794    3.105592
     53          6           0        5.094557    1.772483    4.176341
     54          6           0        5.404868    0.259929    4.060820
     55          6           0        4.497716   -0.602802    4.997549
     56          6           0        6.845305    0.026834    4.366329
     57          6           0        7.663685    0.234288    3.050796
     58          6           0        7.857307   -1.052906    2.202335
     59          6           0        7.763568   -0.886620    0.676627
     60          6           0        6.400481   -1.012769    0.182010
     61          6           0        8.775080   -1.798458   -0.026481
     62          6           0        9.969946   -1.112451   -0.588443
     63          6           0       11.011380   -2.183682   -1.125041
     64          6           0       12.061035   -1.557869   -2.075164
     65          6           0       12.408625   -2.406923   -3.334114
     66          6           0       13.319710   -1.473367   -1.238952
     67          1           0       -0.482493   -1.086991   -3.682014
     68          1           0       -3.047883   -5.830056    0.020200
     69          1           0       -7.217666   -1.470129    2.439406
     70          1           0       -2.630269    3.102506   -3.254500
     71          1           0       -0.555784    1.208698   -3.573102
     72          1           0       -1.214642    1.508600   -5.601166
     73          1           0       -2.883931    1.887306   -5.157652
     74          1           0       -2.475655    0.233570   -5.330291
     75          1           0       -0.271668    2.413337   -1.775829
     76          1           0       -1.471843    2.860955   -0.595051
     77          1           0       -1.593246    5.102599   -2.156519
     78          1           0       -0.280246    4.331635   -2.922270
     79          1           0        0.507168   -4.806928   -4.081402
     80          1           0        1.425830   -3.896625   -2.882746
     81          1           0        0.689702   -3.012952   -4.160193
     82          1           0       -1.203852   -7.164877    0.318397
     83          1           0       -0.766826   -8.262575   -1.008172
     84          1           0       -2.283978   -7.583685   -0.992523
     85          1           0       -4.334626   -5.171318    2.524810
     86          1           0       -7.100913   -4.210870    1.914749
     87          1           0       -4.967699   -7.071455    1.448968
     88          1           0       -5.802285   -6.206659    0.240497
     89          1           0       -6.702072   -6.416915    1.654818
     90          1           0       -5.854044   -2.655814    4.215970
     91          1           0       -5.532969   -4.392881    4.238230
     92          1           0       -7.742835   -2.739825    4.685224
     93          1           0       -7.621037   -4.341657    5.462395
     94          1           0       -8.275325   -4.113142    3.718728
     95          1           0       -8.179215    2.356970    2.304963
     96          1           0       -6.885242    1.608764    3.343452
     97          1           0       -8.224184    0.586633    2.671489
     98          1           0       -5.415766    3.560796   -1.866528
     99          1           0       -2.755129    6.964097   -1.621068
    100          1           0       -3.873150    7.185354   -0.294446
    101          1           0       -4.400170    7.603778   -1.961572
    102          1           0        1.781661    5.845417    0.908512
    103          1           0        2.900018    6.166654   -0.305463
    104          1           0        2.576850    3.154914    0.421317
    105          1           0        5.437342    5.077788    2.901181
    106          1           0        4.123553    6.089909    2.164987
    107          1           0        5.607782    5.839761    1.261804
    108          1           0        5.727545    2.921779    1.957356
    109          1           0        4.518161    2.024888    0.954613
    110          1           0        3.412678    1.408945    2.751494
    111          1           0        3.288348    2.926588    3.530113
    112          1           0        4.597459    1.958137    5.128175
    113          1           0        5.997664    2.382243    4.142633
    114          1           0        5.171911   -0.134153    3.071398
    115          1           0        4.197390   -1.467616    4.405644
    116          1           0        3.518884   -0.134813    5.102692
    117          1           0        5.023890   -0.869623    5.913835
    118          1           0        6.978122   -1.001162    4.702727
    119          1           0        7.229747    0.709741    5.124671
    120          1           0        8.616516    0.593535    3.438727
    121          1           0        7.206860    1.009504    2.436081
    122          1           0        7.257211   -1.831731    2.673335
    123          1           0        8.895584   -1.363769    2.316038
    124          1           0        8.086833    0.108544    0.375508
    125          1           0        5.696318   -0.676627    0.942639
    126          1           0        6.118737   -1.950478   -0.297428
    127          1           0        6.450700   -0.309900   -0.649726
    128          1           0        8.210311   -2.129253   -0.898685
    129          1           0        9.050671   -2.724244    0.479117
    130          1           0       10.402507   -0.402198    0.115993
    131          1           0        9.674966   -0.432079   -1.386403
    132          1           0       10.463150   -2.949910   -1.672658
    133          1           0       11.449069   -2.629132   -0.231953
    134          1           0       11.828359   -0.536729   -2.377047
    135          1           0       11.455088   -2.696183   -3.775547
    136          1           0       12.928229   -3.338978   -3.108431
    137          1           0       12.974624   -1.745548   -3.989648
    138          1           0       13.097102   -1.298347   -0.186109
    139          1           0       13.825934   -0.571797   -1.586131
    140          1           0       13.939770   -2.342676   -1.455785
 ---------------------------------------------------------------------

 SCF Done:  E(RPBE1PBE) =  -3005.33459672     A.U. after   16 cycles

 Excitation energies and oscillator strengths:

 Excited State   1:      Singlet-A      1.8233 eV  680.00 nm  f=0.3617  <S**2>=0.000
     245 -> 248        0.14896
     246 -> 247        0.69814
     246 <- 247       -0.11541
 This state for optimization and/or second-order correction.
 Total Energy, E(TD-HF/TD-DFT) =  -3005.26759179
 Copying the excited state density for this state as the 1-particle RhoCI density.

 Excited State   2:      Singlet-A      2.2316 eV  555.58 nm  f=0.1169  <S**2>=0.000
     245 -> 247        0.65282
     246 -> 248       -0.24261

 Excited State   3:      Singlet-A      2.7058 eV  458.22 nm  f=0.0087  <S**2>=0.000
     243 -> 247        0.68497

 Excited State   4:      Singlet-A      3.0182 eV  410.79 nm  f=0.0044  <S**2>=0.000
     242 -> 247        0.67908

 Excited State   5:      Singlet-A      3.0701 eV  403.84 nm  f=0.0001  <S**2>=0.000
     244 -> 247        0.70139

 The electronic state is 1-A.
 Alpha  occ. eigenvalues --  -46.93983 -19.25084 -19.25031 -19.19838 -19.19343
 Alpha  occ. eigenvalues --  -19.19086 -19.18482 -14.42320 -14.42104 -14.39850
 Alpha  occ. eigenvalues --  -14.38083 -10.35571 -10.35462 -10.33570 -10.31450
 Alpha  occ. eigenvalues --  -10.30338 -10.29367 -10.29218 -10.28850 -10.28612
 Alpha  occ. eigenvalues --  -10.28556 -10.28235 -10.27308 -10.26845 -10.26529
 Alpha  occ. eigenvalues --  -10.26287 -10.26223 -10.26147 -10.26138 -10.25849
 Alpha  occ. eigenvalues --  -10.25276 -10.25245 -10.25181 -10.24975 -10.24782
 Alpha  occ. eigenvalues --  -10.24720 -10.24709 -10.24660 -10.24614 -10.24604
 Alpha  occ. eigenvalues --  -10.24437 -10.24114 -10.24103 -10.24094 -10.23810
 Alpha  occ. eigenvalues --  -10.23331 -10.23331 -10.23037 -10.23018 -10.22850
 Alpha  occ. eigenvalues --  -10.22848 -10.22774 -10.22635 -10.22551 -10.22264
 Alpha  occ. eigenvalues --  -10.22178 -10.22126 -10.21955 -10.21889 -10.21701
 Alpha  occ. eigenvalues --  -10.21664 -10.21522 -10.21400 -10.21378 -10.20992
 Alpha  occ. eigenvalues --  -10.20962  -3.15840  -1.88648  -1.88205  -1.88058
 Alpha  occ. eigenvalues --   -1.10231  -1.10018  -1.05910  -1.04082  -1.01827
 Alpha  occ. eigenvalues --   -1.01663  -0.99558  -0.98947  -0.98291  -0.96410
 Alpha  occ. eigenvalues --   -0.87044  -0.84822  -0.83876  -0.83690  -0.83134
 Alpha  occ. eigenvalues --   -0.82738  -0.82561  -0.82112  -0.81921  -0.80831
 Alpha  occ. eigenvalues --   -0.80596  -0.79860  -0.78335  -0.78083  -0.77699
 Alpha  occ. eigenvalues --   -0.76514  -0.76142  -0.75533  -0.74940  -0.74706
 Alpha  occ. eigenvalues --   -0.73731  -0.72369  -0.72279  -0.71705  -0.70130
 Alpha  occ. eigenvalues --   -0.69943  -0.69343  -0.69288  -0.69052  -0.67994
 Alpha  occ. eigenvalues --   -0.67291  -0.66499  -0.65752  -0.64390  -0.63020
 Alpha  occ. eigenvalues --   -0.62642  -0.62127  -0.62062  -0.60683  -0.60383
 Alpha  occ. eigenvalues --   -0.60012  -0.59565  -0.59534  -0.58771  -0.57833
 Alpha  occ. eigenvalues --   -0.57622  -0.56954  -0.56390  -0.56237  -0.54802
 Alpha  occ. eigenvalues --   -0.54688  -0.54028  -0.53691  -0.53432  -0.52687
 Alpha  occ. eigenvalues --   -0.52368  -0.51338  -0.50622  -0.50099  -0.49728
 Alpha  occ. eigenvalues --   -0.49222  -0.49094  -0.48444  -0.48288  -0.48188
 Alpha  occ. eigenvalues --   -0.47692  -0.47672  -0.47452  -0.47426  -0.47101
 Alpha  occ. eigenvalues --   -0.46922  -0.46725  -0.46463  -0.46398  -0.46267
 Alpha  occ. eigenvalues --   -0.46129  -0.45799  -0.45700  -0.45473  -0.45261
 Alpha  occ. eigenvalues --   -0.45203  -0.45099  -0.44705  -0.44417  -0.44365
 Alpha  occ. eigenvalues --   -0.44101  -0.44043  -0.43844  -0.43527  -0.43408
 Alpha  occ. eigenvalues --   -0.43134  -0.43076  -0.42980  -0.42782  -0.41960
 Alpha  occ. eigenvalues --   -0.41822  -0.41706  -0.41568  -0.41440  -0.41290
 Alpha  occ. eigenvalues --   -0.41109  -0.41025  -0.40704  -0.40605  -0.40287
 Alpha  occ. eigenvalues --   -0.40241  -0.40060  -0.39847  -0.39519  -0.39464
 Alpha  occ. eigenvalues --   -0.39299  -0.38849  -0.38793  -0.38666  -0.38513
 Alpha  occ. eigenvalues --   -0.38266  -0.38263  -0.38041  -0.38014  -0.37870
 Alpha  occ. eigenvalues --   -0.37557  -0.37274  -0.37036  -0.36763  -0.36721
 Alpha  occ. eigenvalues --   -0.36555  -0.36432  -0.36292  -0.36055  -0.35683
 Alpha  occ. eigenvalues --   -0.35652  -0.35402  -0.35160  -0.35082  -0.34895
 Alpha  occ. eigenvalues --   -0.34639  -0.34503  -0.34243  -0.33731  -0.33656
 Alpha  occ. eigenvalues --   -0.33538  -0.33158  -0.32681  -0.32315  -0.31860
 Alpha  occ. eigenvalues --   -0.31842  -0.31735  -0.31526  -0.31292  -0.30563
 Alpha  occ. eigenvalues --   -0.30273  -0.30153  -0.29864  -0.29216  -0.29095
 Alpha  occ. eigenvalues --   -0.28999  -0.28403  -0.28051  -0.26681  -0.26588
 Alpha  occ. eigenvalues --   -0.26198  -0.25466  -0.24278  -0.24122  -0.21213
 Alpha  occ. eigenvalues --   -0.18918
 Alpha virt. eigenvalues --   -0.11483  -0.05101  -0.03642  -0.02434  -0.01965
 Alpha virt. eigenvalues --    0.00160   0.00416   0.00791   0.01702   0.02234
 Alpha virt. eigenvalues --    0.03995   0.04662   0.05184   0.05394   0.05519

 Mulliken charges:
               1
     1  Mg   0.949269
     2  C    0.005398
     3  C   -0.078109
     4  C   -0.030937
     5  C   -0.077405
     6  N   -0.356022
     7  C   -0.002721
     8  C   -0.097723
     9  C   -0.155987
    10  C    0.095408
    11  C    0.027645
    12  C    0.024279
    13  C    0.001725
    14  C    0.230788
    15  O   -0.244614
    16  O   -0.375842
    17  N   -0.481896
    18  C    0.163782
    19  C   -0.193136
    20  C   -0.052754
    21  C    0.139840
    22  C    0.077683
    23  C    0.064179
    24  O   -0.234591
    25  C   -0.036710
    26  N   -0.449519
    27  C    0.112205
    28  C   -0.161668
    29  C   -0.048533
    30  C    0.072883
    31  C    0.007112
    32  C   -0.054688
    33  C   -0.074494
    34  N   -0.367909
    35  C    0.134531
    36  C   -0.232235
    37  C   -0.059676
    38  C    0.083289
    39  C    0.076392
    40  C    0.135855
    41  O   -0.214220
    42  C   -0.040591
    43  C    0.266484
    44  O   -0.255874
    45  O   -0.373825
    46  C    0.128566
    47  C    0.212293
    48  C   -0.115157
    49  C   -0.208237
    50  C    0.008165
    51  C   -0.048688
    52  C   -0.042411
    53  C    0.005514
    54  C   -0.243319
    55  C    0.008250
    56  C   -0.014503
    57  C   -0.057690
    58  C    0.015449
    59  C   -0.197850
    60  C    0.014467
    61  C   -0.007689
    62  C   -0.069886
    63  C   -0.010689
    64  C   -0.243345
    65  C   -0.015744
    66  C   -0.012009
    67  H    0.012810
    68  H   -0.019491
    69  H   -0.000264
    70  H    0.038875
    71  H    0.040950
    72  H    0.050179
    73  H    0.036052
    74  H    0.048089
    75  H    0.035726
    76  H    0.071136
    77  H    0.048415
    78  H    0.042852
    79  H    0.070418
    80  H    0.054607
    81  H    0.026533
    82  H    0.075711
    83  H    0.052213
    84  H    0.064586
    85  H    0.060843
    86  H    0.041498
    87  H    0.047857
    88  H    0.029043
    89  H    0.049614
    90  H    0.057324
    91  H    0.035510
    92  H    0.040918
    93  H    0.060849
    94  H    0.044429
    95  H    0.069721
    96  H    0.069623
    97  H    0.040108
    98  H    0.081086
    99  H    0.048679
   100  H    0.072212
   101  H    0.053534
   102  H    0.070532
   103  H    0.053761
   104  H    0.039846
   105  H    0.058311
   106  H    0.047311
   107  H    0.061466
   108  H    0.037184
   109  H    0.050202
   110  H    0.028013
   111  H    0.035416
   112  H    0.027953
   113  H    0.030624
   114  H    0.042077
   115  H    0.021742
   116  H    0.023479
   117  H    0.048179
   118  H    0.022097
   119  H    0.025987
   120  H    0.021926
   121  H    0.036321
   122  H    0.026431
   123  H    0.019183
   124  H    0.021136
   125  H    0.036797
   126  H    0.036640
   127  H    0.022410
   128  H    0.007665
   129  H    0.028826
   130  H    0.022610
   131  H    0.021016
   132  H    0.018719
   133  H    0.037660
   134  H    0.035890
   135  H    0.033752
   136  H    0.039060
   137  H    0.042821
   138  H    0.035774
   139  H    0.019009
   140  H    0.037374
 Sum of Mulliken charges =  -0.00000

 Dipole moment (field-independent basis, Debye):
    X=              0.2057    Y=             -4.8742    Z=             -1.0104  Tot=              4.9821
 Quadrupole moment (field-independent basis, Debye-Ang):
   XX=           -396.7978   YY=           -409.9709   ZZ=           -386.0503
   XY=             56.5221   XZ=              5.5961   YZ=            -25.0979

 Normal termination of Gaussian 16 at Wed May  4 07:47:30 2022.
