 Gaussian 16, Revision A.03,
 Gaussian 16:  ES64L-G16RevA.03 25-Dec-2016

 --------------------------------
 #p wB97XD/Def2SVP td=(nstates=5)
 --------------------------------

 -----------------------------------------------------
 step_1501_chromophore_20 TDDFT with wB97XD functional
 -----------------------------------------------------
 Symbolic Z-matrix:
 Charge =  0 Multiplicity = 1

                         Standard orientation:
 ---------------------------------------------------------------------
 Center     Atomic      Atomic             Coordinates (Angstroms)
 Number     Number       Type             X           Y           Z
 ---------------------------------------------------------------------
      1         12           0       -4.037483   -1.604533   -0.965541
      2          6           0       -4.232949    2.088518   -1.047462
      3          6           0       -1.336315   -1.238963   -3.019673
      4          6           0       -3.184370   -4.757839   -0.132663
      5          6           0       -6.444215   -1.436740    1.669117
      6          7           0       -2.969714    0.186361   -1.716332
      7          6           0       -3.226934    1.514430   -1.807453
      8          6           0       -2.223661    2.318354   -2.616777
      9          6           0       -1.642496    1.228253   -3.499810
     10          6           0       -1.998547   -0.048948   -2.666271
     11          6           0       -2.063744    1.186883   -4.999797
     12          6           0       -1.155449    3.032780   -1.624415
     13          6           0       -0.748454    4.447996   -1.945202
     14          6           0        0.111920    5.225134   -0.975855
     15          8           0       -0.295412    6.169496   -0.336820
     16          8           0        1.417483    4.837939   -1.024216
     17          7           0       -2.464376   -2.879753   -1.573978
     18          6           0       -1.491294   -2.537176   -2.428675
     19          6           0       -0.698326   -3.790486   -2.614290
     20          6           0       -1.276579   -4.811456   -1.877693
     21          6           0       -2.365734   -4.186062   -1.183919
     22          6           0        0.536978   -3.877217   -3.513295
     23          6           0       -0.693057   -6.203899   -1.687930
     24          8           0        0.250932   -6.458176   -2.418052
     25          6           0       -1.252095   -7.318704   -0.760214
     26          7           0       -4.727787   -2.866350    0.614298
     27          6           0       -4.331561   -4.178160    0.587627
     28          6           0       -5.055966   -4.935007    1.742808
     29          6           0       -6.123049   -3.891833    2.274724
     30          6           0       -5.875055   -2.645550    1.440332
     31          6           0       -5.676859   -6.253562    1.322589
     32          6           0       -6.203374   -3.623349    3.855337
     33          6           0       -7.595699   -3.805871    4.513637
     34          7           0       -5.146662    0.018421    0.100622
     35          6           0       -6.055216   -0.153548    1.117868
     36          6           0       -6.624382    1.119957    1.443393
     37          6           0       -6.017002    2.011263    0.540854
     38          6           0       -5.017749    1.288961   -0.130956
     39          6           0       -7.594597    1.464696    2.527924
     40          6           0       -5.923209    3.413944    0.113709
     41          8           0       -6.588349    4.375075    0.461008
     42          6           0       -4.827386    3.446395   -0.955374
     43          6           0       -3.990719    4.619197   -0.761072
     44          8           0       -3.230399    4.765031    0.195453
     45          8           0       -4.257169    5.592958   -1.712689
     46          6           0       -3.810101    6.921541   -1.349900
     47          6           0        2.300121    5.346450    0.089053
     48          6           0        3.028267    4.114925    0.673177
     49          6           0        4.238311    4.160846    1.306036
     50          6           0        4.931445    5.381251    1.983794
     51          6           0        4.670341    2.753351    1.751835
     52          6           0        4.022043    2.240794    3.105592
     53          6           0        5.094557    1.772483    4.176341
     54          6           0        5.404868    0.259929    4.060820
     55          6           0        4.497716   -0.602802    4.997549
     56          6           0        6.845305    0.026834    4.366329
     57          6           0        7.663685    0.234288    3.050796
     58          6           0        7.857307   -1.052906    2.202335
     59          6           0        7.763568   -0.886620    0.676627
     60          6           0        6.400481   -1.012769    0.182010
     61          6           0        8.775080   -1.798458   -0.026481
     62          6           0        9.969946   -1.112451   -0.588443
     63          6           0       11.011380   -2.183682   -1.125041
     64          6           0       12.061035   -1.557869   -2.075164
     65          6           0       12.408625   -2.406923   -3.334114
     66          6           0       13.319710   -1.473367   -1.238952
     67          1           0       -0.482493   -1.086991   -3.682014
     68          1           0       -3.047883   -5.830056    0.020200
     69          1           0       -7.217666   -1.470129    2.439406
     70          1           0       -2.630269    3.102506   -3.254500
     71          1           0       -0.555784    1.208698   -3.573102
     72          1           0       -1.214642    1.508600   -5.601166
     73          1           0       -2.883931    1.887306   -5.157652
     74          1           0       -2.475655    0.233570   -5.330291
     75          1           0       -0.271668    2.413337   -1.775829
     76          1           0       -1.471843    2.860955   -0.595051
     77          1           0       -1.593246    5.102599   -2.156519
     78          1           0       -0.280246    4.331635   -2.922270
     79          1           0        0.507168   -4.806928   -4.081402
     80          1           0        1.425830   -3.896625   -2.882746
     81          1           0        0.689702   -3.012952   -4.160193
     82          1           0       -1.203852   -7.164877    0.318397
     83          1           0       -0.766826   -8.262575   -1.008172
     84          1           0       -2.283978   -7.583685   -0.992523
     85          1           0       -4.334626   -5.171318    2.524810
     86          1           0       -7.100913   -4.210870    1.914749
     87          1           0       -4.967699   -7.071455    1.448968
     88          1           0       -5.802285   -6.206659    0.240497
     89          1           0       -6.702072   -6.416915    1.654818
     90          1           0       -5.854044   -2.655814    4.215970
     91          1           0       -5.532969   -4.392881    4.238230
     92          1           0       -7.742835   -2.739825    4.685224
     93          1           0       -7.621037   -4.341657    5.462395
     94          1           0       -8.275325   -4.113142    3.718728
     95          1           0       -8.179215    2.356970    2.304963
     96          1           0       -6.885242    1.608764    3.343452
     97          1           0       -8.224184    0.586633    2.671489
     98          1           0       -5.415766    3.560796   -1.866528
     99          1           0       -2.755129    6.964097   -1.621068
    100          1           0       -3.873150    7.185354   -0.294446
    101          1           0       -4.400170    7.603778   -1.961572
    102          1           0        1.781661    5.845417    0.908512
    103          1           0        2.900018    6.166654   -0.305463
    104          1           0        2.576850    3.154914    0.421317
    105          1           0        5.437342    5.077788    2.901181
    106          1           0        4.123553    6.089909    2.164987
    107          1           0        5.607782    5.839761    1.261804
    108          1           0        5.727545    2.921779    1.957356
    109          1           0        4.518161    2.024888    0.954613
    110          1           0        3.412678    1.408945    2.751494
    111          1           0        3.288348    2.926588    3.530113
    112          1           0        4.597459    1.958137    5.128175
    113          1           0        5.997664    2.382243    4.142633
    114          1           0        5.171911   -0.134153    3.071398
    115          1           0        4.197390   -1.467616    4.405644
    116          1           0        3.518884   -0.134813    5.102692
    117          1           0        5.023890   -0.869623    5.913835
    118          1           0        6.978122   -1.001162    4.702727
    119          1           0        7.229747    0.709741    5.124671
    120          1           0        8.616516    0.593535    3.438727
    121          1           0        7.206860    1.009504    2.436081
    122          1           0        7.257211   -1.831731    2.673335
    123          1           0        8.895584   -1.363769    2.316038
    124          1           0        8.086833    0.108544    0.375508
    125          1           0        5.696318   -0.676627    0.942639
    126          1           0        6.118737   -1.950478   -0.297428
    127          1           0        6.450700   -0.309900   -0.649726
    128          1           0        8.210311   -2.129253   -0.898685
    129          1           0        9.050671   -2.724244    0.479117
    130          1           0       10.402507   -0.402198    0.115993
    131          1           0        9.674966   -0.432079   -1.386403
    132          1           0       10.463150   -2.949910   -1.672658
    133          1           0       11.449069   -2.629132   -0.231953
    134          1           0       11.828359   -0.536729   -2.377047
    135          1           0       11.455088   -2.696183   -3.775547
    136          1           0       12.928229   -3.338978   -3.108431
    137          1           0       12.974624   -1.745548   -3.989648
    138          1           0       13.097102   -1.298347   -0.186109
    139          1           0       13.825934   -0.571797   -1.586131
    140          1           0       13.939770   -2.342676   -1.455785
 ---------------------------------------------------------------------

 SCF Done:  E(RwB97XD) =  -3007.84639218     A.U. after   17 cycles

 Excitation energies and oscillator strengths:

 Excited State   1:      Singlet-A      1.6636 eV  745.30 nm  f=0.3726  <S**2>=0.000
     245 -> 248        0.15555
     246 -> 247        0.68947
     245 <- 248        0.10682
 This state for optimization and/or second-order correction.
 Total Energy, E(TD-HF/TD-DFT) =  -3007.78525766
 Copying the excited state density for this state as the 1-particle RhoCI density.

 Excited State   2:      Singlet-A      2.1806 eV  568.57 nm  f=0.1223  <S**2>=0.000
     245 -> 247        0.64315
     246 -> 248       -0.27040

 Excited State   3:      Singlet-A      3.1934 eV  388.25 nm  f=0.0053  <S**2>=0.000
     244 -> 247        0.67299

 Excited State   4:      Singlet-A      3.5007 eV  354.17 nm  f=0.0564  <S**2>=0.000
     240 -> 247        0.38757
     241 -> 247        0.47115
     246 -> 248        0.28549

 Excited State   5:      Singlet-A      3.6679 eV  338.03 nm  f=0.1820  <S**2>=0.000
     239 -> 247        0.43335
     239 -> 248       -0.15099
     239 -> 249        0.33780
     239 -> 250       -0.10439
     239 -> 251       -0.11489
     242 -> 247       -0.11696
     245 -> 247        0.13925
     246 -> 248        0.29303

 The electronic state is 1-A.
 Alpha  occ. eigenvalues --  -46.96997 -19.29569 -19.29452 -19.24994 -19.23909
 Alpha  occ. eigenvalues --  -19.23654 -19.22877 -14.47415 -14.47282 -14.45070
 Alpha  occ. eigenvalues --  -14.42738 -10.42268 -10.42164 -10.40722 -10.37934
 Alpha  occ. eigenvalues --  -10.37012 -10.36023 -10.35822 -10.35667 -10.35584
 Alpha  occ. eigenvalues --  -10.34544 -10.34164 -10.33695 -10.33573 -10.32779
 Alpha  occ. eigenvalues --  -10.32630 -10.32482 -10.32341 -10.32321 -10.32184
 Alpha  occ. eigenvalues --  -10.31854 -10.31608 -10.31530 -10.31356 -10.31152
 Alpha  occ. eigenvalues --  -10.31034 -10.31022 -10.30918 -10.30861 -10.30693
 Alpha  occ. eigenvalues --  -10.30592 -10.30542 -10.30466 -10.30452 -10.30321
 Alpha  occ. eigenvalues --  -10.29863 -10.29702 -10.29627 -10.29214 -10.29207
 Alpha  occ. eigenvalues --  -10.29103 -10.29071 -10.28936 -10.28919 -10.28648
 Alpha  occ. eigenvalues --  -10.28587 -10.28456 -10.28405 -10.28281 -10.28083
 Alpha  occ. eigenvalues --  -10.28068 -10.27966 -10.27780 -10.27479 -10.27409
 Alpha  occ. eigenvalues --  -10.27154  -3.22756  -1.96305  -1.95861  -1.95713
 Alpha  occ. eigenvalues --   -1.17527  -1.17271  -1.13728  -1.11179  -1.09077
 Alpha  occ. eigenvalues --   -1.08887  -1.07087  -1.06424  -1.05397  -1.03878
 Alpha  occ. eigenvalues --   -0.94398  -0.92506  -0.91500  -0.91336  -0.90761
 Alpha  occ. eigenvalues --   -0.90408  -0.90276  -0.89783  -0.89583  -0.88789
 Alpha  occ. eigenvalues --   -0.88038  -0.87452  -0.85966  -0.85650  -0.85385
 Alpha  occ. eigenvalues --   -0.84196  -0.83926  -0.83208  -0.82604  -0.82322
 Alpha  occ. eigenvalues --   -0.81382  -0.80096  -0.79823  -0.79398  -0.77633
 Alpha  occ. eigenvalues --   -0.77567  -0.77058  -0.76903  -0.76763  -0.75683
 Alpha  occ. eigenvalues --   -0.74743  -0.74086  -0.73336  -0.72001  -0.70589
 Alpha  occ. eigenvalues --   -0.70348  -0.69787  -0.69551  -0.68351  -0.67821
 Alpha  occ. eigenvalues --   -0.67531  -0.67219  -0.67036  -0.66170  -0.65543
 Alpha  occ. eigenvalues --   -0.65033  -0.64638  -0.64057  -0.63506  -0.62393
 Alpha  occ. eigenvalues --   -0.62273  -0.61438  -0.61103  -0.60864  -0.59990
 Alpha  occ. eigenvalues --   -0.59830  -0.58746  -0.58028  -0.57395  -0.56968
 Alpha  occ. eigenvalues --   -0.56647  -0.56441  -0.55902  -0.55666  -0.55619
 Alpha  occ. eigenvalues --   -0.55100  -0.54996  -0.54747  -0.54726  -0.54647
 Alpha  occ. eigenvalues --   -0.54416  -0.54275  -0.53896  -0.53799  -0.53675
 Alpha  occ. eigenvalues --   -0.53493  -0.53071  -0.52982  -0.52848  -0.52612
 Alpha  occ. eigenvalues --   -0.52463  -0.52366  -0.52271  -0.52033  -0.51674
 Alpha  occ. eigenvalues --   -0.51405  -0.51245  -0.51126  -0.50847  -0.50563
 Alpha  occ. eigenvalues --   -0.50425  -0.50324  -0.50241  -0.50056  -0.49178
 Alpha  occ. eigenvalues --   -0.49160  -0.49032  -0.48966  -0.48705  -0.48421
 Alpha  occ. eigenvalues --   -0.48363  -0.48194  -0.48043  -0.47973  -0.47489
 Alpha  occ. eigenvalues --   -0.47365  -0.47090  -0.47033  -0.46813  -0.46702
 Alpha  occ. eigenvalues --   -0.46381  -0.46043  -0.46010  -0.45894  -0.45754
 Alpha  occ. eigenvalues --   -0.45501  -0.45379  -0.45315  -0.45112  -0.45014
 Alpha  occ. eigenvalues --   -0.44624  -0.44321  -0.44001  -0.43905  -0.43774
 Alpha  occ. eigenvalues --   -0.43596  -0.43446  -0.43234  -0.43079  -0.42774
 Alpha  occ. eigenvalues --   -0.42625  -0.42345  -0.42177  -0.42116  -0.41892
 Alpha  occ. eigenvalues --   -0.41714  -0.41544  -0.41354  -0.40796  -0.40632
 Alpha  occ. eigenvalues --   -0.40595  -0.40211  -0.39770  -0.39352  -0.38964
 Alpha  occ. eigenvalues --   -0.38878  -0.38607  -0.38533  -0.38363  -0.37514
 Alpha  occ. eigenvalues --   -0.37246  -0.37132  -0.36827  -0.35986  -0.35979
 Alpha  occ. eigenvalues --   -0.35713  -0.35268  -0.35035  -0.34112  -0.33395
 Alpha  occ. eigenvalues --   -0.33064  -0.32098  -0.30839  -0.30451  -0.26297
 Alpha  occ. eigenvalues --   -0.23165
 Alpha virt. eigenvalues --   -0.07358   0.00399   0.02521   0.03529   0.04713
 Alpha virt. eigenvalues --    0.06881   0.07299   0.07533   0.08559   0.08877
 Alpha virt. eigenvalues --    0.10847   0.11218   0.11854   0.12080   0.12237

 Mulliken charges:
               1
     1  Mg   0.944552
     2  C    0.000512
     3  C   -0.100993
     4  C   -0.046018
     5  C   -0.083015
     6  N   -0.323872
     7  C   -0.034301
     8  C   -0.076275
     9  C   -0.129913
    10  C    0.088695
    11  C    0.034760
    12  C    0.034886
    13  C    0.029509
    14  C    0.218587
    15  O   -0.241302
    16  O   -0.375912
    17  N   -0.450158
    18  C    0.158745
    19  C   -0.179774
    20  C   -0.045032
    21  C    0.141306
    22  C    0.088933
    23  C    0.058521
    24  O   -0.229377
    25  C   -0.024661
    26  N   -0.419281
    27  C    0.102279
    28  C   -0.134891
    29  C   -0.021051
    30  C    0.052966
    31  C    0.016454
    32  C   -0.039295
    33  C   -0.056949
    34  N   -0.326782
    35  C    0.117041
    36  C   -0.224803
    37  C   -0.061193
    38  C    0.061119
    39  C    0.088130
    40  C    0.114612
    41  O   -0.206929
    42  C    0.002653
    43  C    0.237474
    44  O   -0.247755
    45  O   -0.370928
    46  C    0.145482
    47  C    0.223090
    48  C   -0.120019
    49  C   -0.201577
    50  C    0.024107
    51  C   -0.022037
    52  C   -0.029423
    53  C    0.020501
    54  C   -0.202861
    55  C    0.019270
    56  C    0.001868
    57  C   -0.032379
    58  C    0.028937
    59  C   -0.166045
    60  C    0.029942
    61  C    0.009346
    62  C   -0.054098
    63  C    0.006126
    64  C   -0.215614
    65  C   -0.002646
    66  C    0.000340
    67  H    0.007051
    68  H   -0.033588
    69  H   -0.011466
    70  H    0.027767
    71  H    0.030048
    72  H    0.046236
    73  H    0.031258
    74  H    0.042238
    75  H    0.024819
    76  H    0.063551
    77  H    0.031123
    78  H    0.035762
    79  H    0.067688
    80  H    0.051911
    81  H    0.023660
    82  H    0.073283
    83  H    0.051917
    84  H    0.060253
    85  H    0.051545
    86  H    0.026490
    87  H    0.042853
    88  H    0.021126
    89  H    0.046134
    90  H    0.050271
    91  H    0.024732
    92  H    0.033972
    93  H    0.056651
    94  H    0.037090
    95  H    0.065754
    96  H    0.062207
    97  H    0.031826
    98  H    0.073260
    99  H    0.041885
   100  H    0.068685
   101  H    0.050220
   102  H    0.065820
   103  H    0.050121
   104  H    0.036466
   105  H    0.053118
   106  H    0.041424
   107  H    0.056290
   108  H    0.023327
   109  H    0.041868
   110  H    0.019075
   111  H    0.028737
   112  H    0.020110
   113  H    0.020261
   114  H    0.014913
   115  H    0.016011
   116  H    0.017021
   117  H    0.043148
   118  H    0.012152
   119  H    0.018424
   120  H    0.015325
   121  H    0.015322
   122  H    0.016972
   123  H    0.008698
   124  H    0.008081
   125  H    0.025707
   126  H    0.031184
   127  H    0.015821
   128  H   -0.004192
   129  H    0.020483
   130  H    0.012793
   131  H    0.011340
   132  H    0.008978
   133  H    0.027977
   134  H    0.026190
   135  H    0.026910
   136  H    0.032746
   137  H    0.037365
   138  H    0.028646
   139  H    0.013118
   140  H    0.030456
 Sum of Mulliken charges =  -0.00000

 Dipole moment (field-independent basis, Debye):
    X=              0.8413    Y=             -5.7388    Z=             -1.4640  Tot=              5.9820
 Quadrupole moment (field-independent basis, Debye-Ang):
   XX=           -400.8919   YY=           -407.1315   ZZ=           -385.2249
   XY=             58.3602   XZ=              7.2090   YZ=            -23.7617

 Normal termination of Gaussian 16 at Wed May  4 08:18:29 2022.
