 Gaussian 16, Revision A.03,
 Gaussian 16:  ES64L-G16RevA.03 25-Dec-2016

 --------------------
 #p ZINDO=(nstates=5)
 --------------------

 ------------------------------
 step_1501_chromophore_20 ZINDO
 ------------------------------
 Symbolic Z-matrix:
 Charge =  0 Multiplicity = 1

                         Standard orientation:
 ---------------------------------------------------------------------
 Center     Atomic      Atomic             Coordinates (Angstroms)
 Number     Number       Type             X           Y           Z
 ---------------------------------------------------------------------
      1         12           0       -4.037483   -1.604533   -0.965541
      2          6           0       -4.232949    2.088518   -1.047462
      3          6           0       -1.336315   -1.238963   -3.019673
      4          6           0       -3.184370   -4.757839   -0.132663
      5          6           0       -6.444215   -1.436740    1.669117
      6          7           0       -2.969714    0.186361   -1.716332
      7          6           0       -3.226934    1.514430   -1.807453
      8          6           0       -2.223661    2.318354   -2.616777
      9          6           0       -1.642496    1.228253   -3.499810
     10          6           0       -1.998547   -0.048948   -2.666271
     11          6           0       -2.063744    1.186883   -4.999797
     12          6           0       -1.155449    3.032780   -1.624415
     13          6           0       -0.748454    4.447996   -1.945202
     14          6           0        0.111920    5.225134   -0.975855
     15          8           0       -0.295412    6.169496   -0.336820
     16          8           0        1.417483    4.837939   -1.024216
     17          7           0       -2.464376   -2.879753   -1.573978
     18          6           0       -1.491294   -2.537176   -2.428675
     19          6           0       -0.698326   -3.790486   -2.614290
     20          6           0       -1.276579   -4.811456   -1.877693
     21          6           0       -2.365734   -4.186062   -1.183919
     22          6           0        0.536978   -3.877217   -3.513295
     23          6           0       -0.693057   -6.203899   -1.687930
     24          8           0        0.250932   -6.458176   -2.418052
     25          6           0       -1.252095   -7.318704   -0.760214
     26          7           0       -4.727787   -2.866350    0.614298
     27          6           0       -4.331561   -4.178160    0.587627
     28          6           0       -5.055966   -4.935007    1.742808
     29          6           0       -6.123049   -3.891833    2.274724
     30          6           0       -5.875055   -2.645550    1.440332
     31          6           0       -5.676859   -6.253562    1.322589
     32          6           0       -6.203374   -3.623349    3.855337
     33          6           0       -7.595699   -3.805871    4.513637
     34          7           0       -5.146662    0.018421    0.100622
     35          6           0       -6.055216   -0.153548    1.117868
     36          6           0       -6.624382    1.119957    1.443393
     37          6           0       -6.017002    2.011263    0.540854
     38          6           0       -5.017749    1.288961   -0.130956
     39          6           0       -7.594597    1.464696    2.527924
     40          6           0       -5.923209    3.413944    0.113709
     41          8           0       -6.588349    4.375075    0.461008
     42          6           0       -4.827386    3.446395   -0.955374
     43          6           0       -3.990719    4.619197   -0.761072
     44          8           0       -3.230399    4.765031    0.195453
     45          8           0       -4.257169    5.592958   -1.712689
     46          6           0       -3.810101    6.921541   -1.349900
     47          6           0        2.300121    5.346450    0.089053
     48          6           0        3.028267    4.114925    0.673177
     49          6           0        4.238311    4.160846    1.306036
     50          6           0        4.931445    5.381251    1.983794
     51          6           0        4.670341    2.753351    1.751835
     52          6           0        4.022043    2.240794    3.105592
     53          6           0        5.094557    1.772483    4.176341
     54          6           0        5.404868    0.259929    4.060820
     55          6           0        4.497716   -0.602802    4.997549
     56          6           0        6.845305    0.026834    4.366329
     57          6           0        7.663685    0.234288    3.050796
     58          6           0        7.857307   -1.052906    2.202335
     59          6           0        7.763568   -0.886620    0.676627
     60          6           0        6.400481   -1.012769    0.182010
     61          6           0        8.775080   -1.798458   -0.026481
     62          6           0        9.969946   -1.112451   -0.588443
     63          6           0       11.011380   -2.183682   -1.125041
     64          6           0       12.061035   -1.557869   -2.075164
     65          6           0       12.408625   -2.406923   -3.334114
     66          6           0       13.319710   -1.473367   -1.238952
     67          1           0       -0.482493   -1.086991   -3.682014
     68          1           0       -3.047883   -5.830056    0.020200
     69          1           0       -7.217666   -1.470129    2.439406
     70          1           0       -2.630269    3.102506   -3.254500
     71          1           0       -0.555784    1.208698   -3.573102
     72          1           0       -1.214642    1.508600   -5.601166
     73          1           0       -2.883931    1.887306   -5.157652
     74          1           0       -2.475655    0.233570   -5.330291
     75          1           0       -0.271668    2.413337   -1.775829
     76          1           0       -1.471843    2.860955   -0.595051
     77          1           0       -1.593246    5.102599   -2.156519
     78          1           0       -0.280246    4.331635   -2.922270
     79          1           0        0.507168   -4.806928   -4.081402
     80          1           0        1.425830   -3.896625   -2.882746
     81          1           0        0.689702   -3.012952   -4.160193
     82          1           0       -1.203852   -7.164877    0.318397
     83          1           0       -0.766826   -8.262575   -1.008172
     84          1           0       -2.283978   -7.583685   -0.992523
     85          1           0       -4.334626   -5.171318    2.524810
     86          1           0       -7.100913   -4.210870    1.914749
     87          1           0       -4.967699   -7.071455    1.448968
     88          1           0       -5.802285   -6.206659    0.240497
     89          1           0       -6.702072   -6.416915    1.654818
     90          1           0       -5.854044   -2.655814    4.215970
     91          1           0       -5.532969   -4.392881    4.238230
     92          1           0       -7.742835   -2.739825    4.685224
     93          1           0       -7.621037   -4.341657    5.462395
     94          1           0       -8.275325   -4.113142    3.718728
     95          1           0       -8.179215    2.356970    2.304963
     96          1           0       -6.885242    1.608764    3.343452
     97          1           0       -8.224184    0.586633    2.671489
     98          1           0       -5.415766    3.560796   -1.866528
     99          1           0       -2.755129    6.964097   -1.621068
    100          1           0       -3.873150    7.185354   -0.294446
    101          1           0       -4.400170    7.603778   -1.961572
    102          1           0        1.781661    5.845417    0.908512
    103          1           0        2.900018    6.166654   -0.305463
    104          1           0        2.576850    3.154914    0.421317
    105          1           0        5.437342    5.077788    2.901181
    106          1           0        4.123553    6.089909    2.164987
    107          1           0        5.607782    5.839761    1.261804
    108          1           0        5.727545    2.921779    1.957356
    109          1           0        4.518161    2.024888    0.954613
    110          1           0        3.412678    1.408945    2.751494
    111          1           0        3.288348    2.926588    3.530113
    112          1           0        4.597459    1.958137    5.128175
    113          1           0        5.997664    2.382243    4.142633
    114          1           0        5.171911   -0.134153    3.071398
    115          1           0        4.197390   -1.467616    4.405644
    116          1           0        3.518884   -0.134813    5.102692
    117          1           0        5.023890   -0.869623    5.913835
    118          1           0        6.978122   -1.001162    4.702727
    119          1           0        7.229747    0.709741    5.124671
    120          1           0        8.616516    0.593535    3.438727
    121          1           0        7.206860    1.009504    2.436081
    122          1           0        7.257211   -1.831731    2.673335
    123          1           0        8.895584   -1.363769    2.316038
    124          1           0        8.086833    0.108544    0.375508
    125          1           0        5.696318   -0.676627    0.942639
    126          1           0        6.118737   -1.950478   -0.297428
    127          1           0        6.450700   -0.309900   -0.649726
    128          1           0        8.210311   -2.129253   -0.898685
    129          1           0        9.050671   -2.724244    0.479117
    130          1           0       10.402507   -0.402198    0.115993
    131          1           0        9.674966   -0.432079   -1.386403
    132          1           0       10.463150   -2.949910   -1.672658
    133          1           0       11.449069   -2.629132   -0.231953
    134          1           0       11.828359   -0.536729   -2.377047
    135          1           0       11.455088   -2.696183   -3.775547
    136          1           0       12.928229   -3.338978   -3.108431
    137          1           0       12.974624   -1.745548   -3.989648
    138          1           0       13.097102   -1.298347   -0.186109
    139          1           0       13.825934   -0.571797   -1.586131
    140          1           0       13.939770   -2.342676   -1.455785
 ---------------------------------------------------------------------

 SCF Done:  E(RZINDO/S) =  -474.295750351     A.U. after   19 cycles

 Excitation energies and oscillator strengths:

 Excited State   1:      Singlet-A      1.2887 eV  962.09 nm  f=0.5400  <S**2>=0.000
     175 ->178         0.14267
     176 ->177         0.67447
 This state for optimization and/or second-order correction.
 Total Energy, E(CIS/TDA) =  -474.248391561
 Copying the excited state density for this state as the 1-particle RhoCI density.

 Excited State   2:      Singlet-A      1.9215 eV  645.25 nm  f=0.0624  <S**2>=0.000
     175 ->177         0.56024
     176 ->178        -0.38157

 Excited State   3:      Singlet-A      2.7987 eV  443.00 nm  f=0.0062  <S**2>=0.000
     176 ->179        -0.30032
     176 ->180         0.63380

 Excited State   4:      Singlet-A      2.9120 eV  425.77 nm  f=0.0001  <S**2>=0.000
     167 ->177        -0.22411
     167 ->178         0.18497
     167 ->179         0.36196
     167 ->180         0.13402
     167 ->181        -0.17985
     167 ->185        -0.13270
     168 ->177        -0.18122
     168 ->178         0.13310
     168 ->179         0.25528
     168 ->181        -0.12301

 Excited State   5:      Singlet-A      3.0054 eV  412.53 nm  f=0.6535  <S**2>=0.000
     171 ->177         0.10543
     171 ->181         0.15580
     174 ->177        -0.27752
     175 ->177         0.29421
     176 ->178         0.47198

 The electronic state is 1-A.
 Alpha  occ. eigenvalues --   -1.84701  -1.82121  -1.78380  -1.72758  -1.71884
 Alpha  occ. eigenvalues --   -1.70211  -1.67948  -1.62110  -1.60849  -1.58525
 Alpha  occ. eigenvalues --   -1.56248  -1.51395  -1.47529  -1.47037  -1.45931
 Alpha  occ. eigenvalues --   -1.44669  -1.42769  -1.40234  -1.38481  -1.38374
 Alpha  occ. eigenvalues --   -1.36144  -1.33528  -1.32875  -1.32256  -1.27958
 Alpha  occ. eigenvalues --   -1.27673  -1.26373  -1.22059  -1.19876  -1.18197
 Alpha  occ. eigenvalues --   -1.17238  -1.15541  -1.15028  -1.14589  -1.13758
 Alpha  occ. eigenvalues --   -1.11899  -1.11384  -1.10070  -1.03970  -1.02972
 Alpha  occ. eigenvalues --   -1.00769  -1.00555  -0.98426  -0.97441  -0.96668
 Alpha  occ. eigenvalues --   -0.95236  -0.94483  -0.93986  -0.92354  -0.92332
 Alpha  occ. eigenvalues --   -0.91026  -0.90595  -0.88623  -0.88170  -0.86586
 Alpha  occ. eigenvalues --   -0.85737  -0.84190  -0.83586  -0.82608  -0.79906
 Alpha  occ. eigenvalues --   -0.79260  -0.78211  -0.77646  -0.76696  -0.76476
 Alpha  occ. eigenvalues --   -0.76189  -0.74525  -0.73988  -0.73809  -0.73142
 Alpha  occ. eigenvalues --   -0.72440  -0.71937  -0.71466  -0.70889  -0.70596
 Alpha  occ. eigenvalues --   -0.70425  -0.69753  -0.69500  -0.68836  -0.68676
 Alpha  occ. eigenvalues --   -0.68427  -0.66692  -0.66264  -0.65929  -0.65452
 Alpha  occ. eigenvalues --   -0.65041  -0.64178  -0.64019  -0.63913  -0.63710
 Alpha  occ. eigenvalues --   -0.62878  -0.62717  -0.62572  -0.62297  -0.61797
 Alpha  occ. eigenvalues --   -0.61347  -0.61307  -0.60842  -0.60095  -0.59825
 Alpha  occ. eigenvalues --   -0.59241  -0.58933  -0.58744  -0.58281  -0.58248
 Alpha  occ. eigenvalues --   -0.57657  -0.57199  -0.57131  -0.57073  -0.56567
 Alpha  occ. eigenvalues --   -0.56342  -0.56042  -0.55654  -0.55185  -0.54481
 Alpha  occ. eigenvalues --   -0.54224  -0.53367  -0.53332  -0.52676  -0.52516
 Alpha  occ. eigenvalues --   -0.52451  -0.52216  -0.52006  -0.51888  -0.51465
 Alpha  occ. eigenvalues --   -0.51225  -0.50706  -0.49959  -0.49823  -0.49710
 Alpha  occ. eigenvalues --   -0.49592  -0.49476  -0.49406  -0.48978  -0.48837
 Alpha  occ. eigenvalues --   -0.48348  -0.48270  -0.47714  -0.47510  -0.47415
 Alpha  occ. eigenvalues --   -0.47172  -0.47062  -0.46982  -0.46628  -0.46413
 Alpha  occ. eigenvalues --   -0.46253  -0.45971  -0.45708  -0.45669  -0.45485
 Alpha  occ. eigenvalues --   -0.45017  -0.44867  -0.44210  -0.44088  -0.43702
 Alpha  occ. eigenvalues --   -0.43301  -0.42674  -0.42518  -0.42506  -0.41558
 Alpha  occ. eigenvalues --   -0.41180  -0.40879  -0.40428  -0.39058  -0.37663
 Alpha  occ. eigenvalues --   -0.37436  -0.36986  -0.36247  -0.35306  -0.34281
 Alpha  occ. eigenvalues --   -0.33633  -0.32472  -0.31461  -0.30702  -0.27061
 Alpha  occ. eigenvalues --   -0.22128
 Alpha virt. eigenvalues --   -0.08763  -0.02129  -0.00614  -0.00294   0.01552
 Alpha virt. eigenvalues --    0.02718   0.03195   0.03298   0.04058   0.04388
 Alpha virt. eigenvalues --    0.05753   0.06508   0.06877   0.07565   0.07962

 Mulliken charges:
               1
     1  Mg   0.439488
     2  C   -0.040786
     3  C   -0.097562
     4  C   -0.111561
     5  C   -0.038560
     6  N   -0.281748
     7  C    0.106873
     8  C    0.002887
     9  C    0.000020
    10  C    0.166051
    11  C   -0.049294
    12  C   -0.018020
    13  C    0.012176
    14  C    0.477093
    15  O   -0.502990
    16  O   -0.280569
    17  N   -0.317037
    18  C    0.144401
    19  C    0.062881
    20  C   -0.028211
    21  C    0.143993
    22  C   -0.038913
    23  C    0.328077
    24  O   -0.505831
    25  C   -0.028884
    26  N   -0.274416
    27  C    0.160701
    28  C    0.011713
    29  C   -0.001944
    30  C    0.060381
    31  C   -0.054355
    32  C   -0.034296
    33  C   -0.071535
    34  N   -0.308986
    35  C    0.041393
    36  C    0.020065
    37  C   -0.088496
    38  C    0.101131
    39  C   -0.042046
    40  C    0.336848
    41  O   -0.532067
    42  C    0.072484
    43  C    0.492143
    44  O   -0.520470
    45  O   -0.276139
    46  C    0.076664
    47  C    0.095957
    48  C   -0.078558
    49  C   -0.030960
    50  C   -0.037682
    51  C   -0.031486
    52  C   -0.039578
    53  C   -0.032066
    54  C   -0.008644
    55  C   -0.068130
    56  C   -0.031469
    57  C   -0.045250
    58  C   -0.038026
    59  C   -0.000741
    60  C   -0.053842
    61  C   -0.032895
    62  C   -0.034466
    63  C   -0.035122
    64  C   -0.018156
    65  C   -0.056694
    66  C   -0.059377
    67  H    0.031121
    68  H    0.030034
    69  H    0.029195
    70  H    0.028727
    71  H    0.024595
    72  H    0.025024
    73  H    0.018067
    74  H    0.026947
    75  H    0.013276
    76  H    0.043960
    77  H    0.038736
    78  H    0.025990
    79  H    0.047602
    80  H    0.037979
    81  H    0.019670
    82  H    0.043795
    83  H    0.033347
    84  H    0.032702
    85  H    0.033906
    86  H    0.027892
    87  H    0.021852
    88  H    0.008878
    89  H    0.031733
    90  H    0.034045
    91  H    0.007564
    92  H    0.019045
    93  H    0.035090
    94  H    0.027202
    95  H    0.040595
    96  H    0.040396
    97  H    0.021022
    98  H    0.048857
    99  H    0.039123
   100  H    0.058252
   101  H    0.028945
   102  H    0.057830
   103  H    0.045541
   104  H    0.043254
   105  H    0.034267
   106  H    0.027444
   107  H    0.031838
   108  H    0.012200
   109  H    0.028165
   110  H    0.015511
   111  H    0.025535
   112  H    0.015193
   113  H    0.025338
   114  H    0.023215
   115  H    0.010502
   116  H    0.017762
   117  H    0.031292
   118  H    0.014371
   119  H    0.019388
   120  H    0.010845
   121  H    0.023101
   122  H    0.026963
   123  H    0.006652
   124  H    0.019036
   125  H    0.020715
   126  H    0.023422
   127  H    0.007822
   128  H    0.004125
   129  H    0.023722
   130  H    0.016530
   131  H    0.013901
   132  H    0.015245
   133  H    0.024945
   134  H    0.026391
   135  H    0.010871
   136  H    0.025520
   137  H    0.021897
   138  H    0.019013
   139  H    0.004145
   140  H    0.025769
 Sum of Mulliken charges =  -0.00000

 Dipole moment (field-independent basis, Debye):
    X=              1.8697    Y=             -8.9795    Z=             -4.1002  Tot=             10.0468
 N-N= 4.472868300542D+03 E-N= 0.000000000000D+00  KE=-9.620584609872D+03
 Leave Link  601 at Wed May  4 08:33:14 2022, MaxMem=  6710886400 cpu:               0.7 elap:               0.0
 (Enter /sw/apps/gaussian-16.0/g16/l9999.exe)
 1\1\GINC-BP1-COMPUTE097\SP\RZINDO CIS\STO-3G\C55H74Mg1N4O6\OF15641\04-
 May-2022\0\\#p ZINDO=(nstates=5)\\step_1501_chromophore_20 ZINDO\\0,1\
 Mg,0,6.117,57.172,42.005\C,0,5.119,53.629,41.638\C,0,9.036,56.225,40.5
 11\C,0,6.66,60.438,41.37\C,0,2.713,57.792,42.894\N,0,6.786,55.249,41.1
 3\C,0,6.389,53.954,41.19\C,0,7.336,52.952,40.552\C,0,8.641,53.726,40.6
 13\C,0,8.109,55.193,40.746\C,0,9.705,53.302,41.67\C,0,6.83,52.587,39.0
 53\C,0,6.921,51.146,38.621\C,0,6.318,50.712,37.305\O,0,5.339,50.004,37

 Normal termination of Gaussian 16 at Wed May  4 08:33:14 2022.
