 Gaussian 16, Revision A.03,
 Gaussian 16:  ES64L-G16RevA.03 25-Dec-2016

 ------------------------------
 #p blyp/Def2SVP td=(nstates=5)
 ------------------------------

 --------------------------------------------------
 step_901_chromophore_23 TDDFT with blyp functional
 --------------------------------------------------
 Symbolic Z-matrix:
 Charge =  0 Multiplicity = 1

                         Standard orientation:
 ---------------------------------------------------------------------
 Center     Atomic      Atomic             Coordinates (Angstroms)
 Number     Number       Type             X           Y           Z
 ---------------------------------------------------------------------
      1         12           0        4.774161    0.136352   -0.174905
      2          6           0        2.566412   -2.515239   -0.354355
      3          6           0        2.777449    1.837002   -2.476021
      4          6           0        6.615349    2.896495    0.313761
      5          6           0        6.172587   -1.287930    2.666795
      6          7           0        2.761680   -0.255474   -1.196768
      7          6           0        2.079111   -1.464667   -1.145025
      8          6           0        0.724814   -1.415691   -1.945831
      9          6           0        0.957799   -0.101789   -2.727840
     10          6           0        2.271807    0.570198   -2.145978
     11          6           0        1.055809   -0.263655   -4.303057
     12          6           0       -0.585339   -1.717178   -1.200607
     13          6           0       -1.217108   -3.138896   -1.388177
     14          6           0       -2.554428   -3.260061   -2.109805
     15          8           0       -2.751470   -3.161392   -3.334855
     16          8           0       -3.491991   -3.783060   -1.202687
     17          7           0        4.877210    2.090276   -1.172830
     18          6           0        3.958064    2.511981   -2.057971
     19          6           0        4.349039    3.820573   -2.453468
     20          6           0        5.532620    4.178012   -1.662873
     21          6           0        5.701493    3.089729   -0.787421
     22          6           0        3.628158    4.593733   -3.466516
     23          6           0        6.329673    5.519211   -1.760287
     24          8           0        6.069242    6.321032   -2.645011
     25          6           0        7.619758    5.704812   -0.872880
     26          7           0        6.217193    0.716116    1.306508
     27          6           0        6.837389    1.888718    1.265934
     28          6           0        7.903745    1.937363    2.288449
     29          6           0        7.677267    0.663227    3.153364
     30          6           0        6.666739   -0.038359    2.318286
     31          6           0        9.338239    1.988516    1.744546
     32          6           0        7.174124    0.987079    4.609131
     33          6           0        7.612296   -0.026929    5.719221
     34          7           0        4.571918   -1.539840    0.916888
     35          6           0        5.291557   -2.076809    1.971571
     36          6           0        4.891188   -3.422692    2.204799
     37          6           0        3.846370   -3.618105    1.307538
     38          6           0        3.677134   -2.434005    0.538763
     39          6           0        5.389026   -4.315091    3.326732
     40          6           0        2.873990   -4.602295    0.841577
     41          8           0        2.819256   -5.795567    1.188188
     42          6           0        2.009995   -3.925183   -0.310776
     43          6           0        2.264253   -4.742377   -1.519830
     44          8           0        3.113129   -4.528337   -2.384571
     45          8           0        1.268014   -5.653211   -1.630974
     46          6           0        0.959791   -6.147408   -2.938137
     47          6           0       -4.891244   -3.758792   -1.667663
     48          6           0       -5.819107   -3.223070   -0.584662
     49          6           0       -6.021040   -1.965269   -0.163961
     50          6           0       -5.214656   -0.687116   -0.465953
     51          6           0       -7.220135   -1.650463    0.783309
     52          6           0       -8.474462   -1.112705    0.054519
     53          6           0       -9.845438   -1.845818    0.428426
     54          6           0      -10.907464   -0.786510    0.894836
     55          6           0      -12.282050   -1.420389    0.966740
     56          6           0      -10.656897   -0.117015    2.283577
     57          6           0      -10.535490    1.469568    2.273358
     58          6           0       -9.452958    2.139678    3.232023
     59          6           0       -8.152696    2.776644    2.571990
     60          6           0       -6.826542    2.518631    3.284138
     61          6           0       -8.311035    4.245109    2.081738
     62          6           0       -8.169603    4.384098    0.577151
     63          6           0       -6.800075    5.099237    0.285255
     64          6           0       -6.136932    4.662850   -1.053320
     65          6           0       -4.565355    4.501411   -0.933577
     66          6           0       -6.667319    5.512863   -2.208480
     67          1           0        2.170895    2.317638   -3.246690
     68          1           0        7.203322    3.712427    0.737886
     69          1           0        6.538640   -1.763210    3.578591
     70          1           0        0.964647   -2.246938   -2.608904
     71          1           0        0.122682    0.581008   -2.569593
     72          1           0        1.024051   -1.318464   -4.575606
     73          1           0        1.945831    0.275036   -4.626240
     74          1           0        0.228342    0.206678   -4.833943
     75          1           0       -1.394040   -1.113654   -1.612679
     76          1           0       -0.374716   -1.502226   -0.152853
     77          1           0       -1.297295   -3.557247   -0.385613
     78          1           0       -0.575495   -3.760054   -2.013341
     79          1           0        3.145640    5.394515   -2.905393
     80          1           0        3.016621    3.947073   -4.095584
     81          1           0        4.281349    5.046210   -4.212161
     82          1           0        8.229110    4.807525   -0.766288
     83          1           0        7.220901    5.938271    0.113833
     84          1           0        8.193919    6.542146   -1.270609
     85          1           0        7.692721    2.850660    2.844457
     86          1           0        8.522325    0.013210    3.384533
     87          1           0        9.852282    2.891112    2.074924
     88          1           0        9.326921    1.997011    0.654833
     89          1           0        9.906359    1.125521    2.091625
     90          1           0        6.108121    0.863482    4.417433
     91          1           0        7.456051    2.032661    4.736742
     92          1           0        8.031029    0.460524    6.599404
     93          1           0        8.420750   -0.690373    5.413070
     94          1           0        6.758256   -0.666634    5.943216
     95          1           0        6.443716   -4.577558    3.248217
     96          1           0        4.801032   -5.191941    3.597792
     97          1           0        5.334844   -3.658203    4.194984
     98          1           0        0.957044   -4.009219   -0.044098
     99          1           0        1.791255   -6.849346   -2.999890
    100          1           0        1.030219   -5.370980   -3.699978
    101          1           0        0.039192   -6.731064   -2.933099
    102          1           0       -5.219943   -4.796007   -1.741651
    103          1           0       -5.009981   -3.373324   -2.679959
    104          1           0       -6.584366   -3.909112   -0.219567
    105          1           0       -4.251233   -1.038213   -0.836845
    106          1           0       -5.086599   -0.180323    0.491264
    107          1           0       -5.693828   -0.082001   -1.235368
    108          1           0       -6.746667   -0.930501    1.451537
    109          1           0       -7.522803   -2.524046    1.361119
    110          1           0       -8.381707   -1.149093   -1.031256
    111          1           0       -8.525531   -0.047243    0.282178
    112          1           0       -9.801892   -2.663227    1.147145
    113          1           0      -10.276327   -2.209389   -0.504518
    114          1           0      -10.897826   -0.040574    0.099742
    115          1           0      -12.249616   -2.496181    0.794651
    116          1           0      -12.861932   -1.048109    0.121387
    117          1           0      -12.923215   -1.285979    1.838162
    118          1           0       -9.754141   -0.635881    2.604525
    119          1           0      -11.363482   -0.475894    3.031953
    120          1           0      -11.541310    1.623842    2.664186
    121          1           0      -10.477252    1.888682    1.269172
    122          1           0       -9.122024    1.442970    4.002560
    123          1           0      -10.031931    2.952470    3.670068
    124          1           0       -8.014098    2.133795    1.702392
    125          1           0       -6.128466    3.354975    3.298323
    126          1           0       -6.359811    1.632132    2.853722
    127          1           0       -7.053881    2.265684    4.319475
    128          1           0       -7.521462    4.821480    2.563222
    129          1           0       -9.291563    4.553469    2.444510
    130          1           0       -8.990183    5.029075    0.260235
    131          1           0       -8.290202    3.451610    0.025042
    132          1           0       -6.014804    4.987181    1.032887
    133          1           0       -7.060753    6.150263    0.160864
    134          1           0       -6.403351    3.642331   -1.330241
    135          1           0       -4.234542    3.474971   -1.089410
    136          1           0       -4.070316    4.955686   -0.075108
    137          1           0       -4.145245    4.962692   -1.827912
    138          1           0       -5.804719    5.996145   -2.667481
    139          1           0       -7.352344    6.324053   -1.963596
    140          1           0       -7.226578    4.845075   -2.863192
 ---------------------------------------------------------------------

 SCF Done:  E(RB-LYP) =  -3007.33494745     A.U. after   21 cycles

 Excitation energies and oscillator strengths:

 Excited State   1:      Singlet-A      1.8533 eV  668.97 nm  f=0.2671  <S**2>=0.000
     243 -> 247        0.13226
     244 -> 247        0.10476
     245 -> 248       -0.18878
     246 -> 247        0.66612
     246 <- 247       -0.14061
 This state for optimization and/or second-order correction.
 Total Energy, E(TD-HF/TD-DFT) =  -3007.26683814
 Copying the excited state density for this state as the 1-particle RhoCI density.

 Excited State   2:      Singlet-A      1.8723 eV  662.22 nm  f=0.0042  <S**2>=0.000
     243 -> 247       -0.13171
     244 -> 247        0.66815
     245 -> 247       -0.17472

 Excited State   3:      Singlet-A      1.9282 eV  642.99 nm  f=0.0486  <S**2>=0.000
     243 -> 247        0.54377
     244 -> 247        0.18869
     245 -> 247        0.35751
     246 -> 247       -0.15715

 Excited State   4:      Singlet-A      2.0725 eV  598.24 nm  f=0.0536  <S**2>=0.000
     242 -> 247       -0.18326
     243 -> 247       -0.40254
     245 -> 247        0.50059
     246 -> 248        0.20483

 Excited State   5:      Singlet-A      2.2754 eV  544.90 nm  f=0.0207  <S**2>=0.000
     242 -> 247        0.66675
     245 -> 247        0.14177
     246 -> 248        0.13948

 The electronic state is 1-A.
 Alpha  occ. eigenvalues --  -46.27845 -18.82315 -18.81743 -18.77830 -18.76827
 Alpha  occ. eigenvalues --  -18.75910 -18.75709 -14.03424 -14.02896 -14.00974
 Alpha  occ. eigenvalues --  -14.00570 -10.04879 -10.04090 -10.00239  -9.99973
 Alpha  occ. eigenvalues --   -9.97803  -9.97754  -9.97038  -9.96866  -9.96150
 Alpha  occ. eigenvalues --   -9.96061  -9.95936  -9.95207  -9.95178  -9.94919
 Alpha  occ. eigenvalues --   -9.94572  -9.94559  -9.94494  -9.94320  -9.94175
 Alpha  occ. eigenvalues --   -9.94078  -9.93837  -9.93714  -9.93516  -9.93441
 Alpha  occ. eigenvalues --   -9.93254  -9.93217  -9.93020  -9.92946  -9.92931
 Alpha  occ. eigenvalues --   -9.92848  -9.92748  -9.92644  -9.92460  -9.92434
 Alpha  occ. eigenvalues --   -9.92252  -9.92247  -9.92169  -9.92162  -9.92072
 Alpha  occ. eigenvalues --   -9.92031  -9.92010  -9.91950  -9.91877  -9.91784
 Alpha  occ. eigenvalues --   -9.91619  -9.91312  -9.91301  -9.91214  -9.91182
 Alpha  occ. eigenvalues --   -9.91178  -9.91137  -9.90900  -9.90816  -9.90748
 Alpha  occ. eigenvalues --   -9.90438  -2.92358  -1.72783  -1.72247  -1.72066
 Alpha  occ. eigenvalues --   -0.98613  -0.96758  -0.91296  -0.90408  -0.89919
 Alpha  occ. eigenvalues --   -0.89532  -0.88139  -0.86956  -0.86283  -0.85162
 Alpha  occ. eigenvalues --   -0.75686  -0.73354  -0.73049  -0.72977  -0.72662
 Alpha  occ. eigenvalues --   -0.72528  -0.71839  -0.70938  -0.70652  -0.70600
 Alpha  occ. eigenvalues --   -0.69306  -0.69067  -0.68436  -0.67794  -0.67363
 Alpha  occ. eigenvalues --   -0.66578  -0.66149  -0.65604  -0.65149  -0.64415
 Alpha  occ. eigenvalues --   -0.64200  -0.62723  -0.62427  -0.61736  -0.60954
 Alpha  occ. eigenvalues --   -0.60469  -0.60425  -0.60192  -0.59625  -0.58773
 Alpha  occ. eigenvalues --   -0.58737  -0.58329  -0.56971  -0.56380  -0.55464
 Alpha  occ. eigenvalues --   -0.54124  -0.53768  -0.52704  -0.52563  -0.52326
 Alpha  occ. eigenvalues --   -0.51765  -0.51275  -0.51033  -0.50788  -0.49656
 Alpha  occ. eigenvalues --   -0.49584  -0.49389  -0.48730  -0.48434  -0.46643
 Alpha  occ. eigenvalues --   -0.46156  -0.45935  -0.45862  -0.45518  -0.45136
 Alpha  occ. eigenvalues --   -0.44563  -0.43909  -0.43329  -0.43217  -0.42843
 Alpha  occ. eigenvalues --   -0.42147  -0.42046  -0.41620  -0.41446  -0.41347
 Alpha  occ. eigenvalues --   -0.41234  -0.40762  -0.40608  -0.40279  -0.40050
 Alpha  occ. eigenvalues --   -0.40014  -0.39693  -0.39473  -0.39336  -0.38933
 Alpha  occ. eigenvalues --   -0.38917  -0.38704  -0.38561  -0.38436  -0.38196
 Alpha  occ. eigenvalues --   -0.38031  -0.38008  -0.37942  -0.37703  -0.37250
 Alpha  occ. eigenvalues --   -0.37232  -0.37130  -0.36798  -0.36610  -0.36456
 Alpha  occ. eigenvalues --   -0.36313  -0.36242  -0.36017  -0.35811  -0.35735
 Alpha  occ. eigenvalues --   -0.35668  -0.35209  -0.35063  -0.34856  -0.34776
 Alpha  occ. eigenvalues --   -0.34597  -0.34518  -0.34440  -0.34307  -0.34223
 Alpha  occ. eigenvalues --   -0.34006  -0.33885  -0.33781  -0.33665  -0.33560
 Alpha  occ. eigenvalues --   -0.33373  -0.33187  -0.33016  -0.32734  -0.32645
 Alpha  occ. eigenvalues --   -0.32314  -0.32054  -0.31885  -0.31636  -0.31419
 Alpha  occ. eigenvalues --   -0.31322  -0.31250  -0.31106  -0.30885  -0.30797
 Alpha  occ. eigenvalues --   -0.30418  -0.30314  -0.30284  -0.30104  -0.30049
 Alpha  occ. eigenvalues --   -0.29877  -0.29833  -0.29408  -0.29321  -0.29195
 Alpha  occ. eigenvalues --   -0.29055  -0.28930  -0.28572  -0.28533  -0.28446
 Alpha  occ. eigenvalues --   -0.27659  -0.27553  -0.27018  -0.26614  -0.26479
 Alpha  occ. eigenvalues --   -0.26428  -0.25951  -0.25453  -0.25264  -0.24929
 Alpha  occ. eigenvalues --   -0.24332  -0.24257  -0.24145  -0.24031  -0.23544
 Alpha  occ. eigenvalues --   -0.23431  -0.22979  -0.22237  -0.21979  -0.21181
 Alpha  occ. eigenvalues --   -0.20988  -0.19445  -0.18805  -0.18558  -0.17428
 Alpha  occ. eigenvalues --   -0.16161
 Alpha virt. eigenvalues --   -0.11724  -0.06859  -0.06270  -0.04736  -0.04505
 Alpha virt. eigenvalues --   -0.03056  -0.02985  -0.02514  -0.01417  -0.00103
 Alpha virt. eigenvalues --    0.00169   0.00763   0.01411   0.02466   0.02528

 Mulliken charges:
               1
     1  Mg   0.687916
     2  C    0.004872
     3  C   -0.058146
     4  C   -0.019606
     5  C   -0.106392
     6  N   -0.213372
     7  C   -0.151548
     8  C    0.099090
     9  C   -0.042521
    10  C    0.025482
    11  C    0.113348
    12  C    0.161827
    13  C    0.096765
    14  C    0.079127
    15  O   -0.202102
    16  O   -0.283285
    17  N   -0.241257
    18  C    0.143949
    19  C   -0.163344
    20  C    0.028117
    21  C    0.123050
    22  C    0.193918
    23  C   -0.065825
    24  O   -0.157500
    25  C    0.109318
    26  N   -0.182725
    27  C   -0.096587
    28  C    0.046177
    29  C   -0.019307
    30  C    0.055176
    31  C    0.147861
    32  C    0.079945
    33  C    0.069341
    34  N   -0.277377
    35  C    0.123560
    36  C   -0.165912
    37  C    0.103809
    38  C    0.121064
    39  C    0.173424
    40  C   -0.069049
    41  O   -0.149328
    42  C    0.035590
    43  C    0.124428
    44  O   -0.189186
    45  O   -0.263460
    46  C    0.227157
    47  C    0.327874
    48  C   -0.081217
    49  C   -0.192428
    50  C    0.145580
    51  C    0.115789
    52  C    0.085690
    53  C    0.093999
    54  C   -0.118983
    55  C    0.115749
    56  C    0.100034
    57  C    0.060639
    58  C    0.117297
    59  C   -0.108043
    60  C    0.101021
    61  C    0.133300
    62  C    0.081161
    63  C    0.095062
    64  C   -0.112639
    65  C    0.092157
    66  C    0.108749
    67  H   -0.063407
    68  H   -0.074576
    69  H   -0.082508
    70  H   -0.026842
    71  H   -0.020662
    72  H    0.002293
    73  H   -0.005138
    74  H   -0.011308
    75  H   -0.007117
    76  H   -0.003242
    77  H    0.009543
    78  H    0.012829
    79  H    0.012653
    80  H   -0.018936
    81  H   -0.000178
    82  H    0.017543
    83  H    0.008244
    84  H   -0.003378
    85  H   -0.023506
    86  H   -0.028696
    87  H   -0.009325
    88  H   -0.005617
    89  H   -0.008607
    90  H   -0.015451
    91  H   -0.013408
    92  H   -0.002193
    93  H   -0.012459
    94  H    0.008854
    95  H   -0.002994
    96  H    0.008115
    97  H   -0.008046
    98  H    0.001221
    99  H    0.012893
   100  H    0.020881
   101  H    0.021592
   102  H   -0.025414
   103  H    0.011485
   104  H   -0.039947
   105  H   -0.013523
   106  H    0.003893
   107  H    0.015849
   108  H   -0.026093
   109  H   -0.024249
   110  H   -0.024362
   111  H   -0.015899
   112  H   -0.019920
   113  H   -0.030613
   114  H   -0.033308
   115  H   -0.031311
   116  H   -0.028806
   117  H   -0.015002
   118  H   -0.049939
   119  H   -0.031407
   120  H   -0.025918
   121  H   -0.016543
   122  H   -0.034381
   123  H   -0.031475
   124  H   -0.030866
   125  H   -0.013764
   126  H   -0.016954
   127  H   -0.026957
   128  H   -0.029664
   129  H   -0.044792
   130  H   -0.036663
   131  H   -0.022391
   132  H   -0.025879
   133  H   -0.025484
   134  H   -0.037466
   135  H   -0.017617
   136  H   -0.004138
   137  H   -0.038160
   138  H   -0.018121
   139  H   -0.018310
   140  H   -0.012233
 Sum of Mulliken charges =  -0.00000

 Dipole moment (field-independent basis, Debye):
    X=             -1.5388    Y=              1.1745    Z=              3.5047  Tot=              4.0037
 Quadrupole moment (field-independent basis, Debye-Ang):
   XX=           -363.5648   YY=           -448.8309   ZZ=           -405.0841
   XY=              0.7422   XZ=             32.7779   YZ=             16.8462

 Normal termination of Gaussian 16 at Thu May  5 14:26:39 2022.
