 Gaussian 16, Revision A.03,
 Gaussian 16:  ES64L-G16RevA.03 25-Dec-2016

 -----------------------------------
 #p cam-b3lyp/Def2SVP td=(nstates=5)
 -----------------------------------

 -------------------------------------------------------
 step_901_chromophore_23 TDDFT with cam-b3lyp functional
 -------------------------------------------------------
 Symbolic Z-matrix:
 Charge =  0 Multiplicity = 1

                         Standard orientation:
 ---------------------------------------------------------------------
 Center     Atomic      Atomic             Coordinates (Angstroms)
 Number     Number       Type             X           Y           Z
 ---------------------------------------------------------------------
      1         12           0        4.774161    0.136352   -0.174905
      2          6           0        2.566412   -2.515239   -0.354355
      3          6           0        2.777449    1.837002   -2.476021
      4          6           0        6.615349    2.896495    0.313761
      5          6           0        6.172587   -1.287930    2.666795
      6          7           0        2.761680   -0.255474   -1.196768
      7          6           0        2.079111   -1.464667   -1.145025
      8          6           0        0.724814   -1.415691   -1.945831
      9          6           0        0.957799   -0.101789   -2.727840
     10          6           0        2.271807    0.570198   -2.145978
     11          6           0        1.055809   -0.263655   -4.303057
     12          6           0       -0.585339   -1.717178   -1.200607
     13          6           0       -1.217108   -3.138896   -1.388177
     14          6           0       -2.554428   -3.260061   -2.109805
     15          8           0       -2.751470   -3.161392   -3.334855
     16          8           0       -3.491991   -3.783060   -1.202687
     17          7           0        4.877210    2.090276   -1.172830
     18          6           0        3.958064    2.511981   -2.057971
     19          6           0        4.349039    3.820573   -2.453468
     20          6           0        5.532620    4.178012   -1.662873
     21          6           0        5.701493    3.089729   -0.787421
     22          6           0        3.628158    4.593733   -3.466516
     23          6           0        6.329673    5.519211   -1.760287
     24          8           0        6.069242    6.321032   -2.645011
     25          6           0        7.619758    5.704812   -0.872880
     26          7           0        6.217193    0.716116    1.306508
     27          6           0        6.837389    1.888718    1.265934
     28          6           0        7.903745    1.937363    2.288449
     29          6           0        7.677267    0.663227    3.153364
     30          6           0        6.666739   -0.038359    2.318286
     31          6           0        9.338239    1.988516    1.744546
     32          6           0        7.174124    0.987079    4.609131
     33          6           0        7.612296   -0.026929    5.719221
     34          7           0        4.571918   -1.539840    0.916888
     35          6           0        5.291557   -2.076809    1.971571
     36          6           0        4.891188   -3.422692    2.204799
     37          6           0        3.846370   -3.618105    1.307538
     38          6           0        3.677134   -2.434005    0.538763
     39          6           0        5.389026   -4.315091    3.326732
     40          6           0        2.873990   -4.602295    0.841577
     41          8           0        2.819256   -5.795567    1.188188
     42          6           0        2.009995   -3.925183   -0.310776
     43          6           0        2.264253   -4.742377   -1.519830
     44          8           0        3.113129   -4.528337   -2.384571
     45          8           0        1.268014   -5.653211   -1.630974
     46          6           0        0.959791   -6.147408   -2.938137
     47          6           0       -4.891244   -3.758792   -1.667663
     48          6           0       -5.819107   -3.223070   -0.584662
     49          6           0       -6.021040   -1.965269   -0.163961
     50          6           0       -5.214656   -0.687116   -0.465953
     51          6           0       -7.220135   -1.650463    0.783309
     52          6           0       -8.474462   -1.112705    0.054519
     53          6           0       -9.845438   -1.845818    0.428426
     54          6           0      -10.907464   -0.786510    0.894836
     55          6           0      -12.282050   -1.420389    0.966740
     56          6           0      -10.656897   -0.117015    2.283577
     57          6           0      -10.535490    1.469568    2.273358
     58          6           0       -9.452958    2.139678    3.232023
     59          6           0       -8.152696    2.776644    2.571990
     60          6           0       -6.826542    2.518631    3.284138
     61          6           0       -8.311035    4.245109    2.081738
     62          6           0       -8.169603    4.384098    0.577151
     63          6           0       -6.800075    5.099237    0.285255
     64          6           0       -6.136932    4.662850   -1.053320
     65          6           0       -4.565355    4.501411   -0.933577
     66          6           0       -6.667319    5.512863   -2.208480
     67          1           0        2.170895    2.317638   -3.246690
     68          1           0        7.203322    3.712427    0.737886
     69          1           0        6.538640   -1.763210    3.578591
     70          1           0        0.964647   -2.246938   -2.608904
     71          1           0        0.122682    0.581008   -2.569593
     72          1           0        1.024051   -1.318464   -4.575606
     73          1           0        1.945831    0.275036   -4.626240
     74          1           0        0.228342    0.206678   -4.833943
     75          1           0       -1.394040   -1.113654   -1.612679
     76          1           0       -0.374716   -1.502226   -0.152853
     77          1           0       -1.297295   -3.557247   -0.385613
     78          1           0       -0.575495   -3.760054   -2.013341
     79          1           0        3.145640    5.394515   -2.905393
     80          1           0        3.016621    3.947073   -4.095584
     81          1           0        4.281349    5.046210   -4.212161
     82          1           0        8.229110    4.807525   -0.766288
     83          1           0        7.220901    5.938271    0.113833
     84          1           0        8.193919    6.542146   -1.270609
     85          1           0        7.692721    2.850660    2.844457
     86          1           0        8.522325    0.013210    3.384533
     87          1           0        9.852282    2.891112    2.074924
     88          1           0        9.326921    1.997011    0.654833
     89          1           0        9.906359    1.125521    2.091625
     90          1           0        6.108121    0.863482    4.417433
     91          1           0        7.456051    2.032661    4.736742
     92          1           0        8.031029    0.460524    6.599404
     93          1           0        8.420750   -0.690373    5.413070
     94          1           0        6.758256   -0.666634    5.943216
     95          1           0        6.443716   -4.577558    3.248217
     96          1           0        4.801032   -5.191941    3.597792
     97          1           0        5.334844   -3.658203    4.194984
     98          1           0        0.957044   -4.009219   -0.044098
     99          1           0        1.791255   -6.849346   -2.999890
    100          1           0        1.030219   -5.370980   -3.699978
    101          1           0        0.039192   -6.731064   -2.933099
    102          1           0       -5.219943   -4.796007   -1.741651
    103          1           0       -5.009981   -3.373324   -2.679959
    104          1           0       -6.584366   -3.909112   -0.219567
    105          1           0       -4.251233   -1.038213   -0.836845
    106          1           0       -5.086599   -0.180323    0.491264
    107          1           0       -5.693828   -0.082001   -1.235368
    108          1           0       -6.746667   -0.930501    1.451537
    109          1           0       -7.522803   -2.524046    1.361119
    110          1           0       -8.381707   -1.149093   -1.031256
    111          1           0       -8.525531   -0.047243    0.282178
    112          1           0       -9.801892   -2.663227    1.147145
    113          1           0      -10.276327   -2.209389   -0.504518
    114          1           0      -10.897826   -0.040574    0.099742
    115          1           0      -12.249616   -2.496181    0.794651
    116          1           0      -12.861932   -1.048109    0.121387
    117          1           0      -12.923215   -1.285979    1.838162
    118          1           0       -9.754141   -0.635881    2.604525
    119          1           0      -11.363482   -0.475894    3.031953
    120          1           0      -11.541310    1.623842    2.664186
    121          1           0      -10.477252    1.888682    1.269172
    122          1           0       -9.122024    1.442970    4.002560
    123          1           0      -10.031931    2.952470    3.670068
    124          1           0       -8.014098    2.133795    1.702392
    125          1           0       -6.128466    3.354975    3.298323
    126          1           0       -6.359811    1.632132    2.853722
    127          1           0       -7.053881    2.265684    4.319475
    128          1           0       -7.521462    4.821480    2.563222
    129          1           0       -9.291563    4.553469    2.444510
    130          1           0       -8.990183    5.029075    0.260235
    131          1           0       -8.290202    3.451610    0.025042
    132          1           0       -6.014804    4.987181    1.032887
    133          1           0       -7.060753    6.150263    0.160864
    134          1           0       -6.403351    3.642331   -1.330241
    135          1           0       -4.234542    3.474971   -1.089410
    136          1           0       -4.070316    4.955686   -0.075108
    137          1           0       -4.145245    4.962692   -1.827912
    138          1           0       -5.804719    5.996145   -2.667481
    139          1           0       -7.352344    6.324053   -1.963596
    140          1           0       -7.226578    4.845075   -2.863192
 ---------------------------------------------------------------------

 SCF Done:  E(RCAM-B3LYP) =  -3007.12419914     A.U. after   18 cycles

 Excitation energies and oscillator strengths:

 Excited State   1:      Singlet-A      1.7481 eV  709.24 nm  f=0.3768  <S**2>=0.000
     245 -> 248       -0.18575
     246 -> 247        0.68383
     245 <- 248       -0.10926
 This state for optimization and/or second-order correction.
 Total Energy, E(TD-HF/TD-DFT) =  -3007.05995618
 Copying the excited state density for this state as the 1-particle RhoCI density.

 Excited State   2:      Singlet-A      2.2448 eV  552.31 nm  f=0.1279  <S**2>=0.000
     245 -> 247        0.64209
     246 -> 248        0.27872

 Excited State   3:      Singlet-A      3.0454 eV  407.12 nm  f=0.0051  <S**2>=0.000
     244 -> 247        0.68431
     246 -> 248        0.10005

 Excited State   4:      Singlet-A      3.4217 eV  362.34 nm  f=0.0075  <S**2>=0.000
     239 -> 247        0.12670
     241 -> 247        0.52538
     241 -> 249        0.33325
     241 -> 251       -0.12684
     243 -> 247        0.13141
     246 -> 248       -0.11207

 Excited State   5:      Singlet-A      3.6159 eV  342.89 nm  f=0.1220  <S**2>=0.000
     241 -> 247       -0.14017
     243 -> 247        0.57776
     245 -> 247        0.10558
     246 -> 248       -0.31664

 The electronic state is 1-A.
 Alpha  occ. eigenvalues --  -46.89489 -19.25205 -19.24734 -19.20913 -19.20051
 Alpha  occ. eigenvalues --  -19.19197 -19.18926 -14.42307 -14.41795 -14.39431
 Alpha  occ. eigenvalues --  -14.38927 -10.40417 -10.39644 -10.35503 -10.35468
 Alpha  occ. eigenvalues --  -10.31923 -10.31734 -10.31684 -10.31389 -10.30567
 Alpha  occ. eigenvalues --  -10.30409 -10.30334 -10.29427 -10.29402 -10.29322
 Alpha  occ. eigenvalues --  -10.28857 -10.28710 -10.28589 -10.28563 -10.28383
 Alpha  occ. eigenvalues --  -10.28297 -10.28205 -10.27719 -10.27627 -10.27509
 Alpha  occ. eigenvalues --  -10.27400 -10.27335 -10.27133 -10.26987 -10.26647
 Alpha  occ. eigenvalues --  -10.26602 -10.26528 -10.26510 -10.26479 -10.26330
 Alpha  occ. eigenvalues --  -10.26220 -10.26144 -10.26005 -10.25995 -10.25896
 Alpha  occ. eigenvalues --  -10.25773 -10.25749 -10.25734 -10.25666 -10.25509
 Alpha  occ. eigenvalues --  -10.25339 -10.25332 -10.24980 -10.24942 -10.24884
 Alpha  occ. eigenvalues --  -10.24882 -10.24763 -10.24485 -10.24444 -10.24318
 Alpha  occ. eigenvalues --  -10.24006  -3.17899  -1.92802  -1.92351  -1.92198
 Alpha  occ. eigenvalues --   -1.17250  -1.15217  -1.09696  -1.08839  -1.08010
 Alpha  occ. eigenvalues --   -1.07419  -1.05974  -1.04659  -1.03903  -1.02783
 Alpha  occ. eigenvalues --   -0.92935  -0.90216  -0.89873  -0.89697  -0.89418
 Alpha  occ. eigenvalues --   -0.89235  -0.88523  -0.87546  -0.87258  -0.87145
 Alpha  occ. eigenvalues --   -0.85735  -0.85560  -0.84717  -0.84016  -0.83529
 Alpha  occ. eigenvalues --   -0.82619  -0.82152  -0.81514  -0.81054  -0.80393
 Alpha  occ. eigenvalues --   -0.80098  -0.78427  -0.77973  -0.77340  -0.76423
 Alpha  occ. eigenvalues --   -0.75826  -0.75791  -0.75525  -0.74926  -0.73971
 Alpha  occ. eigenvalues --   -0.73860  -0.73403  -0.71886  -0.71277  -0.70100
 Alpha  occ. eigenvalues --   -0.68780  -0.68320  -0.67078  -0.66783  -0.66711
 Alpha  occ. eigenvalues --   -0.66032  -0.65291  -0.65244  -0.64918  -0.63608
 Alpha  occ. eigenvalues --   -0.63399  -0.63344  -0.62505  -0.62280  -0.60319
 Alpha  occ. eigenvalues --   -0.59783  -0.59519  -0.59396  -0.58963  -0.58787
 Alpha  occ. eigenvalues --   -0.58071  -0.57349  -0.56737  -0.56439  -0.56020
 Alpha  occ. eigenvalues --   -0.55383  -0.55058  -0.54582  -0.54391  -0.54295
 Alpha  occ. eigenvalues --   -0.53986  -0.53686  -0.53339  -0.52983  -0.52631
 Alpha  occ. eigenvalues --   -0.52497  -0.52388  -0.52330  -0.51733  -0.51625
 Alpha  occ. eigenvalues --   -0.51463  -0.51255  -0.51121  -0.50883  -0.50848
 Alpha  occ. eigenvalues --   -0.50538  -0.50284  -0.50168  -0.50030  -0.49909
 Alpha  occ. eigenvalues --   -0.49516  -0.49309  -0.49192  -0.49023  -0.48751
 Alpha  occ. eigenvalues --   -0.48481  -0.48354  -0.48266  -0.48218  -0.47885
 Alpha  occ. eigenvalues --   -0.47709  -0.47290  -0.47152  -0.46853  -0.46748
 Alpha  occ. eigenvalues --   -0.46540  -0.46414  -0.46353  -0.46317  -0.45957
 Alpha  occ. eigenvalues --   -0.45920  -0.45709  -0.45616  -0.45377  -0.45230
 Alpha  occ. eigenvalues --   -0.45149  -0.44958  -0.44793  -0.44687  -0.44290
 Alpha  occ. eigenvalues --   -0.44145  -0.43765  -0.43558  -0.43424  -0.43060
 Alpha  occ. eigenvalues --   -0.42733  -0.42623  -0.42577  -0.42371  -0.42092
 Alpha  occ. eigenvalues --   -0.42054  -0.41780  -0.41563  -0.41445  -0.41386
 Alpha  occ. eigenvalues --   -0.41244  -0.40996  -0.40939  -0.40615  -0.40420
 Alpha  occ. eigenvalues --   -0.40204  -0.40081  -0.39720  -0.39492  -0.39401
 Alpha  occ. eigenvalues --   -0.38544  -0.38451  -0.37882  -0.37406  -0.37356
 Alpha  occ. eigenvalues --   -0.37200  -0.37175  -0.36401  -0.36081  -0.35989
 Alpha  occ. eigenvalues --   -0.35854  -0.35144  -0.34716  -0.34654  -0.34461
 Alpha  occ. eigenvalues --   -0.34393  -0.33948  -0.33573  -0.31437  -0.30841
 Alpha  occ. eigenvalues --   -0.30789  -0.30656  -0.30611  -0.28654  -0.24209
 Alpha  occ. eigenvalues --   -0.21512
 Alpha virt. eigenvalues --   -0.08923  -0.01762   0.00304   0.02399   0.02531
 Alpha virt. eigenvalues --    0.02938   0.04285   0.04448   0.05288   0.06180
 Alpha virt. eigenvalues --    0.06858   0.07798   0.08135   0.08514   0.08768

 Mulliken charges:
               1
     1  Mg   0.820835
     2  C   -0.025609
     3  C   -0.072157
     4  C   -0.043135
     5  C   -0.108492
     6  N   -0.284343
     7  C   -0.099519
     8  C    0.052059
     9  C   -0.090293
    10  C    0.043334
    11  C    0.057657
    12  C    0.101263
    13  C    0.029918
    14  C    0.162464
    15  O   -0.242982
    16  O   -0.347798
    17  N   -0.330037
    18  C    0.150763
    19  C   -0.167408
    20  C   -0.038382
    21  C    0.151176
    22  C    0.132543
    23  C    0.012984
    24  O   -0.196802
    25  C    0.031094
    26  N   -0.256169
    27  C   -0.061410
    28  C   -0.021248
    29  C   -0.068359
    30  C    0.070832
    31  C    0.088321
    32  C    0.027506
    33  C    0.003801
    34  N   -0.370557
    35  C    0.123261
    36  C   -0.158326
    37  C    0.021430
    38  C    0.159526
    39  C    0.120661
    40  C    0.032519
    41  O   -0.186850
    42  C   -0.042163
    43  C    0.212893
    44  O   -0.224406
    45  O   -0.325256
    46  C    0.179416
    47  C    0.293500
    48  C   -0.109997
    49  C   -0.205020
    50  C    0.095774
    51  C    0.058101
    52  C    0.035231
    53  C    0.039884
    54  C   -0.169265
    55  C    0.052934
    56  C    0.048655
    57  C    0.006696
    58  C    0.065588
    59  C   -0.160085
    60  C    0.049522
    61  C    0.075944
    62  C    0.028218
    63  C    0.042490
    64  C   -0.171134
    65  C    0.035769
    66  C    0.049627
    67  H   -0.028213
    68  H   -0.042141
    69  H   -0.045805
    70  H    0.006062
    71  H    0.014409
    72  H    0.026199
    73  H    0.019906
    74  H    0.013795
    75  H    0.021730
    76  H    0.029265
    77  H    0.045314
    78  H    0.037939
    79  H    0.039298
    80  H    0.006406
    81  H    0.029728
    82  H    0.043678
    83  H    0.034062
    84  H    0.031259
    85  H    0.011146
    86  H    0.005863
    87  H    0.014940
    88  H    0.019873
    89  H    0.016909
    90  H    0.014866
    91  H    0.014093
    92  H    0.023224
    93  H    0.009826
    94  H    0.030026
    95  H    0.023974
    96  H    0.037736
    97  H    0.014836
    98  H    0.044007
    99  H    0.039366
   100  H    0.043146
   101  H    0.046134
   102  H    0.005025
   103  H    0.044211
   104  H   -0.007872
   105  H    0.004500
   106  H    0.025499
   107  H    0.038221
   108  H   -0.001087
   109  H    0.005097
   110  H    0.005016
   111  H    0.006454
   112  H    0.006763
   113  H   -0.000241
   114  H   -0.002038
   115  H   -0.005557
   116  H   -0.003232
   117  H    0.009856
   118  H   -0.023387
   119  H   -0.002575
   120  H    0.003546
   121  H    0.007388
   122  H   -0.005935
   123  H   -0.003486
   124  H   -0.004431
   125  H    0.009218
   126  H    0.003094
   127  H   -0.002452
   128  H   -0.001124
   129  H   -0.014209
   130  H   -0.006802
   131  H    0.002217
   132  H   -0.001004
   133  H    0.002470
   134  H   -0.006320
   135  H    0.005487
   136  H    0.018967
   137  H   -0.013551
   138  H    0.005531
   139  H    0.005569
   140  H    0.011333
 Sum of Mulliken charges =  -0.00000

 Dipole moment (field-independent basis, Debye):
    X=             -1.4433    Y=              1.3463    Z=              3.5715  Tot=              4.0806
 Quadrupole moment (field-independent basis, Debye-Ang):
   XX=           -359.8853   YY=           -447.9145   ZZ=           -404.3668
   XY=              3.5317   XZ=             34.6318   YZ=             17.0125

 Normal termination of Gaussian 16 at Thu May  5 13:00:56 2022.
