 Gaussian 16, Revision A.03,
 Gaussian 16:  ES64L-G16RevA.03 25-Dec-2016

 ---------------------------------
 #p PBE1PBE/Def2SVP td=(nstates=5)
 ---------------------------------

 -----------------------------------------------------
 step_901_chromophore_23 TDDFT with PBE1PBE functional
 -----------------------------------------------------
 Symbolic Z-matrix:
 Charge =  0 Multiplicity = 1

                         Standard orientation:
 ---------------------------------------------------------------------
 Center     Atomic      Atomic             Coordinates (Angstroms)
 Number     Number       Type             X           Y           Z
 ---------------------------------------------------------------------
      1         12           0        4.774161    0.136352   -0.174905
      2          6           0        2.566412   -2.515239   -0.354355
      3          6           0        2.777449    1.837002   -2.476021
      4          6           0        6.615349    2.896495    0.313761
      5          6           0        6.172587   -1.287930    2.666795
      6          7           0        2.761680   -0.255474   -1.196768
      7          6           0        2.079111   -1.464667   -1.145025
      8          6           0        0.724814   -1.415691   -1.945831
      9          6           0        0.957799   -0.101789   -2.727840
     10          6           0        2.271807    0.570198   -2.145978
     11          6           0        1.055809   -0.263655   -4.303057
     12          6           0       -0.585339   -1.717178   -1.200607
     13          6           0       -1.217108   -3.138896   -1.388177
     14          6           0       -2.554428   -3.260061   -2.109805
     15          8           0       -2.751470   -3.161392   -3.334855
     16          8           0       -3.491991   -3.783060   -1.202687
     17          7           0        4.877210    2.090276   -1.172830
     18          6           0        3.958064    2.511981   -2.057971
     19          6           0        4.349039    3.820573   -2.453468
     20          6           0        5.532620    4.178012   -1.662873
     21          6           0        5.701493    3.089729   -0.787421
     22          6           0        3.628158    4.593733   -3.466516
     23          6           0        6.329673    5.519211   -1.760287
     24          8           0        6.069242    6.321032   -2.645011
     25          6           0        7.619758    5.704812   -0.872880
     26          7           0        6.217193    0.716116    1.306508
     27          6           0        6.837389    1.888718    1.265934
     28          6           0        7.903745    1.937363    2.288449
     29          6           0        7.677267    0.663227    3.153364
     30          6           0        6.666739   -0.038359    2.318286
     31          6           0        9.338239    1.988516    1.744546
     32          6           0        7.174124    0.987079    4.609131
     33          6           0        7.612296   -0.026929    5.719221
     34          7           0        4.571918   -1.539840    0.916888
     35          6           0        5.291557   -2.076809    1.971571
     36          6           0        4.891188   -3.422692    2.204799
     37          6           0        3.846370   -3.618105    1.307538
     38          6           0        3.677134   -2.434005    0.538763
     39          6           0        5.389026   -4.315091    3.326732
     40          6           0        2.873990   -4.602295    0.841577
     41          8           0        2.819256   -5.795567    1.188188
     42          6           0        2.009995   -3.925183   -0.310776
     43          6           0        2.264253   -4.742377   -1.519830
     44          8           0        3.113129   -4.528337   -2.384571
     45          8           0        1.268014   -5.653211   -1.630974
     46          6           0        0.959791   -6.147408   -2.938137
     47          6           0       -4.891244   -3.758792   -1.667663
     48          6           0       -5.819107   -3.223070   -0.584662
     49          6           0       -6.021040   -1.965269   -0.163961
     50          6           0       -5.214656   -0.687116   -0.465953
     51          6           0       -7.220135   -1.650463    0.783309
     52          6           0       -8.474462   -1.112705    0.054519
     53          6           0       -9.845438   -1.845818    0.428426
     54          6           0      -10.907464   -0.786510    0.894836
     55          6           0      -12.282050   -1.420389    0.966740
     56          6           0      -10.656897   -0.117015    2.283577
     57          6           0      -10.535490    1.469568    2.273358
     58          6           0       -9.452958    2.139678    3.232023
     59          6           0       -8.152696    2.776644    2.571990
     60          6           0       -6.826542    2.518631    3.284138
     61          6           0       -8.311035    4.245109    2.081738
     62          6           0       -8.169603    4.384098    0.577151
     63          6           0       -6.800075    5.099237    0.285255
     64          6           0       -6.136932    4.662850   -1.053320
     65          6           0       -4.565355    4.501411   -0.933577
     66          6           0       -6.667319    5.512863   -2.208480
     67          1           0        2.170895    2.317638   -3.246690
     68          1           0        7.203322    3.712427    0.737886
     69          1           0        6.538640   -1.763210    3.578591
     70          1           0        0.964647   -2.246938   -2.608904
     71          1           0        0.122682    0.581008   -2.569593
     72          1           0        1.024051   -1.318464   -4.575606
     73          1           0        1.945831    0.275036   -4.626240
     74          1           0        0.228342    0.206678   -4.833943
     75          1           0       -1.394040   -1.113654   -1.612679
     76          1           0       -0.374716   -1.502226   -0.152853
     77          1           0       -1.297295   -3.557247   -0.385613
     78          1           0       -0.575495   -3.760054   -2.013341
     79          1           0        3.145640    5.394515   -2.905393
     80          1           0        3.016621    3.947073   -4.095584
     81          1           0        4.281349    5.046210   -4.212161
     82          1           0        8.229110    4.807525   -0.766288
     83          1           0        7.220901    5.938271    0.113833
     84          1           0        8.193919    6.542146   -1.270609
     85          1           0        7.692721    2.850660    2.844457
     86          1           0        8.522325    0.013210    3.384533
     87          1           0        9.852282    2.891112    2.074924
     88          1           0        9.326921    1.997011    0.654833
     89          1           0        9.906359    1.125521    2.091625
     90          1           0        6.108121    0.863482    4.417433
     91          1           0        7.456051    2.032661    4.736742
     92          1           0        8.031029    0.460524    6.599404
     93          1           0        8.420750   -0.690373    5.413070
     94          1           0        6.758256   -0.666634    5.943216
     95          1           0        6.443716   -4.577558    3.248217
     96          1           0        4.801032   -5.191941    3.597792
     97          1           0        5.334844   -3.658203    4.194984
     98          1           0        0.957044   -4.009219   -0.044098
     99          1           0        1.791255   -6.849346   -2.999890
    100          1           0        1.030219   -5.370980   -3.699978
    101          1           0        0.039192   -6.731064   -2.933099
    102          1           0       -5.219943   -4.796007   -1.741651
    103          1           0       -5.009981   -3.373324   -2.679959
    104          1           0       -6.584366   -3.909112   -0.219567
    105          1           0       -4.251233   -1.038213   -0.836845
    106          1           0       -5.086599   -0.180323    0.491264
    107          1           0       -5.693828   -0.082001   -1.235368
    108          1           0       -6.746667   -0.930501    1.451537
    109          1           0       -7.522803   -2.524046    1.361119
    110          1           0       -8.381707   -1.149093   -1.031256
    111          1           0       -8.525531   -0.047243    0.282178
    112          1           0       -9.801892   -2.663227    1.147145
    113          1           0      -10.276327   -2.209389   -0.504518
    114          1           0      -10.897826   -0.040574    0.099742
    115          1           0      -12.249616   -2.496181    0.794651
    116          1           0      -12.861932   -1.048109    0.121387
    117          1           0      -12.923215   -1.285979    1.838162
    118          1           0       -9.754141   -0.635881    2.604525
    119          1           0      -11.363482   -0.475894    3.031953
    120          1           0      -11.541310    1.623842    2.664186
    121          1           0      -10.477252    1.888682    1.269172
    122          1           0       -9.122024    1.442970    4.002560
    123          1           0      -10.031931    2.952470    3.670068
    124          1           0       -8.014098    2.133795    1.702392
    125          1           0       -6.128466    3.354975    3.298323
    126          1           0       -6.359811    1.632132    2.853722
    127          1           0       -7.053881    2.265684    4.319475
    128          1           0       -7.521462    4.821480    2.563222
    129          1           0       -9.291563    4.553469    2.444510
    130          1           0       -8.990183    5.029075    0.260235
    131          1           0       -8.290202    3.451610    0.025042
    132          1           0       -6.014804    4.987181    1.032887
    133          1           0       -7.060753    6.150263    0.160864
    134          1           0       -6.403351    3.642331   -1.330241
    135          1           0       -4.234542    3.474971   -1.089410
    136          1           0       -4.070316    4.955686   -0.075108
    137          1           0       -4.145245    4.962692   -1.827912
    138          1           0       -5.804719    5.996145   -2.667481
    139          1           0       -7.352344    6.324053   -1.963596
    140          1           0       -7.226578    4.845075   -2.863192
 ---------------------------------------------------------------------

 SCF Done:  E(RPBE1PBE) =  -3005.31375471     A.U. after   15 cycles

 Excitation energies and oscillator strengths:

 Excited State   1:      Singlet-A      1.9083 eV  649.72 nm  f=0.3611  <S**2>=0.000
     245 -> 248       -0.17939
     246 -> 247        0.69061
     246 <- 247       -0.10488
 This state for optimization and/or second-order correction.
 Total Energy, E(TD-HF/TD-DFT) =  -3005.24362737
 Copying the excited state density for this state as the 1-particle RhoCI density.

 Excited State   2:      Singlet-A      2.2556 eV  549.66 nm  f=0.1187  <S**2>=0.000
     244 -> 247       -0.10490
     245 -> 247        0.65007
     246 -> 248        0.25223

 Excited State   3:      Singlet-A      2.7284 eV  454.42 nm  f=0.0119  <S**2>=0.000
     244 -> 247        0.69003

 Excited State   4:      Singlet-A      2.9608 eV  418.76 nm  f=0.0008  <S**2>=0.000
     242 -> 247        0.66617
     242 -> 249        0.19335

 Excited State   5:      Singlet-A      3.0396 eV  407.90 nm  f=0.0000  <S**2>=0.000
     243 -> 247        0.68258
     243 -> 249       -0.10212
     243 -> 250        0.11171

 The electronic state is 1-A.
 Alpha  occ. eigenvalues --  -46.92855 -19.25932 -19.25350 -19.21211 -19.20240
 Alpha  occ. eigenvalues --  -19.19420 -19.19129 -14.41838 -14.41247 -14.39071
 Alpha  occ. eigenvalues --  -14.38577 -10.37468 -10.36612 -10.32692 -10.32633
 Alpha  occ. eigenvalues --  -10.29436 -10.29319 -10.29106 -10.28925 -10.28239
 Alpha  occ. eigenvalues --  -10.28128 -10.27981 -10.27134 -10.27076 -10.26982
 Alpha  occ. eigenvalues --  -10.26502 -10.26443 -10.26366 -10.26207 -10.26180
 Alpha  occ. eigenvalues --  -10.25861 -10.25800 -10.25546 -10.25315 -10.25273
 Alpha  occ. eigenvalues --  -10.25204 -10.25008 -10.24804 -10.24678 -10.24238
 Alpha  occ. eigenvalues --  -10.24176 -10.24023 -10.23986 -10.23955 -10.23821
 Alpha  occ. eigenvalues --  -10.23727 -10.23587 -10.23534 -10.23510 -10.23474
 Alpha  occ. eigenvalues --  -10.23452 -10.23354 -10.23344 -10.23311 -10.23088
 Alpha  occ. eigenvalues --  -10.23066 -10.23042 -10.22481 -10.22463 -10.22457
 Alpha  occ. eigenvalues --  -10.22437 -10.22184 -10.22001 -10.21870 -10.21702
 Alpha  occ. eigenvalues --  -10.21419  -3.14850  -1.87692  -1.87221  -1.87071
 Alpha  occ. eigenvalues --   -1.12001  -1.10013  -1.04443  -1.03549  -1.02777
 Alpha  occ. eigenvalues --   -1.02287  -1.00598  -0.99350  -0.98600  -0.97407
 Alpha  occ. eigenvalues --   -0.87252  -0.84367  -0.84059  -0.83995  -0.83575
 Alpha  occ. eigenvalues --   -0.83508  -0.82651  -0.81885  -0.81599  -0.81253
 Alpha  occ. eigenvalues --   -0.80005  -0.79849  -0.79020  -0.78275  -0.77718
 Alpha  occ. eigenvalues --   -0.76806  -0.76410  -0.75874  -0.75226  -0.74557
 Alpha  occ. eigenvalues --   -0.74268  -0.72690  -0.72307  -0.71652  -0.70737
 Alpha  occ. eigenvalues --   -0.70107  -0.69888  -0.69783  -0.69055  -0.68261
 Alpha  occ. eigenvalues --   -0.68143  -0.67763  -0.66341  -0.65579  -0.64493
 Alpha  occ. eigenvalues --   -0.63250  -0.62547  -0.61328  -0.61205  -0.61138
 Alpha  occ. eigenvalues --   -0.60236  -0.59828  -0.59754  -0.59476  -0.57961
 Alpha  occ. eigenvalues --   -0.57715  -0.57517  -0.57052  -0.56490  -0.54838
 Alpha  occ. eigenvalues --   -0.54358  -0.54110  -0.53837  -0.53399  -0.53317
 Alpha  occ. eigenvalues --   -0.52616  -0.51818  -0.51234  -0.50955  -0.50418
 Alpha  occ. eigenvalues --   -0.49932  -0.49615  -0.49159  -0.49001  -0.48815
 Alpha  occ. eigenvalues --   -0.48357  -0.48268  -0.47893  -0.47552  -0.47149
 Alpha  occ. eigenvalues --   -0.47079  -0.46871  -0.46850  -0.46225  -0.46124
 Alpha  occ. eigenvalues --   -0.46003  -0.45785  -0.45706  -0.45480  -0.45413
 Alpha  occ. eigenvalues --   -0.45106  -0.44877  -0.44679  -0.44583  -0.44477
 Alpha  occ. eigenvalues --   -0.44059  -0.43897  -0.43783  -0.43669  -0.43377
 Alpha  occ. eigenvalues --   -0.43120  -0.43029  -0.42881  -0.42826  -0.42522
 Alpha  occ. eigenvalues --   -0.42439  -0.41919  -0.41825  -0.41506  -0.41465
 Alpha  occ. eigenvalues --   -0.41218  -0.41099  -0.41018  -0.40896  -0.40649
 Alpha  occ. eigenvalues --   -0.40572  -0.40449  -0.40309  -0.40145  -0.40014
 Alpha  occ. eigenvalues --   -0.39906  -0.39638  -0.39529  -0.39377  -0.39018
 Alpha  occ. eigenvalues --   -0.38904  -0.38607  -0.38291  -0.38155  -0.37882
 Alpha  occ. eigenvalues --   -0.37587  -0.37413  -0.37339  -0.37259  -0.36845
 Alpha  occ. eigenvalues --   -0.36818  -0.36644  -0.36352  -0.36311  -0.36208
 Alpha  occ. eigenvalues --   -0.35983  -0.35888  -0.35822  -0.35474  -0.35323
 Alpha  occ. eigenvalues --   -0.35090  -0.34845  -0.34622  -0.34308  -0.34179
 Alpha  occ. eigenvalues --   -0.33525  -0.33254  -0.32763  -0.32386  -0.32208
 Alpha  occ. eigenvalues --   -0.32189  -0.32009  -0.31456  -0.30998  -0.30843
 Alpha  occ. eigenvalues --   -0.30717  -0.30006  -0.29682  -0.29621  -0.29403
 Alpha  occ. eigenvalues --   -0.29296  -0.29115  -0.28851  -0.27084  -0.26236
 Alpha  occ. eigenvalues --   -0.26129  -0.25677  -0.25473  -0.24286  -0.21173
 Alpha  occ. eigenvalues --   -0.19147
 Alpha virt. eigenvalues --   -0.11366  -0.05248  -0.03962  -0.01938  -0.01677
 Alpha virt. eigenvalues --   -0.00240  -0.00076  -0.00041   0.01330   0.02804
 Alpha virt. eigenvalues --    0.02852   0.03622   0.04238   0.05197   0.05375

 Mulliken charges:
               1
     1  Mg   0.960845
     2  C   -0.035906
     3  C   -0.062979
     4  C   -0.046265
     5  C   -0.096742
     6  N   -0.383972
     7  C   -0.019362
     8  C   -0.011168
     9  C   -0.165998
    10  C    0.081859
    11  C    0.001382
    12  C    0.039183
    13  C   -0.054271
    14  C    0.228852
    15  O   -0.275712
    16  O   -0.375056
    17  N   -0.446144
    18  C    0.181095
    19  C   -0.204852
    20  C   -0.073303
    21  C    0.175711
    22  C    0.072931
    23  C    0.067508
    24  O   -0.231959
    25  C   -0.046384
    26  N   -0.365948
    27  C   -0.008689
    28  C   -0.110866
    29  C   -0.137782
    30  C    0.105798
    31  C    0.032890
    32  C   -0.030902
    33  C   -0.069302
    34  N   -0.505171
    35  C    0.139275
    36  C   -0.170834
    37  C   -0.035994
    38  C    0.212585
    39  C    0.068531
    40  C    0.131046
    41  O   -0.230570
    42  C   -0.156215
    43  C    0.304699
    44  O   -0.259930
    45  O   -0.357820
    46  C    0.122451
    47  C    0.251358
    48  C   -0.126503
    49  C   -0.236440
    50  C    0.025337
    51  C   -0.012179
    52  C   -0.026702
    53  C   -0.020191
    54  C   -0.251916
    55  C   -0.004628
    56  C   -0.001776
    57  C   -0.061206
    58  C    0.010845
    59  C   -0.247609
    60  C   -0.010855
    61  C    0.019580
    62  C   -0.034293
    63  C   -0.018407
    64  C   -0.258063
    65  C   -0.024421
    66  C   -0.008649
    67  H    0.003819
    68  H   -0.008881
    69  H   -0.011258
    70  H    0.050691
    71  H    0.051697
    72  H    0.052539
    73  H    0.047256
    74  H    0.040989
    75  H    0.056522
    76  H    0.061471
    77  H    0.076420
    78  H    0.077442
    79  H    0.067848
    80  H    0.032757
    81  H    0.058005
    82  H    0.069712
    83  H    0.061606
    84  H    0.059130
    85  H    0.046935
    86  H    0.042838
    87  H    0.042221
    88  H    0.047819
    89  H    0.044182
    90  H    0.050396
    91  H    0.046737
    92  H    0.051514
    93  H    0.035737
    94  H    0.056620
    95  H    0.051697
    96  H    0.064648
    97  H    0.041833
    98  H    0.084775
    99  H    0.062185
   100  H    0.063821
   101  H    0.067909
   102  H    0.032872
   103  H    0.069244
   104  H    0.021474
   105  H    0.039865
   106  H    0.051798
   107  H    0.064771
   108  H    0.034468
   109  H    0.036583
   110  H    0.037378
   111  H    0.044016
   112  H    0.037117
   113  H    0.034419
   114  H    0.035422
   115  H    0.021892
   116  H    0.025176
   117  H    0.036265
   118  H    0.011980
   119  H    0.028374
   120  H    0.037106
   121  H    0.038911
   122  H    0.025554
   123  H    0.028870
   124  H    0.042954
   125  H    0.035563
   126  H    0.031842
   127  H    0.025331
   128  H    0.031541
   129  H    0.018744
   130  H    0.026352
   131  H    0.031409
   132  H    0.031057
   133  H    0.036560
   134  H    0.031889
   135  H    0.032568
   136  H    0.044876
   137  H    0.014252
   138  H    0.032062
   139  H    0.031953
   140  H    0.038028
 Sum of Mulliken charges =  -0.00000

 Dipole moment (field-independent basis, Debye):
    X=             -1.4580    Y=              1.3682    Z=              3.6314  Tot=              4.1455
 Quadrupole moment (field-independent basis, Debye-Ang):
   XX=           -355.0654   YY=           -445.3771   ZZ=           -400.5499
   XY=              3.8198   XZ=             36.2008   YZ=             16.5515

 Normal termination of Gaussian 16 at Thu May  5 13:23:55 2022.
