 Gaussian 16, Revision A.03,
 Gaussian 16:  ES64L-G16RevA.03 25-Dec-2016

 --------------------------------
 #p wB97XD/Def2SVP td=(nstates=5)
 --------------------------------

 ----------------------------------------------------
 step_901_chromophore_23 TDDFT with wB97XD functional
 ----------------------------------------------------
 Symbolic Z-matrix:
 Charge =  0 Multiplicity = 1

                         Standard orientation:
 ---------------------------------------------------------------------
 Center     Atomic      Atomic             Coordinates (Angstroms)
 Number     Number       Type             X           Y           Z
 ---------------------------------------------------------------------
      1         12           0        4.774161    0.136352   -0.174905
      2          6           0        2.566412   -2.515239   -0.354355
      3          6           0        2.777449    1.837002   -2.476021
      4          6           0        6.615349    2.896495    0.313761
      5          6           0        6.172587   -1.287930    2.666795
      6          7           0        2.761680   -0.255474   -1.196768
      7          6           0        2.079111   -1.464667   -1.145025
      8          6           0        0.724814   -1.415691   -1.945831
      9          6           0        0.957799   -0.101789   -2.727840
     10          6           0        2.271807    0.570198   -2.145978
     11          6           0        1.055809   -0.263655   -4.303057
     12          6           0       -0.585339   -1.717178   -1.200607
     13          6           0       -1.217108   -3.138896   -1.388177
     14          6           0       -2.554428   -3.260061   -2.109805
     15          8           0       -2.751470   -3.161392   -3.334855
     16          8           0       -3.491991   -3.783060   -1.202687
     17          7           0        4.877210    2.090276   -1.172830
     18          6           0        3.958064    2.511981   -2.057971
     19          6           0        4.349039    3.820573   -2.453468
     20          6           0        5.532620    4.178012   -1.662873
     21          6           0        5.701493    3.089729   -0.787421
     22          6           0        3.628158    4.593733   -3.466516
     23          6           0        6.329673    5.519211   -1.760287
     24          8           0        6.069242    6.321032   -2.645011
     25          6           0        7.619758    5.704812   -0.872880
     26          7           0        6.217193    0.716116    1.306508
     27          6           0        6.837389    1.888718    1.265934
     28          6           0        7.903745    1.937363    2.288449
     29          6           0        7.677267    0.663227    3.153364
     30          6           0        6.666739   -0.038359    2.318286
     31          6           0        9.338239    1.988516    1.744546
     32          6           0        7.174124    0.987079    4.609131
     33          6           0        7.612296   -0.026929    5.719221
     34          7           0        4.571918   -1.539840    0.916888
     35          6           0        5.291557   -2.076809    1.971571
     36          6           0        4.891188   -3.422692    2.204799
     37          6           0        3.846370   -3.618105    1.307538
     38          6           0        3.677134   -2.434005    0.538763
     39          6           0        5.389026   -4.315091    3.326732
     40          6           0        2.873990   -4.602295    0.841577
     41          8           0        2.819256   -5.795567    1.188188
     42          6           0        2.009995   -3.925183   -0.310776
     43          6           0        2.264253   -4.742377   -1.519830
     44          8           0        3.113129   -4.528337   -2.384571
     45          8           0        1.268014   -5.653211   -1.630974
     46          6           0        0.959791   -6.147408   -2.938137
     47          6           0       -4.891244   -3.758792   -1.667663
     48          6           0       -5.819107   -3.223070   -0.584662
     49          6           0       -6.021040   -1.965269   -0.163961
     50          6           0       -5.214656   -0.687116   -0.465953
     51          6           0       -7.220135   -1.650463    0.783309
     52          6           0       -8.474462   -1.112705    0.054519
     53          6           0       -9.845438   -1.845818    0.428426
     54          6           0      -10.907464   -0.786510    0.894836
     55          6           0      -12.282050   -1.420389    0.966740
     56          6           0      -10.656897   -0.117015    2.283577
     57          6           0      -10.535490    1.469568    2.273358
     58          6           0       -9.452958    2.139678    3.232023
     59          6           0       -8.152696    2.776644    2.571990
     60          6           0       -6.826542    2.518631    3.284138
     61          6           0       -8.311035    4.245109    2.081738
     62          6           0       -8.169603    4.384098    0.577151
     63          6           0       -6.800075    5.099237    0.285255
     64          6           0       -6.136932    4.662850   -1.053320
     65          6           0       -4.565355    4.501411   -0.933577
     66          6           0       -6.667319    5.512863   -2.208480
     67          1           0        2.170895    2.317638   -3.246690
     68          1           0        7.203322    3.712427    0.737886
     69          1           0        6.538640   -1.763210    3.578591
     70          1           0        0.964647   -2.246938   -2.608904
     71          1           0        0.122682    0.581008   -2.569593
     72          1           0        1.024051   -1.318464   -4.575606
     73          1           0        1.945831    0.275036   -4.626240
     74          1           0        0.228342    0.206678   -4.833943
     75          1           0       -1.394040   -1.113654   -1.612679
     76          1           0       -0.374716   -1.502226   -0.152853
     77          1           0       -1.297295   -3.557247   -0.385613
     78          1           0       -0.575495   -3.760054   -2.013341
     79          1           0        3.145640    5.394515   -2.905393
     80          1           0        3.016621    3.947073   -4.095584
     81          1           0        4.281349    5.046210   -4.212161
     82          1           0        8.229110    4.807525   -0.766288
     83          1           0        7.220901    5.938271    0.113833
     84          1           0        8.193919    6.542146   -1.270609
     85          1           0        7.692721    2.850660    2.844457
     86          1           0        8.522325    0.013210    3.384533
     87          1           0        9.852282    2.891112    2.074924
     88          1           0        9.326921    1.997011    0.654833
     89          1           0        9.906359    1.125521    2.091625
     90          1           0        6.108121    0.863482    4.417433
     91          1           0        7.456051    2.032661    4.736742
     92          1           0        8.031029    0.460524    6.599404
     93          1           0        8.420750   -0.690373    5.413070
     94          1           0        6.758256   -0.666634    5.943216
     95          1           0        6.443716   -4.577558    3.248217
     96          1           0        4.801032   -5.191941    3.597792
     97          1           0        5.334844   -3.658203    4.194984
     98          1           0        0.957044   -4.009219   -0.044098
     99          1           0        1.791255   -6.849346   -2.999890
    100          1           0        1.030219   -5.370980   -3.699978
    101          1           0        0.039192   -6.731064   -2.933099
    102          1           0       -5.219943   -4.796007   -1.741651
    103          1           0       -5.009981   -3.373324   -2.679959
    104          1           0       -6.584366   -3.909112   -0.219567
    105          1           0       -4.251233   -1.038213   -0.836845
    106          1           0       -5.086599   -0.180323    0.491264
    107          1           0       -5.693828   -0.082001   -1.235368
    108          1           0       -6.746667   -0.930501    1.451537
    109          1           0       -7.522803   -2.524046    1.361119
    110          1           0       -8.381707   -1.149093   -1.031256
    111          1           0       -8.525531   -0.047243    0.282178
    112          1           0       -9.801892   -2.663227    1.147145
    113          1           0      -10.276327   -2.209389   -0.504518
    114          1           0      -10.897826   -0.040574    0.099742
    115          1           0      -12.249616   -2.496181    0.794651
    116          1           0      -12.861932   -1.048109    0.121387
    117          1           0      -12.923215   -1.285979    1.838162
    118          1           0       -9.754141   -0.635881    2.604525
    119          1           0      -11.363482   -0.475894    3.031953
    120          1           0      -11.541310    1.623842    2.664186
    121          1           0      -10.477252    1.888682    1.269172
    122          1           0       -9.122024    1.442970    4.002560
    123          1           0      -10.031931    2.952470    3.670068
    124          1           0       -8.014098    2.133795    1.702392
    125          1           0       -6.128466    3.354975    3.298323
    126          1           0       -6.359811    1.632132    2.853722
    127          1           0       -7.053881    2.265684    4.319475
    128          1           0       -7.521462    4.821480    2.563222
    129          1           0       -9.291563    4.553469    2.444510
    130          1           0       -8.990183    5.029075    0.260235
    131          1           0       -8.290202    3.451610    0.025042
    132          1           0       -6.014804    4.987181    1.032887
    133          1           0       -7.060753    6.150263    0.160864
    134          1           0       -6.403351    3.642331   -1.330241
    135          1           0       -4.234542    3.474971   -1.089410
    136          1           0       -4.070316    4.955686   -0.075108
    137          1           0       -4.145245    4.962692   -1.827912
    138          1           0       -5.804719    5.996145   -2.667481
    139          1           0       -7.352344    6.324053   -1.963596
    140          1           0       -7.226578    4.845075   -2.863192
 ---------------------------------------------------------------------

 SCF Done:  E(RwB97XD) =  -3007.82417678     A.U. after   20 cycles

 Excitation energies and oscillator strengths:

 Excited State   1:      Singlet-A      1.6888 eV  734.17 nm  f=0.3758  <S**2>=0.000
     245 -> 248       -0.19120
     246 -> 247        0.68183
     245 <- 248       -0.11874
 This state for optimization and/or second-order correction.
 Total Energy, E(TD-HF/TD-DFT) =  -3007.76211548
 Copying the excited state density for this state as the 1-particle RhoCI density.

 Excited State   2:      Singlet-A      2.1892 eV  566.34 nm  f=0.1243  <S**2>=0.000
     245 -> 247        0.63994
     246 -> 248        0.28161

 Excited State   3:      Singlet-A      3.0746 eV  403.25 nm  f=0.0039  <S**2>=0.000
     244 -> 247        0.67725
     246 -> 248        0.10812

 Excited State   4:      Singlet-A      3.4482 eV  359.56 nm  f=0.0100  <S**2>=0.000
     241 -> 247        0.23784
     241 -> 249        0.20364
     242 -> 247        0.48524
     242 -> 249        0.30016
     242 -> 250        0.10590
     246 -> 248       -0.12318

 Excited State   5:      Singlet-A      3.6317 eV  341.40 nm  f=0.2007  <S**2>=0.000
     240 -> 247       -0.11922
     241 -> 247        0.47426
     241 -> 249        0.11334
     242 -> 247       -0.23185
     243 -> 247        0.12700
     245 -> 247       -0.13296
     246 -> 248        0.37408

 The electronic state is 1-A.
 Alpha  occ. eigenvalues --  -46.95817 -19.30482 -19.29958 -19.25910 -19.25003
 Alpha  occ. eigenvalues --  -19.24271 -19.23945 -14.46899 -14.46375 -14.44027
 Alpha  occ. eigenvalues --  -14.43524 -10.44295 -10.43498 -10.39519 -10.39505
 Alpha  occ. eigenvalues --  -10.35824 -10.35736 -10.35462 -10.35431 -10.34574
 Alpha  occ. eigenvalues --  -10.34389 -10.34384 -10.33443 -10.33430 -10.33323
 Alpha  occ. eigenvalues --  -10.32920 -10.32774 -10.32612 -10.32572 -10.32514
 Alpha  occ. eigenvalues --  -10.32327 -10.32261 -10.31759 -10.31655 -10.31635
 Alpha  occ. eigenvalues --  -10.31447 -10.31405 -10.31234 -10.30932 -10.30615
 Alpha  occ. eigenvalues --  -10.30603 -10.30470 -10.30417 -10.30361 -10.30199
 Alpha  occ. eigenvalues --  -10.30111 -10.30088 -10.29944 -10.29856 -10.29852
 Alpha  occ. eigenvalues --  -10.29715 -10.29709 -10.29681 -10.29615 -10.29450
 Alpha  occ. eigenvalues --  -10.29392 -10.29303 -10.28893 -10.28843 -10.28817
 Alpha  occ. eigenvalues --  -10.28808 -10.28584 -10.28356 -10.28289 -10.28120
 Alpha  occ. eigenvalues --  -10.27831  -3.21690  -1.95280  -1.94807  -1.94650
 Alpha  occ. eigenvalues --   -1.19435  -1.17419  -1.11920  -1.11083  -1.10201
 Alpha  occ. eigenvalues --   -1.09659  -1.07978  -1.06703  -1.05960  -1.04802
 Alpha  occ. eigenvalues --   -0.94912  -0.92038  -0.91704  -0.91580  -0.91177
 Alpha  occ. eigenvalues --   -0.91150  -0.90310  -0.89494  -0.89213  -0.88909
 Alpha  occ. eigenvalues --   -0.87646  -0.87503  -0.86660  -0.85910  -0.85375
 Alpha  occ. eigenvalues --   -0.84463  -0.84065  -0.83480  -0.82907  -0.82292
 Alpha  occ. eigenvalues --   -0.81945  -0.80346  -0.79903  -0.79289  -0.78372
 Alpha  occ. eigenvalues --   -0.77729  -0.77576  -0.77424  -0.76735  -0.75834
 Alpha  occ. eigenvalues --   -0.75791  -0.75353  -0.73871  -0.73206  -0.72029
 Alpha  occ. eigenvalues --   -0.70786  -0.70181  -0.68949  -0.68759  -0.68644
 Alpha  occ. eigenvalues --   -0.67880  -0.67280  -0.67245  -0.66940  -0.65447
 Alpha  occ. eigenvalues --   -0.65374  -0.65165  -0.64492  -0.64109  -0.62293
 Alpha  occ. eigenvalues --   -0.61779  -0.61513  -0.61332  -0.60891  -0.60768
 Alpha  occ. eigenvalues --   -0.60067  -0.59288  -0.58673  -0.58404  -0.57923
 Alpha  occ. eigenvalues --   -0.57348  -0.57014  -0.56529  -0.56362  -0.56214
 Alpha  occ. eigenvalues --   -0.55819  -0.55643  -0.55230  -0.54913  -0.54530
 Alpha  occ. eigenvalues --   -0.54399  -0.54265  -0.54258  -0.53600  -0.53582
 Alpha  occ. eigenvalues --   -0.53412  -0.53137  -0.53030  -0.52808  -0.52764
 Alpha  occ. eigenvalues --   -0.52450  -0.52194  -0.52025  -0.51962  -0.51783
 Alpha  occ. eigenvalues --   -0.51460  -0.51220  -0.51110  -0.50969  -0.50679
 Alpha  occ. eigenvalues --   -0.50413  -0.50273  -0.50155  -0.50099  -0.49770
 Alpha  occ. eigenvalues --   -0.49627  -0.49244  -0.49092  -0.48726  -0.48685
 Alpha  occ. eigenvalues --   -0.48468  -0.48340  -0.48249  -0.48179  -0.47835
 Alpha  occ. eigenvalues --   -0.47809  -0.47639  -0.47505  -0.47314  -0.47151
 Alpha  occ. eigenvalues --   -0.47057  -0.46822  -0.46731  -0.46623  -0.46168
 Alpha  occ. eigenvalues --   -0.46052  -0.45724  -0.45575  -0.45311  -0.44982
 Alpha  occ. eigenvalues --   -0.44675  -0.44545  -0.44453  -0.44309  -0.44086
 Alpha  occ. eigenvalues --   -0.43941  -0.43712  -0.43437  -0.43396  -0.43295
 Alpha  occ. eigenvalues --   -0.43099  -0.42916  -0.42864  -0.42534  -0.42336
 Alpha  occ. eigenvalues --   -0.42089  -0.41938  -0.41616  -0.41330  -0.41248
 Alpha  occ. eigenvalues --   -0.40519  -0.40321  -0.39764  -0.39358  -0.39251
 Alpha  occ. eigenvalues --   -0.39163  -0.39042  -0.38394  -0.38035  -0.37956
 Alpha  occ. eigenvalues --   -0.37698  -0.37099  -0.36612  -0.36565  -0.36390
 Alpha  occ. eigenvalues --   -0.36297  -0.35829  -0.35780  -0.33656  -0.32879
 Alpha  occ. eigenvalues --   -0.32804  -0.32766  -0.32604  -0.30854  -0.26131
 Alpha  occ. eigenvalues --   -0.23319
 Alpha virt. eigenvalues --   -0.07288   0.00133   0.02359   0.04610   0.05046
 Alpha virt. eigenvalues --    0.05718   0.06593   0.06673   0.07905   0.09351
 Alpha virt. eigenvalues --    0.09501   0.10255   0.10960   0.11801   0.12105

 Mulliken charges:
               1
     1  Mg   0.955524
     2  C   -0.036539
     3  C   -0.082485
     4  C   -0.056867
     5  C   -0.111022
     6  N   -0.351271
     7  C   -0.055241
     8  C    0.018986
     9  C   -0.143173
    10  C    0.069567
    11  C    0.013541
    12  C    0.051757
    13  C   -0.028198
    14  C    0.217170
    15  O   -0.272786
    16  O   -0.374996
    17  N   -0.412506
    18  C    0.169891
    19  C   -0.189939
    20  C   -0.073648
    21  C    0.173492
    22  C    0.082480
    23  C    0.060166
    24  O   -0.227159
    25  C   -0.029979
    26  N   -0.329351
    27  C   -0.026249
    28  C   -0.080155
    29  C   -0.111463
    30  C    0.093339
    31  C    0.042143
    32  C   -0.015735
    33  C   -0.053614
    34  N   -0.465556
    35  C    0.132276
    36  C   -0.167304
    37  C   -0.029191
    38  C    0.192887
    39  C    0.077603
    40  C    0.110159
    41  O   -0.220846
    42  C   -0.110245
    43  C    0.276982
    44  O   -0.252838
    45  O   -0.355210
    46  C    0.135690
    47  C    0.263867
    48  C   -0.134571
    49  C   -0.227673
    50  C    0.046470
    51  C    0.012889
    52  C   -0.008276
    53  C   -0.004618
    54  C   -0.222673
    55  C    0.005379
    56  C    0.011954
    57  C   -0.041887
    58  C    0.025780
    59  C   -0.212289
    60  C    0.002538
    61  C    0.036057
    62  C   -0.017286
    63  C    0.002646
    64  C   -0.231437
    65  C   -0.010704
    66  C    0.002288
    67  H   -0.003543
    68  H   -0.021373
    69  H   -0.021764
    70  H    0.029142
    71  H    0.042280
    72  H    0.047658
    73  H    0.039847
    74  H    0.036012
    75  H    0.047489
    76  H    0.055268
    77  H    0.072346
    78  H    0.060174
    79  H    0.063681
    80  H    0.027805
    81  H    0.054251
    82  H    0.063030
    83  H    0.055679
    84  H    0.057956
    85  H    0.036142
    86  H    0.028388
    87  H    0.037290
    88  H    0.040723
    89  H    0.038855
    90  H    0.039243
    91  H    0.038609
    92  H    0.046963
    93  H    0.029278
    94  H    0.050710
    95  H    0.047410
    96  H    0.062828
    97  H    0.034776
    98  H    0.073012
    99  H    0.058306
   100  H    0.060408
   101  H    0.065625
   102  H    0.029057
   103  H    0.065728
   104  H    0.017969
   105  H    0.027758
   106  H    0.045774
   107  H    0.060032
   108  H    0.022695
   109  H    0.027705
   110  H    0.029739
   111  H    0.027768
   112  H    0.028926
   113  H    0.025758
   114  H    0.022566
   115  H    0.015564
   116  H    0.019538
   117  H    0.030673
   118  H   -0.001668
   119  H    0.020770
   120  H    0.029362
   121  H    0.028586
   122  H    0.017469
   123  H    0.020000
   124  H    0.017537
   125  H    0.029559
   126  H    0.026074
   127  H    0.018605
   128  H    0.020269
   129  H    0.010506
   130  H    0.019447
   131  H    0.021105
   132  H    0.018558
   133  H    0.026452
   134  H    0.019613
   135  H    0.027125
   136  H    0.039579
   137  H    0.006498
   138  H    0.025425
   139  H    0.025722
   140  H    0.033111
 Sum of Mulliken charges =  -0.00000

 Dipole moment (field-independent basis, Debye):
    X=             -1.4333    Y=              1.3850    Z=              3.5804  Tot=              4.0978
 Quadrupole moment (field-independent basis, Debye-Ang):
   XX=           -354.8652   YY=           -444.2599   ZZ=           -400.6023
   XY=              4.3334   XZ=             35.5730   YZ=             16.5856

 Normal termination of Gaussian 16 at Thu May  5 14:08:02 2022.
