 Gaussian 16, Revision A.03,
 Gaussian 16:  ES64L-G16RevA.03 25-Dec-2016

 --------------------
 #p ZINDO=(nstates=5)
 --------------------

 -----------------------------
 step_901_chromophore_23 ZINDO
 -----------------------------
 Symbolic Z-matrix:
 Charge =  0 Multiplicity = 1

                         Standard orientation:
 ---------------------------------------------------------------------
 Center     Atomic      Atomic             Coordinates (Angstroms)
 Number     Number       Type             X           Y           Z
 ---------------------------------------------------------------------
      1         12           0        4.774161    0.136352   -0.174905
      2          6           0        2.566412   -2.515239   -0.354355
      3          6           0        2.777449    1.837002   -2.476021
      4          6           0        6.615349    2.896495    0.313761
      5          6           0        6.172587   -1.287930    2.666795
      6          7           0        2.761680   -0.255474   -1.196768
      7          6           0        2.079111   -1.464667   -1.145025
      8          6           0        0.724814   -1.415691   -1.945831
      9          6           0        0.957799   -0.101789   -2.727840
     10          6           0        2.271807    0.570198   -2.145978
     11          6           0        1.055809   -0.263655   -4.303057
     12          6           0       -0.585339   -1.717178   -1.200607
     13          6           0       -1.217108   -3.138896   -1.388177
     14          6           0       -2.554428   -3.260061   -2.109805
     15          8           0       -2.751470   -3.161392   -3.334855
     16          8           0       -3.491991   -3.783060   -1.202687
     17          7           0        4.877210    2.090276   -1.172830
     18          6           0        3.958064    2.511981   -2.057971
     19          6           0        4.349039    3.820573   -2.453468
     20          6           0        5.532620    4.178012   -1.662873
     21          6           0        5.701493    3.089729   -0.787421
     22          6           0        3.628158    4.593733   -3.466516
     23          6           0        6.329673    5.519211   -1.760287
     24          8           0        6.069242    6.321032   -2.645011
     25          6           0        7.619758    5.704812   -0.872880
     26          7           0        6.217193    0.716116    1.306508
     27          6           0        6.837389    1.888718    1.265934
     28          6           0        7.903745    1.937363    2.288449
     29          6           0        7.677267    0.663227    3.153364
     30          6           0        6.666739   -0.038359    2.318286
     31          6           0        9.338239    1.988516    1.744546
     32          6           0        7.174124    0.987079    4.609131
     33          6           0        7.612296   -0.026929    5.719221
     34          7           0        4.571918   -1.539840    0.916888
     35          6           0        5.291557   -2.076809    1.971571
     36          6           0        4.891188   -3.422692    2.204799
     37          6           0        3.846370   -3.618105    1.307538
     38          6           0        3.677134   -2.434005    0.538763
     39          6           0        5.389026   -4.315091    3.326732
     40          6           0        2.873990   -4.602295    0.841577
     41          8           0        2.819256   -5.795567    1.188188
     42          6           0        2.009995   -3.925183   -0.310776
     43          6           0        2.264253   -4.742377   -1.519830
     44          8           0        3.113129   -4.528337   -2.384571
     45          8           0        1.268014   -5.653211   -1.630974
     46          6           0        0.959791   -6.147408   -2.938137
     47          6           0       -4.891244   -3.758792   -1.667663
     48          6           0       -5.819107   -3.223070   -0.584662
     49          6           0       -6.021040   -1.965269   -0.163961
     50          6           0       -5.214656   -0.687116   -0.465953
     51          6           0       -7.220135   -1.650463    0.783309
     52          6           0       -8.474462   -1.112705    0.054519
     53          6           0       -9.845438   -1.845818    0.428426
     54          6           0      -10.907464   -0.786510    0.894836
     55          6           0      -12.282050   -1.420389    0.966740
     56          6           0      -10.656897   -0.117015    2.283577
     57          6           0      -10.535490    1.469568    2.273358
     58          6           0       -9.452958    2.139678    3.232023
     59          6           0       -8.152696    2.776644    2.571990
     60          6           0       -6.826542    2.518631    3.284138
     61          6           0       -8.311035    4.245109    2.081738
     62          6           0       -8.169603    4.384098    0.577151
     63          6           0       -6.800075    5.099237    0.285255
     64          6           0       -6.136932    4.662850   -1.053320
     65          6           0       -4.565355    4.501411   -0.933577
     66          6           0       -6.667319    5.512863   -2.208480
     67          1           0        2.170895    2.317638   -3.246690
     68          1           0        7.203322    3.712427    0.737886
     69          1           0        6.538640   -1.763210    3.578591
     70          1           0        0.964647   -2.246938   -2.608904
     71          1           0        0.122682    0.581008   -2.569593
     72          1           0        1.024051   -1.318464   -4.575606
     73          1           0        1.945831    0.275036   -4.626240
     74          1           0        0.228342    0.206678   -4.833943
     75          1           0       -1.394040   -1.113654   -1.612679
     76          1           0       -0.374716   -1.502226   -0.152853
     77          1           0       -1.297295   -3.557247   -0.385613
     78          1           0       -0.575495   -3.760054   -2.013341
     79          1           0        3.145640    5.394515   -2.905393
     80          1           0        3.016621    3.947073   -4.095584
     81          1           0        4.281349    5.046210   -4.212161
     82          1           0        8.229110    4.807525   -0.766288
     83          1           0        7.220901    5.938271    0.113833
     84          1           0        8.193919    6.542146   -1.270609
     85          1           0        7.692721    2.850660    2.844457
     86          1           0        8.522325    0.013210    3.384533
     87          1           0        9.852282    2.891112    2.074924
     88          1           0        9.326921    1.997011    0.654833
     89          1           0        9.906359    1.125521    2.091625
     90          1           0        6.108121    0.863482    4.417433
     91          1           0        7.456051    2.032661    4.736742
     92          1           0        8.031029    0.460524    6.599404
     93          1           0        8.420750   -0.690373    5.413070
     94          1           0        6.758256   -0.666634    5.943216
     95          1           0        6.443716   -4.577558    3.248217
     96          1           0        4.801032   -5.191941    3.597792
     97          1           0        5.334844   -3.658203    4.194984
     98          1           0        0.957044   -4.009219   -0.044098
     99          1           0        1.791255   -6.849346   -2.999890
    100          1           0        1.030219   -5.370980   -3.699978
    101          1           0        0.039192   -6.731064   -2.933099
    102          1           0       -5.219943   -4.796007   -1.741651
    103          1           0       -5.009981   -3.373324   -2.679959
    104          1           0       -6.584366   -3.909112   -0.219567
    105          1           0       -4.251233   -1.038213   -0.836845
    106          1           0       -5.086599   -0.180323    0.491264
    107          1           0       -5.693828   -0.082001   -1.235368
    108          1           0       -6.746667   -0.930501    1.451537
    109          1           0       -7.522803   -2.524046    1.361119
    110          1           0       -8.381707   -1.149093   -1.031256
    111          1           0       -8.525531   -0.047243    0.282178
    112          1           0       -9.801892   -2.663227    1.147145
    113          1           0      -10.276327   -2.209389   -0.504518
    114          1           0      -10.897826   -0.040574    0.099742
    115          1           0      -12.249616   -2.496181    0.794651
    116          1           0      -12.861932   -1.048109    0.121387
    117          1           0      -12.923215   -1.285979    1.838162
    118          1           0       -9.754141   -0.635881    2.604525
    119          1           0      -11.363482   -0.475894    3.031953
    120          1           0      -11.541310    1.623842    2.664186
    121          1           0      -10.477252    1.888682    1.269172
    122          1           0       -9.122024    1.442970    4.002560
    123          1           0      -10.031931    2.952470    3.670068
    124          1           0       -8.014098    2.133795    1.702392
    125          1           0       -6.128466    3.354975    3.298323
    126          1           0       -6.359811    1.632132    2.853722
    127          1           0       -7.053881    2.265684    4.319475
    128          1           0       -7.521462    4.821480    2.563222
    129          1           0       -9.291563    4.553469    2.444510
    130          1           0       -8.990183    5.029075    0.260235
    131          1           0       -8.290202    3.451610    0.025042
    132          1           0       -6.014804    4.987181    1.032887
    133          1           0       -7.060753    6.150263    0.160864
    134          1           0       -6.403351    3.642331   -1.330241
    135          1           0       -4.234542    3.474971   -1.089410
    136          1           0       -4.070316    4.955686   -0.075108
    137          1           0       -4.145245    4.962692   -1.827912
    138          1           0       -5.804719    5.996145   -2.667481
    139          1           0       -7.352344    6.324053   -1.963596
    140          1           0       -7.226578    4.845075   -2.863192
 ---------------------------------------------------------------------

 SCF Done:  E(RZINDO/S) =  -474.220732562     A.U. after   19 cycles

 Excitation energies and oscillator strengths:

 Excited State   1:      Singlet-A      1.2537 eV  988.91 nm  f=0.6129  <S**2>=0.000
     175 ->178        -0.19715
     176 ->177         0.66130
 This state for optimization and/or second-order correction.
 Total Energy, E(CIS/TDA) =  -474.174658333
 Copying the excited state density for this state as the 1-particle RhoCI density.

 Excited State   2:      Singlet-A      1.9233 eV  644.64 nm  f=0.0589  <S**2>=0.000
     175 ->177         0.55937
     176 ->178         0.40573

 Excited State   3:      Singlet-A      2.9183 eV  424.85 nm  f=0.0278  <S**2>=0.000
     168 ->179        -0.13986
     170 ->177         0.24506
     170 ->179        -0.29330
     170 ->181        -0.11284
     170 ->186         0.10466
     173 ->177         0.15400
     174 ->177         0.42304
     176 ->178        -0.12774

 Excited State   4:      Singlet-A      2.9384 eV  421.94 nm  f=0.0083  <S**2>=0.000
     168 ->177        -0.10586
     170 ->177        -0.19922
     170 ->179         0.30043
     170 ->186        -0.11513
     173 ->177         0.18357
     174 ->177         0.44100

 Excited State   5:      Singlet-A      3.0083 eV  412.15 nm  f=0.3120  <S**2>=0.000
     175 ->177         0.22394
     176 ->178        -0.35741
     176 ->179         0.51570

 The electronic state is 1-A.
 Alpha  occ. eigenvalues --   -1.87374  -1.84043  -1.80457  -1.75107  -1.72160
 Alpha  occ. eigenvalues --   -1.70182  -1.63648  -1.60237  -1.58433  -1.56893
 Alpha  occ. eigenvalues --   -1.53102  -1.51387  -1.48805  -1.48441  -1.47534
 Alpha  occ. eigenvalues --   -1.44248  -1.43619  -1.41253  -1.38928  -1.36991
 Alpha  occ. eigenvalues --   -1.35214  -1.33849  -1.31836  -1.30980  -1.28769
 Alpha  occ. eigenvalues --   -1.28153  -1.27781  -1.23133  -1.22193  -1.18396
 Alpha  occ. eigenvalues --   -1.17586  -1.16263  -1.16002  -1.14372  -1.13169
 Alpha  occ. eigenvalues --   -1.12480  -1.09930  -1.08786  -1.06425  -1.04122
 Alpha  occ. eigenvalues --   -1.03225  -1.02498  -0.98656  -0.97673  -0.97242
 Alpha  occ. eigenvalues --   -0.96675  -0.95220  -0.94424  -0.93266  -0.92753
 Alpha  occ. eigenvalues --   -0.91677  -0.91263  -0.89492  -0.88677  -0.86515
 Alpha  occ. eigenvalues --   -0.86250  -0.83816  -0.83137  -0.82231  -0.79828
 Alpha  occ. eigenvalues --   -0.78833  -0.78673  -0.77550  -0.76908  -0.76832
 Alpha  occ. eigenvalues --   -0.75947  -0.75489  -0.74586  -0.73986  -0.73322
 Alpha  occ. eigenvalues --   -0.73044  -0.72637  -0.71800  -0.71221  -0.70783
 Alpha  occ. eigenvalues --   -0.70386  -0.70262  -0.69282  -0.68673  -0.68144
 Alpha  occ. eigenvalues --   -0.67755  -0.67279  -0.66879  -0.66694  -0.66351
 Alpha  occ. eigenvalues --   -0.66064  -0.65091  -0.64384  -0.64257  -0.63470
 Alpha  occ. eigenvalues --   -0.63033  -0.62557  -0.62437  -0.62152  -0.61665
 Alpha  occ. eigenvalues --   -0.61552  -0.61331  -0.60840  -0.60215  -0.60172
 Alpha  occ. eigenvalues --   -0.59921  -0.59706  -0.59183  -0.58390  -0.58071
 Alpha  occ. eigenvalues --   -0.57997  -0.57895  -0.57609  -0.56892  -0.56619
 Alpha  occ. eigenvalues --   -0.56412  -0.55981  -0.55900  -0.55263  -0.55046
 Alpha  occ. eigenvalues --   -0.54748  -0.54499  -0.53921  -0.53597  -0.53539
 Alpha  occ. eigenvalues --   -0.53212  -0.52935  -0.52234  -0.52208  -0.52060
 Alpha  occ. eigenvalues --   -0.51633  -0.51377  -0.50887  -0.50687  -0.50314
 Alpha  occ. eigenvalues --   -0.50172  -0.49895  -0.49781  -0.49370  -0.49252
 Alpha  occ. eigenvalues --   -0.48892  -0.48788  -0.48579  -0.48241  -0.47940
 Alpha  occ. eigenvalues --   -0.47745  -0.47263  -0.47132  -0.46606  -0.46430
 Alpha  occ. eigenvalues --   -0.46145  -0.45907  -0.45598  -0.45438  -0.45157
 Alpha  occ. eigenvalues --   -0.44981  -0.44740  -0.44693  -0.44280  -0.44016
 Alpha  occ. eigenvalues --   -0.43912  -0.42754  -0.42593  -0.42193  -0.41785
 Alpha  occ. eigenvalues --   -0.41560  -0.41432  -0.41126  -0.39858  -0.39022
 Alpha  occ. eigenvalues --   -0.38675  -0.37107  -0.35582  -0.35243  -0.35068
 Alpha  occ. eigenvalues --   -0.33415  -0.33289  -0.32718  -0.31672  -0.26691
 Alpha  occ. eigenvalues --   -0.21978
 Alpha virt. eigenvalues --   -0.08756  -0.02079  -0.00811   0.00495   0.01142
 Alpha virt. eigenvalues --    0.01663   0.02521   0.03052   0.04497   0.04531
 Alpha virt. eigenvalues --    0.06005   0.06612   0.07172   0.07527   0.07805

 Mulliken charges:
               1
     1  Mg   0.430128
     2  C   -0.047103
     3  C   -0.076740
     4  C   -0.100895
     5  C   -0.061698
     6  N   -0.291222
     7  C    0.112777
     8  C    0.002760
     9  C    0.008482
    10  C    0.133417
    11  C   -0.055846
    12  C   -0.015115
    13  C    0.003662
    14  C    0.466495
    15  O   -0.515573
    16  O   -0.270299
    17  N   -0.327177
    18  C    0.119337
    19  C    0.039625
    20  C   -0.064645
    21  C    0.139348
    22  C   -0.037777
    23  C    0.315901
    24  O   -0.509976
    25  C   -0.032304
    26  N   -0.262894
    27  C    0.140950
    28  C    0.012924
    29  C   -0.009432
    30  C    0.126600
    31  C   -0.048437
    32  C   -0.043489
    33  C   -0.056482
    34  N   -0.313416
    35  C    0.092066
    36  C    0.037651
    37  C   -0.052783
    38  C    0.125727
    39  C   -0.038176
    40  C    0.321657
    41  O   -0.526423
    42  C    0.057970
    43  C    0.498477
    44  O   -0.528106
    45  O   -0.271526
    46  C    0.071534
    47  C    0.102137
    48  C   -0.093768
    49  C   -0.001447
    50  C   -0.043515
    51  C   -0.029179
    52  C   -0.031740
    53  C   -0.036523
    54  C   -0.010321
    55  C   -0.059381
    56  C   -0.040411
    57  C   -0.043247
    58  C   -0.036019
    59  C   -0.021747
    60  C   -0.054407
    61  C   -0.030996
    62  C   -0.031735
    63  C   -0.036080
    64  C   -0.018336
    65  C   -0.065468
    66  C   -0.055532
    67  H    0.025953
    68  H    0.017635
    69  H    0.021404
    70  H    0.034130
    71  H    0.025181
    72  H    0.030806
    73  H    0.027527
    74  H    0.018797
    75  H    0.030959
    76  H    0.032031
    77  H    0.037122
    78  H    0.049820
    79  H    0.044955
    80  H    0.023985
    81  H    0.035350
    82  H    0.038919
    83  H    0.034066
    84  H    0.039493
    85  H    0.027656
    86  H    0.034413
    87  H    0.018263
    88  H    0.024302
    89  H    0.023097
    90  H    0.026088
    91  H    0.029515
    92  H    0.022701
    93  H    0.018411
    94  H    0.024825
    95  H    0.033164
    96  H    0.039221
    97  H    0.017454
    98  H    0.056690
    99  H    0.042902
   100  H    0.051033
   101  H    0.040444
   102  H    0.027450
   103  H    0.064363
   104  H    0.026754
   105  H    0.019065
   106  H    0.030696
   107  H    0.039031
   108  H    0.021803
   109  H    0.022903
   110  H    0.021771
   111  H    0.019458
   112  H    0.033184
   113  H    0.015454
   114  H    0.020698
   115  H    0.011921
   116  H    0.005965
   117  H    0.022565
   118  H    0.008087
   119  H    0.023973
   120  H    0.017541
   121  H    0.029701
   122  H    0.024286
   123  H    0.016739
   124  H    0.009201
   125  H    0.023502
   126  H    0.015675
   127  H    0.012608
   128  H    0.023190
   129  H    0.018053
   130  H    0.014051
   131  H    0.027706
   132  H    0.025859
   133  H    0.020399
   134  H    0.013895
   135  H    0.018051
   136  H    0.026790
   137  H    0.009324
   138  H    0.020365
   139  H    0.018585
   140  H    0.018793
 Sum of Mulliken charges =  -0.00000

 Dipole moment (field-independent basis, Debye):
    X=             -1.5115    Y=              2.8227    Z=              5.7518  Tot=              6.5830
 N-N= 4.449818207408D+03 E-N= 0.000000000000D+00  KE=-9.573222161902D+03
 Leave Link  601 at Thu May  5 14:26:46 2022, MaxMem=  6710886400 cpu:               1.6 elap:               0.1
 (Enter /sw/apps/gaussian-16.0/g16/l9999.exe)
 1\1\GINC-BP1-COMPUTE181\SP\RZINDO CIS\STO-3G\C55H74Mg1N4O6\OF15641\05-
 May-2022\0\\#p ZINDO=(nstates=5)\\step_901_chromophore_23 ZINDO\\0,1\M
 g,0,-11.114,40.407,42.437\C,0,-9.514,37.654,41.096\C,0,-8.759,42.435,4
 0.851\C,0,-12.891,43.11,43.322\C,0,-13.815,38.379,43.244\N,0,-9.386,40
 .067,40.972\C,0,-8.891,38.817,40.621\C,0,-7.704,38.917,39.592\C,0,-7.4
 08,40.43,39.716\C,0,-8.563,41.069,40.596\C,0,-5.981,40.791,40.308\C,0,
 -7.84,38.206,38.236\C,0,-7.094,36.84,38.054\C,0,-5.942,36.758,37.059\O

 Normal termination of Gaussian 16 at Thu May  5 14:26:46 2022.
