 Gaussian 16, Revision A.03,
 Gaussian 16:  ES64L-G16RevA.03 25-Dec-2016

 ------------------------------
 #p blyp/Def2SVP td=(nstates=5)
 ------------------------------

 --------------------------------------------------
 step_1001_chromophore_5 TDDFT with blyp functional
 --------------------------------------------------
 Symbolic Z-matrix:
 Charge =  0 Multiplicity = 1

                         Standard orientation:
 ---------------------------------------------------------------------
 Center     Atomic      Atomic             Coordinates (Angstroms)
 Number     Number       Type             X           Y           Z
 ---------------------------------------------------------------------
      1         12           0        5.724414    0.616139   -0.133158
      2          6           0        4.405183   -2.687236   -0.110136
      3          6           0        3.400902    1.418637   -2.617254
      4          6           0        6.617571    3.809296    0.235721
      5          6           0        7.668253   -0.289362    2.740617
      6          7           0        3.995616   -0.498377   -1.143527
      7          6           0        3.739957   -1.835307   -1.086579
      8          6           0        2.630559   -2.253562   -2.051772
      9          6           0        2.715893   -1.096936   -3.189389
     10          6           0        3.348926    0.017410   -2.229959
     11          6           0        3.502822   -1.391471   -4.462850
     12          6           0        1.298102   -2.307729   -1.292230
     13          6           0        0.104542   -2.855601   -2.054609
     14          6           0       -1.190453   -2.920169   -1.291833
     15          8           0       -1.499176   -3.821616   -0.565131
     16          8           0       -1.999788   -1.809071   -1.573200
     17          7           0        4.988980    2.401574   -0.965954
     18          6           0        4.111548    2.502403   -2.008147
     19          6           0        4.082381    3.915561   -2.434151
     20          6           0        5.051670    4.592595   -1.634981
     21          6           0        5.601356    3.621703   -0.741129
     22          6           0        3.154164    4.448631   -3.492363
     23          6           0        5.396264    6.148685   -1.713960
     24          8           0        4.825277    6.902916   -2.508675
     25          6           0        6.441754    6.794619   -0.839025
     26          7           0        6.870211    1.561681    1.319739
     27          6           0        7.128396    2.939752    1.196678
     28          6           0        8.212022    3.309620    2.155128
     29          6           0        8.252022    1.993175    3.138544
     30          6           0        7.619316    0.987259    2.311672
     31          6           0        9.499378    3.488702    1.397676
     32          6           0        7.597712    2.085902    4.577786
     33          6           0        8.593414    2.375176    5.772407
     34          7           0        6.193762   -1.166700    0.908120
     35          6           0        6.959380   -1.350632    2.029609
     36          6           0        6.950417   -2.747285    2.372735
     37          6           0        5.940075   -3.299345    1.538851
     38          6           0        5.461659   -2.261981    0.748774
     39          6           0        7.758594   -3.447436    3.366340
     40          6           0        5.327618   -4.580526    1.199586
     41          8           0        5.528431   -5.755032    1.565924
     42          6           0        4.273594   -4.189424    0.159423
     43          6           0        4.389389   -5.118278   -1.074378
     44          8           0        3.698627   -6.114588   -1.304658
     45          8           0        5.331114   -4.615540   -2.035289
     46          6           0        5.420230   -5.379051   -3.298733
     47          6           0       -3.441573   -1.941663   -1.214557
     48          6           0       -3.961877   -0.664903   -0.632465
     49          6           0       -5.172109   -0.612621   -0.026215
     50          6           0       -6.196413   -1.712975   -0.048675
     51          6           0       -5.646845    0.664171    0.673182
     52          6           0       -6.337755    1.616802   -0.346078
     53          6           0       -7.624834    2.297890    0.107362
     54          6           0       -8.918649    1.597579   -0.318730
     55          6           0       -9.760068    2.454003   -1.302830
     56          6           0       -9.810484    1.325026    0.958055
     57          6           0      -10.120686   -0.174254    1.198034
     58          6           0      -11.035872   -0.433476    2.406276
     59          6           0      -12.503718   -0.793307    2.036728
     60          6           0      -12.757462   -2.253826    2.496971
     61          6           0      -13.531198    0.217803    2.668798
     62          6           0      -14.944625    0.132401    2.030666
     63          6           0      -15.269028    1.301752    1.053203
     64          6           0      -15.465937    0.879750   -0.411628
     65          6           0      -14.149243    1.115309   -1.211027
     66          6           0      -16.597384    1.612290   -1.164544
     67          1           0        2.886836    1.548174   -3.571489
     68          1           0        7.096163    4.783245    0.357021
     69          1           0        8.222329   -0.563205    3.640491
     70          1           0        2.955735   -3.200983   -2.480677
     71          1           0        1.713547   -0.740425   -3.426482
     72          1           0        3.232306   -2.394601   -4.792426
     73          1           0        4.568060   -1.428108   -4.235055
     74          1           0        3.419680   -0.739698   -5.332765
     75          1           0        0.967761   -1.353102   -0.882982
     76          1           0        1.527014   -3.050998   -0.529162
     77          1           0        0.418963   -3.872745   -2.287800
     78          1           0       -0.149424   -2.336524   -2.978900
     79          1           0        2.894149    3.690162   -4.230763
     80          1           0        3.605700    5.231040   -4.102184
     81          1           0        2.315449    4.928053   -2.986635
     82          1           0        7.387943    6.277968   -1.002145
     83          1           0        6.126373    6.686901    0.198823
     84          1           0        6.578343    7.831723   -1.146805
     85          1           0        8.047715    4.285910    2.610898
     86          1           0        9.285737    1.715562    3.342699
     87          1           0        9.536638    4.441103    0.868430
     88          1           0        9.472737    2.800126    0.553929
     89          1           0       10.382890    3.200759    1.969103
     90          1           0        7.093017    1.144332    4.796936
     91          1           0        6.812533    2.842255    4.579571
     92          1           0        9.623583    2.270161    5.429682
     93          1           0        8.433988    1.753863    6.653383
     94          1           0        8.353813    3.418937    5.976211
     95          1           0        7.262295   -3.575564    4.328155
     96          1           0        8.726271   -2.955677    3.456353
     97          1           0        7.914258   -4.455765    2.982492
     98          1           0        3.269066   -4.357213    0.546391
     99          1           0        4.461048   -5.434425   -3.814512
    100          1           0        5.796568   -6.378148   -3.079958
    101          1           0        6.137216   -4.715242   -3.782887
    102          1           0       -3.618798   -2.646240   -0.401399
    103          1           0       -4.017655   -2.293989   -2.070000
    104          1           0       -3.346797    0.216175   -0.815856
    105          1           0       -6.200512   -2.136162    0.955994
    106          1           0       -5.916347   -2.551174   -0.686410
    107          1           0       -7.108884   -1.264364   -0.439788
    108          1           0       -4.801830    1.115556    1.192595
    109          1           0       -6.318268    0.391535    1.486663
    110          1           0       -6.603597    0.997047   -1.202620
    111          1           0       -5.603812    2.361129   -0.655705
    112          1           0       -7.499034    3.338834   -0.189562
    113          1           0       -7.467484    2.316751    1.185825
    114          1           0       -8.664855    0.664365   -0.821294
    115          1           0       -9.887451    3.493126   -0.999776
    116          1           0      -10.711827    1.934505   -1.411976
    117          1           0       -9.225106    2.458429   -2.253204
    118          1           0      -10.751176    1.875677    0.980034
    119          1           0       -9.328992    1.854169    1.781486
    120          1           0       -9.180981   -0.718388    1.282382
    121          1           0      -10.577367   -0.687225    0.351627
    122          1           0      -11.086251    0.520601    2.932275
    123          1           0      -10.482970   -1.175076    2.982259
    124          1           0      -12.711911   -0.711664    0.970010
    125          1           0      -13.362379   -2.226094    3.402836
    126          1           0      -11.920162   -2.805197    2.924345
    127          1           0      -13.194204   -2.892974    1.729660
    128          1           0      -13.149614    1.232119    2.556538
    129          1           0      -13.656286   -0.025456    3.724469
    130          1           0      -15.705038    0.122760    2.811071
    131          1           0      -14.975933   -0.788098    1.446616
    132          1           0      -14.372719    1.921176    1.093543
    133          1           0      -16.087912    1.902117    1.450374
    134          1           0      -15.671563   -0.189574   -0.449000
    135          1           0      -13.430035    0.507959   -0.661884
    136          1           0      -14.010049    2.173571   -0.989728
    137          1           0      -14.336040    0.883704   -2.259982
    138          1           0      -16.356960    2.078837   -2.120387
    139          1           0      -17.069213    2.395977   -0.572356
    140          1           0      -17.388184    0.886967   -1.352726
 ---------------------------------------------------------------------

 SCF Done:  E(RB-LYP) =  -3007.39391216     A.U. after   21 cycles

 Excitation energies and oscillator strengths:

 Excited State   1:      Singlet-A      1.8162 eV  682.65 nm  f=0.2898  <S**2>=0.000
     245 -> 248       -0.20244
     246 -> 247        0.68317
     246 <- 247       -0.14909
 This state for optimization and/or second-order correction.
 Total Energy, E(TD-HF/TD-DFT) =  -3007.32716782
 Copying the excited state density for this state as the 1-particle RhoCI density.

 Excited State   2:      Singlet-A      1.8905 eV  655.84 nm  f=0.0077  <S**2>=0.000
     244 -> 247        0.69980

 Excited State   3:      Singlet-A      1.9126 eV  648.24 nm  f=0.0020  <S**2>=0.000
     243 -> 247        0.69569
     245 -> 247        0.11655

 Excited State   4:      Singlet-A      1.9981 eV  620.51 nm  f=0.0010  <S**2>=0.000
     242 -> 247        0.70432

 Excited State   5:      Singlet-A      2.0158 eV  615.05 nm  f=0.0812  <S**2>=0.000
     243 -> 247       -0.11862
     245 -> 247        0.63599
     246 -> 248        0.25231

 The electronic state is 1-A.
 Alpha  occ. eigenvalues --  -46.27796 -18.81564 -18.81497 -18.77448 -18.76924
 Alpha  occ. eigenvalues --  -18.76056 -18.75914 -14.04147 -14.03160 -14.01535
 Alpha  occ. eigenvalues --  -14.01194 -10.04494 -10.03785 -10.00742  -9.99871
 Alpha  occ. eigenvalues --   -9.97855  -9.97426  -9.97346  -9.97340  -9.96912
 Alpha  occ. eigenvalues --   -9.96480  -9.96254  -9.95833  -9.95810  -9.95352
 Alpha  occ. eigenvalues --   -9.95075  -9.94738  -9.94735  -9.94676  -9.94332
 Alpha  occ. eigenvalues --   -9.94037  -9.94008  -9.93997  -9.93971  -9.93382
 Alpha  occ. eigenvalues --   -9.93270  -9.93259  -9.93220  -9.93153  -9.93088
 Alpha  occ. eigenvalues --   -9.92946  -9.92686  -9.92597  -9.92471  -9.92405
 Alpha  occ. eigenvalues --   -9.92370  -9.92211  -9.92178  -9.92094  -9.91943
 Alpha  occ. eigenvalues --   -9.91729  -9.91639  -9.91296  -9.91283  -9.91118
 Alpha  occ. eigenvalues --   -9.91087  -9.91049  -9.90976  -9.90928  -9.90923
 Alpha  occ. eigenvalues --   -9.90902  -9.90868  -9.90739  -9.90720  -9.90693
 Alpha  occ. eigenvalues --   -9.90484  -2.92347  -1.72767  -1.72234  -1.72051
 Alpha  occ. eigenvalues --   -0.97023  -0.95785  -0.91246  -0.90211  -0.89944
 Alpha  occ. eigenvalues --   -0.88855  -0.87266  -0.86180  -0.85780  -0.85039
 Alpha  occ. eigenvalues --   -0.75707  -0.73735  -0.73367  -0.73078  -0.72862
 Alpha  occ. eigenvalues --   -0.71975  -0.71808  -0.70908  -0.70817  -0.70437
 Alpha  occ. eigenvalues --   -0.69545  -0.69261  -0.68201  -0.67725  -0.67459
 Alpha  occ. eigenvalues --   -0.66555  -0.65943  -0.65494  -0.64926  -0.64450
 Alpha  occ. eigenvalues --   -0.64006  -0.62956  -0.62560  -0.62015  -0.60908
 Alpha  occ. eigenvalues --   -0.60506  -0.59962  -0.59845  -0.59244  -0.58801
 Alpha  occ. eigenvalues --   -0.58084  -0.57629  -0.56844  -0.55522  -0.54538
 Alpha  occ. eigenvalues --   -0.54060  -0.53955  -0.52468  -0.52103  -0.51688
 Alpha  occ. eigenvalues --   -0.51311  -0.51066  -0.50725  -0.50369  -0.49876
 Alpha  occ. eigenvalues --   -0.49505  -0.49438  -0.48893  -0.48721  -0.46610
 Alpha  occ. eigenvalues --   -0.46395  -0.46093  -0.46002  -0.45366  -0.44804
 Alpha  occ. eigenvalues --   -0.43345  -0.43129  -0.43060  -0.42782  -0.42376
 Alpha  occ. eigenvalues --   -0.42135  -0.41638  -0.41410  -0.41308  -0.40993
 Alpha  occ. eigenvalues --   -0.40623  -0.40557  -0.40468  -0.40257  -0.40049
 Alpha  occ. eigenvalues --   -0.39985  -0.39812  -0.39767  -0.39615  -0.39220
 Alpha  occ. eigenvalues --   -0.39125  -0.39086  -0.38949  -0.38882  -0.38681
 Alpha  occ. eigenvalues --   -0.38242  -0.38041  -0.37819  -0.37741  -0.37421
 Alpha  occ. eigenvalues --   -0.37231  -0.37202  -0.37047  -0.36862  -0.36674
 Alpha  occ. eigenvalues --   -0.36578  -0.36278  -0.36104  -0.35968  -0.35806
 Alpha  occ. eigenvalues --   -0.35648  -0.35279  -0.35236  -0.35085  -0.35066
 Alpha  occ. eigenvalues --   -0.34889  -0.34619  -0.34384  -0.34299  -0.34175
 Alpha  occ. eigenvalues --   -0.34028  -0.33936  -0.33841  -0.33134  -0.33078
 Alpha  occ. eigenvalues --   -0.32992  -0.32818  -0.32749  -0.32594  -0.32403
 Alpha  occ. eigenvalues --   -0.32348  -0.31928  -0.31844  -0.31711  -0.31555
 Alpha  occ. eigenvalues --   -0.31378  -0.31154  -0.31027  -0.30867  -0.30665
 Alpha  occ. eigenvalues --   -0.30643  -0.30562  -0.30353  -0.30001  -0.29876
 Alpha  occ. eigenvalues --   -0.29832  -0.29707  -0.29488  -0.29368  -0.29217
 Alpha  occ. eigenvalues --   -0.28826  -0.28345  -0.28328  -0.28093  -0.27955
 Alpha  occ. eigenvalues --   -0.27432  -0.27129  -0.26906  -0.26700  -0.26685
 Alpha  occ. eigenvalues --   -0.26534  -0.26364  -0.26078  -0.25807  -0.25520
 Alpha  occ. eigenvalues --   -0.24907  -0.24846  -0.24650  -0.24085  -0.23797
 Alpha  occ. eigenvalues --   -0.23676  -0.22711  -0.21930  -0.21725  -0.20724
 Alpha  occ. eigenvalues --   -0.20433  -0.19344  -0.18933  -0.18890  -0.17650
 Alpha  occ. eigenvalues --   -0.16284
 Alpha virt. eigenvalues --   -0.12001  -0.07260  -0.06533  -0.05033  -0.03540
 Alpha virt. eigenvalues --   -0.03325  -0.02803  -0.01885  -0.01689  -0.00450
 Alpha virt. eigenvalues --    0.00753   0.01471   0.01757   0.02487   0.02640

 Mulliken charges:
               1
     1  Mg   0.689244
     2  C   -0.008989
     3  C   -0.044502
     4  C   -0.043001
     5  C   -0.108351
     6  N   -0.179390
     7  C   -0.076018
     8  C    0.022044
     9  C    0.009331
    10  C   -0.055572
    11  C    0.148905
    12  C    0.109292
    13  C    0.160872
    14  C    0.071663
    15  O   -0.154374
    16  O   -0.309970
    17  N   -0.285819
    18  C    0.150662
    19  C   -0.153026
    20  C    0.025805
    21  C    0.149718
    22  C    0.185213
    23  C   -0.072132
    24  O   -0.168231
    25  C    0.153036
    26  N   -0.278793
    27  C    0.009996
    28  C    0.023391
    29  C    0.050117
    30  C    0.094428
    31  C    0.124360
    32  C    0.062839
    33  C    0.059372
    34  N   -0.232992
    35  C    0.099729
    36  C   -0.185924
    37  C    0.054359
    38  C    0.080586
    39  C    0.177279
    40  C   -0.021136
    41  O   -0.145773
    42  C    0.080011
    43  C    0.123780
    44  O   -0.173730
    45  O   -0.326949
    46  C    0.219281
    47  C    0.294668
    48  C   -0.093710
    49  C   -0.191199
    50  C    0.156300
    51  C    0.135925
    52  C    0.041295
    53  C    0.127654
    54  C   -0.039619
    55  C    0.092265
    56  C    0.094448
    57  C    0.040988
    58  C    0.144783
    59  C   -0.083376
    60  C    0.107838
    61  C    0.078080
    62  C    0.073973
    63  C    0.107277
    64  C   -0.105305
    65  C    0.085067
    66  C    0.102515
    67  H   -0.057308
    68  H   -0.094757
    69  H   -0.048314
    70  H   -0.035488
    71  H   -0.030308
    72  H   -0.008328
    73  H   -0.011174
    74  H    0.001999
    75  H   -0.005708
    76  H   -0.009488
    77  H   -0.010092
    78  H   -0.011904
    79  H   -0.015938
    80  H   -0.003317
    81  H    0.013296
    82  H    0.014589
    83  H    0.020255
    84  H   -0.005685
    85  H   -0.033304
    86  H   -0.042588
    87  H   -0.006938
    88  H   -0.023338
    89  H   -0.002159
    90  H   -0.017334
    91  H   -0.019294
    92  H   -0.007229
    93  H    0.003930
    94  H   -0.000962
    95  H    0.009184
    96  H   -0.011832
    97  H    0.006606
    98  H    0.017046
    99  H    0.017111
   100  H    0.025783
   101  H    0.016645
   102  H    0.011454
   103  H    0.008704
   104  H   -0.033805
   105  H    0.009510
   106  H   -0.025279
   107  H    0.015063
   108  H   -0.027034
   109  H   -0.035447
   110  H   -0.028026
   111  H   -0.029156
   112  H   -0.042780
   113  H   -0.038165
   114  H   -0.029103
   115  H   -0.008597
   116  H   -0.001002
   117  H   -0.024523
   118  H   -0.044690
   119  H   -0.043403
   120  H   -0.042788
   121  H   -0.035619
   122  H   -0.039107
   123  H   -0.030122
   124  H   -0.026353
   125  H   -0.029147
   126  H   -0.024631
   127  H   -0.008960
   128  H   -0.025522
   129  H   -0.033314
   130  H   -0.032547
   131  H   -0.029704
   132  H   -0.045271
   133  H   -0.031148
   134  H   -0.034259
   135  H   -0.008416
   136  H   -0.005984
   137  H    0.000177
   138  H   -0.019656
   139  H   -0.025205
   140  H   -0.020306
 Sum of Mulliken charges =  -0.00000

 Dipole moment (field-independent basis, Debye):
    X=              1.3984    Y=              4.0401    Z=             -0.7561  Tot=              4.3416
 Quadrupole moment (field-independent basis, Debye-Ang):
   XX=           -346.0914   YY=           -469.4142   ZZ=           -384.7018
   XY=             21.4504   XZ=              5.2071   YZ=             31.5934

 Normal termination of Gaussian 16 at Tue Apr 26 23:35:59 2022.
