 Gaussian 16, Revision A.03,
 Gaussian 16:  ES64L-G16RevA.03 25-Dec-2016

 -----------------------------------
 #p cam-b3lyp/Def2SVP td=(nstates=5)
 -----------------------------------

 -------------------------------------------------------
 step_1001_chromophore_5 TDDFT with cam-b3lyp functional
 -------------------------------------------------------
 Symbolic Z-matrix:
 Charge =  0 Multiplicity = 1

                         Standard orientation:
 ---------------------------------------------------------------------
 Center     Atomic      Atomic             Coordinates (Angstroms)
 Number     Number       Type             X           Y           Z
 ---------------------------------------------------------------------
      1         12           0        5.724414    0.616139   -0.133158
      2          6           0        4.405183   -2.687236   -0.110136
      3          6           0        3.400902    1.418637   -2.617254
      4          6           0        6.617571    3.809296    0.235721
      5          6           0        7.668253   -0.289362    2.740617
      6          7           0        3.995616   -0.498377   -1.143527
      7          6           0        3.739957   -1.835307   -1.086579
      8          6           0        2.630559   -2.253562   -2.051772
      9          6           0        2.715893   -1.096936   -3.189389
     10          6           0        3.348926    0.017410   -2.229959
     11          6           0        3.502822   -1.391471   -4.462850
     12          6           0        1.298102   -2.307729   -1.292230
     13          6           0        0.104542   -2.855601   -2.054609
     14          6           0       -1.190453   -2.920169   -1.291833
     15          8           0       -1.499176   -3.821616   -0.565131
     16          8           0       -1.999788   -1.809071   -1.573200
     17          7           0        4.988980    2.401574   -0.965954
     18          6           0        4.111548    2.502403   -2.008147
     19          6           0        4.082381    3.915561   -2.434151
     20          6           0        5.051670    4.592595   -1.634981
     21          6           0        5.601356    3.621703   -0.741129
     22          6           0        3.154164    4.448631   -3.492363
     23          6           0        5.396264    6.148685   -1.713960
     24          8           0        4.825277    6.902916   -2.508675
     25          6           0        6.441754    6.794619   -0.839025
     26          7           0        6.870211    1.561681    1.319739
     27          6           0        7.128396    2.939752    1.196678
     28          6           0        8.212022    3.309620    2.155128
     29          6           0        8.252022    1.993175    3.138544
     30          6           0        7.619316    0.987259    2.311672
     31          6           0        9.499378    3.488702    1.397676
     32          6           0        7.597712    2.085902    4.577786
     33          6           0        8.593414    2.375176    5.772407
     34          7           0        6.193762   -1.166700    0.908120
     35          6           0        6.959380   -1.350632    2.029609
     36          6           0        6.950417   -2.747285    2.372735
     37          6           0        5.940075   -3.299345    1.538851
     38          6           0        5.461659   -2.261981    0.748774
     39          6           0        7.758594   -3.447436    3.366340
     40          6           0        5.327618   -4.580526    1.199586
     41          8           0        5.528431   -5.755032    1.565924
     42          6           0        4.273594   -4.189424    0.159423
     43          6           0        4.389389   -5.118278   -1.074378
     44          8           0        3.698627   -6.114588   -1.304658
     45          8           0        5.331114   -4.615540   -2.035289
     46          6           0        5.420230   -5.379051   -3.298733
     47          6           0       -3.441573   -1.941663   -1.214557
     48          6           0       -3.961877   -0.664903   -0.632465
     49          6           0       -5.172109   -0.612621   -0.026215
     50          6           0       -6.196413   -1.712975   -0.048675
     51          6           0       -5.646845    0.664171    0.673182
     52          6           0       -6.337755    1.616802   -0.346078
     53          6           0       -7.624834    2.297890    0.107362
     54          6           0       -8.918649    1.597579   -0.318730
     55          6           0       -9.760068    2.454003   -1.302830
     56          6           0       -9.810484    1.325026    0.958055
     57          6           0      -10.120686   -0.174254    1.198034
     58          6           0      -11.035872   -0.433476    2.406276
     59          6           0      -12.503718   -0.793307    2.036728
     60          6           0      -12.757462   -2.253826    2.496971
     61          6           0      -13.531198    0.217803    2.668798
     62          6           0      -14.944625    0.132401    2.030666
     63          6           0      -15.269028    1.301752    1.053203
     64          6           0      -15.465937    0.879750   -0.411628
     65          6           0      -14.149243    1.115309   -1.211027
     66          6           0      -16.597384    1.612290   -1.164544
     67          1           0        2.886836    1.548174   -3.571489
     68          1           0        7.096163    4.783245    0.357021
     69          1           0        8.222329   -0.563205    3.640491
     70          1           0        2.955735   -3.200983   -2.480677
     71          1           0        1.713547   -0.740425   -3.426482
     72          1           0        3.232306   -2.394601   -4.792426
     73          1           0        4.568060   -1.428108   -4.235055
     74          1           0        3.419680   -0.739698   -5.332765
     75          1           0        0.967761   -1.353102   -0.882982
     76          1           0        1.527014   -3.050998   -0.529162
     77          1           0        0.418963   -3.872745   -2.287800
     78          1           0       -0.149424   -2.336524   -2.978900
     79          1           0        2.894149    3.690162   -4.230763
     80          1           0        3.605700    5.231040   -4.102184
     81          1           0        2.315449    4.928053   -2.986635
     82          1           0        7.387943    6.277968   -1.002145
     83          1           0        6.126373    6.686901    0.198823
     84          1           0        6.578343    7.831723   -1.146805
     85          1           0        8.047715    4.285910    2.610898
     86          1           0        9.285737    1.715562    3.342699
     87          1           0        9.536638    4.441103    0.868430
     88          1           0        9.472737    2.800126    0.553929
     89          1           0       10.382890    3.200759    1.969103
     90          1           0        7.093017    1.144332    4.796936
     91          1           0        6.812533    2.842255    4.579571
     92          1           0        9.623583    2.270161    5.429682
     93          1           0        8.433988    1.753863    6.653383
     94          1           0        8.353813    3.418937    5.976211
     95          1           0        7.262295   -3.575564    4.328155
     96          1           0        8.726271   -2.955677    3.456353
     97          1           0        7.914258   -4.455765    2.982492
     98          1           0        3.269066   -4.357213    0.546391
     99          1           0        4.461048   -5.434425   -3.814512
    100          1           0        5.796568   -6.378148   -3.079958
    101          1           0        6.137216   -4.715242   -3.782887
    102          1           0       -3.618798   -2.646240   -0.401399
    103          1           0       -4.017655   -2.293989   -2.070000
    104          1           0       -3.346797    0.216175   -0.815856
    105          1           0       -6.200512   -2.136162    0.955994
    106          1           0       -5.916347   -2.551174   -0.686410
    107          1           0       -7.108884   -1.264364   -0.439788
    108          1           0       -4.801830    1.115556    1.192595
    109          1           0       -6.318268    0.391535    1.486663
    110          1           0       -6.603597    0.997047   -1.202620
    111          1           0       -5.603812    2.361129   -0.655705
    112          1           0       -7.499034    3.338834   -0.189562
    113          1           0       -7.467484    2.316751    1.185825
    114          1           0       -8.664855    0.664365   -0.821294
    115          1           0       -9.887451    3.493126   -0.999776
    116          1           0      -10.711827    1.934505   -1.411976
    117          1           0       -9.225106    2.458429   -2.253204
    118          1           0      -10.751176    1.875677    0.980034
    119          1           0       -9.328992    1.854169    1.781486
    120          1           0       -9.180981   -0.718388    1.282382
    121          1           0      -10.577367   -0.687225    0.351627
    122          1           0      -11.086251    0.520601    2.932275
    123          1           0      -10.482970   -1.175076    2.982259
    124          1           0      -12.711911   -0.711664    0.970010
    125          1           0      -13.362379   -2.226094    3.402836
    126          1           0      -11.920162   -2.805197    2.924345
    127          1           0      -13.194204   -2.892974    1.729660
    128          1           0      -13.149614    1.232119    2.556538
    129          1           0      -13.656286   -0.025456    3.724469
    130          1           0      -15.705038    0.122760    2.811071
    131          1           0      -14.975933   -0.788098    1.446616
    132          1           0      -14.372719    1.921176    1.093543
    133          1           0      -16.087912    1.902117    1.450374
    134          1           0      -15.671563   -0.189574   -0.449000
    135          1           0      -13.430035    0.507959   -0.661884
    136          1           0      -14.010049    2.173571   -0.989728
    137          1           0      -14.336040    0.883704   -2.259982
    138          1           0      -16.356960    2.078837   -2.120387
    139          1           0      -17.069213    2.395977   -0.572356
    140          1           0      -17.388184    0.886967   -1.352726
 ---------------------------------------------------------------------

 SCF Done:  E(RCAM-B3LYP) =  -3007.17912333     A.U. after   17 cycles

 Excitation energies and oscillator strengths:

 Excited State   1:      Singlet-A      1.6973 eV  730.49 nm  f=0.3711  <S**2>=0.000
     245 -> 248        0.18397
     246 -> 247        0.68513
     245 <- 248        0.10903
 This state for optimization and/or second-order correction.
 Total Energy, E(TD-HF/TD-DFT) =  -3007.11674927
 Copying the excited state density for this state as the 1-particle RhoCI density.

 Excited State   2:      Singlet-A      2.2276 eV  556.59 nm  f=0.1237  <S**2>=0.000
     245 -> 247        0.64179
     246 -> 248       -0.28475

 Excited State   3:      Singlet-A      3.2763 eV  378.42 nm  f=0.0009  <S**2>=0.000
     242 -> 247       -0.14069
     243 -> 247        0.66679

 Excited State   4:      Singlet-A      3.3783 eV  367.01 nm  f=0.0042  <S**2>=0.000
     242 -> 247        0.64999
     243 -> 247        0.10801
     246 -> 248        0.18123

 Excited State   5:      Singlet-A      3.4902 eV  355.23 nm  f=0.0159  <S**2>=0.000
     241 -> 247        0.55203
     241 -> 248        0.11577
     241 -> 249       -0.29011
     241 -> 251        0.17872
     246 -> 248       -0.12509

 The electronic state is 1-A.
 Alpha  occ. eigenvalues --  -46.89409 -19.24477 -19.24365 -19.20667 -19.19969
 Alpha  occ. eigenvalues --  -19.19319 -19.19198 -14.43352 -14.41812 -14.40112
 Alpha  occ. eigenvalues --  -14.39559 -10.40181 -10.39079 -10.36031 -10.35320
 Alpha  occ. eigenvalues --  -10.32037 -10.31975 -10.31836 -10.31568 -10.31404
 Alpha  occ. eigenvalues --  -10.31194 -10.30743 -10.30022 -10.29987 -10.29595
 Alpha  occ. eigenvalues --  -10.29387 -10.29282 -10.29260 -10.28888 -10.28865
 Alpha  occ. eigenvalues --  -10.28543 -10.28247 -10.27925 -10.27838 -10.27618
 Alpha  occ. eigenvalues --  -10.27360 -10.27272 -10.27207 -10.27166 -10.26886
 Alpha  occ. eigenvalues --  -10.26757 -10.26659 -10.26550 -10.26349 -10.26056
 Alpha  occ. eigenvalues --  -10.26052 -10.25968 -10.25930 -10.25866 -10.25649
 Alpha  occ. eigenvalues --  -10.25437 -10.25374 -10.25269 -10.24961 -10.24948
 Alpha  occ. eigenvalues --  -10.24824 -10.24749 -10.24725 -10.24691 -10.24545
 Alpha  occ. eigenvalues --  -10.24540 -10.24513 -10.24401 -10.24328 -10.24310
 Alpha  occ. eigenvalues --  -10.24075  -3.17858  -1.92756  -1.92316  -1.92149
 Alpha  occ. eigenvalues --   -1.15537  -1.14322  -1.09672  -1.08633  -1.07795
 Alpha  occ. eigenvalues --   -1.06760  -1.04942  -1.03948  -1.03443  -1.02625
 Alpha  occ. eigenvalues --   -0.92937  -0.90651  -0.90229  -0.89797  -0.89681
 Alpha  occ. eigenvalues --   -0.88693  -0.88293  -0.87509  -0.87468  -0.86942
 Alpha  occ. eigenvalues --   -0.86010  -0.85983  -0.84486  -0.83904  -0.83644
 Alpha  occ. eigenvalues --   -0.82650  -0.82115  -0.81534  -0.80769  -0.80274
 Alpha  occ. eigenvalues --   -0.79791  -0.78643  -0.78109  -0.77654  -0.76360
 Alpha  occ. eigenvalues --   -0.75899  -0.75269  -0.75184  -0.74518  -0.74039
 Alpha  occ. eigenvalues --   -0.73128  -0.72620  -0.71781  -0.70340  -0.69061
 Alpha  occ. eigenvalues --   -0.68673  -0.68569  -0.66937  -0.66490  -0.65663
 Alpha  occ. eigenvalues --   -0.65569  -0.65172  -0.64888  -0.64422  -0.63934
 Alpha  occ. eigenvalues --   -0.63479  -0.63218  -0.62860  -0.62444  -0.60273
 Alpha  occ. eigenvalues --   -0.60108  -0.59599  -0.59477  -0.58764  -0.58268
 Alpha  occ. eigenvalues --   -0.56727  -0.56481  -0.56353  -0.55956  -0.55508
 Alpha  occ. eigenvalues --   -0.55331  -0.54624  -0.54312  -0.54109  -0.53975
 Alpha  occ. eigenvalues --   -0.53448  -0.53318  -0.53253  -0.53006  -0.52828
 Alpha  occ. eigenvalues --   -0.52795  -0.52428  -0.52381  -0.52321  -0.52012
 Alpha  occ. eigenvalues --   -0.51909  -0.51782  -0.51366  -0.51262  -0.51127
 Alpha  occ. eigenvalues --   -0.50590  -0.50349  -0.50214  -0.49974  -0.49841
 Alpha  occ. eigenvalues --   -0.49540  -0.49359  -0.49320  -0.49146  -0.48916
 Alpha  occ. eigenvalues --   -0.48784  -0.48643  -0.48623  -0.48260  -0.48000
 Alpha  occ. eigenvalues --   -0.47743  -0.47538  -0.47439  -0.47130  -0.46919
 Alpha  occ. eigenvalues --   -0.46852  -0.46640  -0.46374  -0.46212  -0.45977
 Alpha  occ. eigenvalues --   -0.45905  -0.45739  -0.45548  -0.45029  -0.44769
 Alpha  occ. eigenvalues --   -0.44632  -0.44540  -0.44306  -0.44270  -0.44027
 Alpha  occ. eigenvalues --   -0.43876  -0.43674  -0.43412  -0.43320  -0.43241
 Alpha  occ. eigenvalues --   -0.42998  -0.42777  -0.42537  -0.42344  -0.42156
 Alpha  occ. eigenvalues --   -0.42149  -0.42024  -0.41993  -0.41602  -0.41404
 Alpha  occ. eigenvalues --   -0.40931  -0.40787  -0.40686  -0.40630  -0.40483
 Alpha  occ. eigenvalues --   -0.39864  -0.39479  -0.39270  -0.38892  -0.38868
 Alpha  occ. eigenvalues --   -0.38278  -0.37949  -0.37857  -0.37762  -0.37473
 Alpha  occ. eigenvalues --   -0.37434  -0.37101  -0.36746  -0.36721  -0.36487
 Alpha  occ. eigenvalues --   -0.36439  -0.36188  -0.35200  -0.34929  -0.34469
 Alpha  occ. eigenvalues --   -0.34192  -0.34003  -0.33274  -0.31448  -0.31215
 Alpha  occ. eigenvalues --   -0.31184  -0.30177  -0.29661  -0.28980  -0.24445
 Alpha  occ. eigenvalues --   -0.21662
 Alpha virt. eigenvalues --   -0.09234  -0.02203   0.00039   0.01702   0.01987
 Alpha virt. eigenvalues --    0.04197   0.04669   0.05391   0.05782   0.06810
 Alpha virt. eigenvalues --    0.07297   0.07804   0.08465   0.08554   0.08574

 Mulliken charges:
               1
     1  Mg   0.819952
     2  C   -0.021955
     3  C   -0.050757
     4  C   -0.076375
     5  C   -0.112968
     6  N   -0.239515
     7  C   -0.035882
     8  C   -0.028758
     9  C   -0.043697
    10  C   -0.039923
    11  C    0.092972
    12  C    0.058903
    13  C    0.090163
    14  C    0.155631
    15  O   -0.194566
    16  O   -0.376349
    17  N   -0.373906
    18  C    0.154180
    19  C   -0.156613
    20  C   -0.044780
    21  C    0.182666
    22  C    0.130345
    23  C    0.010500
    24  O   -0.208277
    25  C    0.066027
    26  N   -0.356056
    27  C    0.043740
    28  C   -0.042854
    29  C   -0.009304
    30  C    0.114490
    31  C    0.068472
    32  C    0.010980
    33  C   -0.000230
    34  N   -0.320456
    35  C    0.101358
    36  C   -0.180187
    37  C   -0.026528
    38  C    0.110960
    39  C    0.121679
    40  C    0.079251
    41  O   -0.184066
    42  C    0.004391
    43  C    0.207610
    44  O   -0.211258
    45  O   -0.388998
    46  C    0.180524
    47  C    0.261873
    48  C   -0.109775
    49  C   -0.218428
    50  C    0.094514
    51  C    0.078641
    52  C   -0.007567
    53  C    0.070217
    54  C   -0.102780
    55  C    0.043636
    56  C    0.043949
    57  C   -0.004148
    58  C    0.086762
    59  C   -0.137492
    60  C    0.048374
    61  C    0.028865
    62  C    0.018718
    63  C    0.051136
    64  C   -0.163589
    65  C    0.037224
    66  C    0.040953
    67  H   -0.021206
    68  H   -0.058420
    69  H   -0.012828
    70  H   -0.001391
    71  H    0.004994
    72  H    0.014750
    73  H    0.013417
    74  H    0.027077
    75  H    0.025807
    76  H    0.017854
    77  H    0.022396
    78  H    0.020218
    79  H    0.009001
    80  H    0.027700
    81  H    0.041105
    82  H    0.039546
    83  H    0.046591
    84  H    0.030964
    85  H    0.001856
    86  H   -0.006902
    87  H    0.016530
    88  H    0.003105
    89  H    0.023305
    90  H    0.013137
    91  H    0.008133
    92  H    0.013947
    93  H    0.027266
    94  H    0.020791
    95  H    0.035334
    96  H    0.012456
    97  H    0.033518
    98  H    0.058171
    99  H    0.036923
   100  H    0.048937
   101  H    0.040283
   102  H    0.042208
   103  H    0.033652
   104  H    0.002498
   105  H    0.034450
   106  H    0.000834
   107  H    0.033020
   108  H    0.004656
   109  H   -0.006290
   110  H   -0.000635
   111  H    0.000352
   112  H   -0.011208
   113  H   -0.009464
   114  H   -0.000015
   115  H    0.014006
   116  H    0.019348
   117  H   -0.000329
   118  H   -0.019035
   119  H   -0.013041
   120  H   -0.017345
   121  H   -0.008636
   122  H   -0.009848
   123  H    0.000145
   124  H    0.000229
   125  H   -0.004665
   126  H    0.001081
   127  H    0.014652
   128  H    0.000186
   129  H   -0.004598
   130  H   -0.001311
   131  H   -0.003049
   132  H   -0.017273
   133  H   -0.000768
   134  H   -0.002720
   135  H    0.004999
   136  H    0.014799
   137  H    0.023822
   138  H    0.005564
   139  H   -0.000645
   140  H    0.004390
 Sum of Mulliken charges =  -0.00000

 Dipole moment (field-independent basis, Debye):
    X=              1.3788    Y=              4.4707    Z=             -1.1585  Tot=              4.8198
 Quadrupole moment (field-independent basis, Debye-Ang):
   XX=           -345.4640   YY=           -468.2398   ZZ=           -382.8412
   XY=             24.2829   XZ=              4.1166   YZ=             32.2894

 Normal termination of Gaussian 16 at Tue Apr 26 22:40:05 2022.
