 Gaussian 16, Revision A.03,
 Gaussian 16:  ES64L-G16RevA.03 25-Dec-2016

 ---------------------------------
 #p PBE1PBE/Def2SVP td=(nstates=5)
 ---------------------------------

 -----------------------------------------------------
 step_1001_chromophore_5 TDDFT with PBE1PBE functional
 -----------------------------------------------------
 Symbolic Z-matrix:
 Charge =  0 Multiplicity = 1

                         Standard orientation:
 ---------------------------------------------------------------------
 Center     Atomic      Atomic             Coordinates (Angstroms)
 Number     Number       Type             X           Y           Z
 ---------------------------------------------------------------------
      1         12           0        5.724414    0.616139   -0.133158
      2          6           0        4.405183   -2.687236   -0.110136
      3          6           0        3.400902    1.418637   -2.617254
      4          6           0        6.617571    3.809296    0.235721
      5          6           0        7.668253   -0.289362    2.740617
      6          7           0        3.995616   -0.498377   -1.143527
      7          6           0        3.739957   -1.835307   -1.086579
      8          6           0        2.630559   -2.253562   -2.051772
      9          6           0        2.715893   -1.096936   -3.189389
     10          6           0        3.348926    0.017410   -2.229959
     11          6           0        3.502822   -1.391471   -4.462850
     12          6           0        1.298102   -2.307729   -1.292230
     13          6           0        0.104542   -2.855601   -2.054609
     14          6           0       -1.190453   -2.920169   -1.291833
     15          8           0       -1.499176   -3.821616   -0.565131
     16          8           0       -1.999788   -1.809071   -1.573200
     17          7           0        4.988980    2.401574   -0.965954
     18          6           0        4.111548    2.502403   -2.008147
     19          6           0        4.082381    3.915561   -2.434151
     20          6           0        5.051670    4.592595   -1.634981
     21          6           0        5.601356    3.621703   -0.741129
     22          6           0        3.154164    4.448631   -3.492363
     23          6           0        5.396264    6.148685   -1.713960
     24          8           0        4.825277    6.902916   -2.508675
     25          6           0        6.441754    6.794619   -0.839025
     26          7           0        6.870211    1.561681    1.319739
     27          6           0        7.128396    2.939752    1.196678
     28          6           0        8.212022    3.309620    2.155128
     29          6           0        8.252022    1.993175    3.138544
     30          6           0        7.619316    0.987259    2.311672
     31          6           0        9.499378    3.488702    1.397676
     32          6           0        7.597712    2.085902    4.577786
     33          6           0        8.593414    2.375176    5.772407
     34          7           0        6.193762   -1.166700    0.908120
     35          6           0        6.959380   -1.350632    2.029609
     36          6           0        6.950417   -2.747285    2.372735
     37          6           0        5.940075   -3.299345    1.538851
     38          6           0        5.461659   -2.261981    0.748774
     39          6           0        7.758594   -3.447436    3.366340
     40          6           0        5.327618   -4.580526    1.199586
     41          8           0        5.528431   -5.755032    1.565924
     42          6           0        4.273594   -4.189424    0.159423
     43          6           0        4.389389   -5.118278   -1.074378
     44          8           0        3.698627   -6.114588   -1.304658
     45          8           0        5.331114   -4.615540   -2.035289
     46          6           0        5.420230   -5.379051   -3.298733
     47          6           0       -3.441573   -1.941663   -1.214557
     48          6           0       -3.961877   -0.664903   -0.632465
     49          6           0       -5.172109   -0.612621   -0.026215
     50          6           0       -6.196413   -1.712975   -0.048675
     51          6           0       -5.646845    0.664171    0.673182
     52          6           0       -6.337755    1.616802   -0.346078
     53          6           0       -7.624834    2.297890    0.107362
     54          6           0       -8.918649    1.597579   -0.318730
     55          6           0       -9.760068    2.454003   -1.302830
     56          6           0       -9.810484    1.325026    0.958055
     57          6           0      -10.120686   -0.174254    1.198034
     58          6           0      -11.035872   -0.433476    2.406276
     59          6           0      -12.503718   -0.793307    2.036728
     60          6           0      -12.757462   -2.253826    2.496971
     61          6           0      -13.531198    0.217803    2.668798
     62          6           0      -14.944625    0.132401    2.030666
     63          6           0      -15.269028    1.301752    1.053203
     64          6           0      -15.465937    0.879750   -0.411628
     65          6           0      -14.149243    1.115309   -1.211027
     66          6           0      -16.597384    1.612290   -1.164544
     67          1           0        2.886836    1.548174   -3.571489
     68          1           0        7.096163    4.783245    0.357021
     69          1           0        8.222329   -0.563205    3.640491
     70          1           0        2.955735   -3.200983   -2.480677
     71          1           0        1.713547   -0.740425   -3.426482
     72          1           0        3.232306   -2.394601   -4.792426
     73          1           0        4.568060   -1.428108   -4.235055
     74          1           0        3.419680   -0.739698   -5.332765
     75          1           0        0.967761   -1.353102   -0.882982
     76          1           0        1.527014   -3.050998   -0.529162
     77          1           0        0.418963   -3.872745   -2.287800
     78          1           0       -0.149424   -2.336524   -2.978900
     79          1           0        2.894149    3.690162   -4.230763
     80          1           0        3.605700    5.231040   -4.102184
     81          1           0        2.315449    4.928053   -2.986635
     82          1           0        7.387943    6.277968   -1.002145
     83          1           0        6.126373    6.686901    0.198823
     84          1           0        6.578343    7.831723   -1.146805
     85          1           0        8.047715    4.285910    2.610898
     86          1           0        9.285737    1.715562    3.342699
     87          1           0        9.536638    4.441103    0.868430
     88          1           0        9.472737    2.800126    0.553929
     89          1           0       10.382890    3.200759    1.969103
     90          1           0        7.093017    1.144332    4.796936
     91          1           0        6.812533    2.842255    4.579571
     92          1           0        9.623583    2.270161    5.429682
     93          1           0        8.433988    1.753863    6.653383
     94          1           0        8.353813    3.418937    5.976211
     95          1           0        7.262295   -3.575564    4.328155
     96          1           0        8.726271   -2.955677    3.456353
     97          1           0        7.914258   -4.455765    2.982492
     98          1           0        3.269066   -4.357213    0.546391
     99          1           0        4.461048   -5.434425   -3.814512
    100          1           0        5.796568   -6.378148   -3.079958
    101          1           0        6.137216   -4.715242   -3.782887
    102          1           0       -3.618798   -2.646240   -0.401399
    103          1           0       -4.017655   -2.293989   -2.070000
    104          1           0       -3.346797    0.216175   -0.815856
    105          1           0       -6.200512   -2.136162    0.955994
    106          1           0       -5.916347   -2.551174   -0.686410
    107          1           0       -7.108884   -1.264364   -0.439788
    108          1           0       -4.801830    1.115556    1.192595
    109          1           0       -6.318268    0.391535    1.486663
    110          1           0       -6.603597    0.997047   -1.202620
    111          1           0       -5.603812    2.361129   -0.655705
    112          1           0       -7.499034    3.338834   -0.189562
    113          1           0       -7.467484    2.316751    1.185825
    114          1           0       -8.664855    0.664365   -0.821294
    115          1           0       -9.887451    3.493126   -0.999776
    116          1           0      -10.711827    1.934505   -1.411976
    117          1           0       -9.225106    2.458429   -2.253204
    118          1           0      -10.751176    1.875677    0.980034
    119          1           0       -9.328992    1.854169    1.781486
    120          1           0       -9.180981   -0.718388    1.282382
    121          1           0      -10.577367   -0.687225    0.351627
    122          1           0      -11.086251    0.520601    2.932275
    123          1           0      -10.482970   -1.175076    2.982259
    124          1           0      -12.711911   -0.711664    0.970010
    125          1           0      -13.362379   -2.226094    3.402836
    126          1           0      -11.920162   -2.805197    2.924345
    127          1           0      -13.194204   -2.892974    1.729660
    128          1           0      -13.149614    1.232119    2.556538
    129          1           0      -13.656286   -0.025456    3.724469
    130          1           0      -15.705038    0.122760    2.811071
    131          1           0      -14.975933   -0.788098    1.446616
    132          1           0      -14.372719    1.921176    1.093543
    133          1           0      -16.087912    1.902117    1.450374
    134          1           0      -15.671563   -0.189574   -0.449000
    135          1           0      -13.430035    0.507959   -0.661884
    136          1           0      -14.010049    2.173571   -0.989728
    137          1           0      -14.336040    0.883704   -2.259982
    138          1           0      -16.356960    2.078837   -2.120387
    139          1           0      -17.069213    2.395977   -0.572356
    140          1           0      -17.388184    0.886967   -1.352726
 ---------------------------------------------------------------------

 SCF Done:  E(RPBE1PBE) =  -3005.36838680     A.U. after   15 cycles

 Excitation energies and oscillator strengths:

 Excited State   1:      Singlet-A      1.8591 eV  666.90 nm  f=0.3591  <S**2>=0.000
     245 -> 248        0.17958
     246 -> 247        0.69226
     246 <- 247       -0.10867
 This state for optimization and/or second-order correction.
 Total Energy, E(TD-HF/TD-DFT) =  -3005.30006525
 Copying the excited state density for this state as the 1-particle RhoCI density.

 Excited State   2:      Singlet-A      2.2313 eV  555.66 nm  f=0.1178  <S**2>=0.000
     245 -> 247        0.65088
     246 -> 248       -0.26539

 Excited State   3:      Singlet-A      2.9245 eV  423.96 nm  f=0.0018  <S**2>=0.000
     240 -> 247        0.27785
     241 -> 247        0.13257
     243 -> 247        0.61439

 Excited State   4:      Singlet-A      2.9946 eV  414.03 nm  f=0.0010  <S**2>=0.000
     240 -> 247       -0.30244
     241 -> 247       -0.23252
     242 -> 247        0.52145
     243 -> 247        0.24118

 Excited State   5:      Singlet-A      3.0468 eV  406.93 nm  f=0.0042  <S**2>=0.000
     240 -> 247        0.36815
     241 -> 247        0.28598
     242 -> 247        0.45371
     243 -> 247       -0.21257

 The electronic state is 1-A.
 Alpha  occ. eigenvalues --  -46.92791 -19.25149 -19.25081 -19.20908 -19.20205
 Alpha  occ. eigenvalues --  -19.19510 -19.19436 -14.42685 -14.41500 -14.39709
 Alpha  occ. eigenvalues --  -14.39240 -10.37249 -10.36101 -10.33193 -10.32452
 Alpha  occ. eigenvalues --  -10.29790 -10.29755 -10.29205 -10.29053 -10.28809
 Alpha  occ. eigenvalues --  -10.28694 -10.28361 -10.27815 -10.27777 -10.27354
 Alpha  occ. eigenvalues --  -10.27073 -10.27065 -10.26833 -10.26635 -10.26401
 Alpha  occ. eigenvalues --  -10.26066 -10.26012 -10.25746 -10.25504 -10.25279
 Alpha  occ. eigenvalues --  -10.25188 -10.25018 -10.24682 -10.24604 -10.24572
 Alpha  occ. eigenvalues --  -10.24569 -10.24205 -10.23975 -10.23838 -10.23693
 Alpha  occ. eigenvalues --  -10.23630 -10.23540 -10.23428 -10.23203 -10.23153
 Alpha  occ. eigenvalues --  -10.23109 -10.22906 -10.22796 -10.22747 -10.22489
 Alpha  occ. eigenvalues --  -10.22412 -10.22284 -10.22275 -10.22263 -10.22113
 Alpha  occ. eigenvalues --  -10.21974 -10.21946 -10.21891 -10.21883 -10.21716
 Alpha  occ. eigenvalues --  -10.21467  -3.14823  -1.87661  -1.87200  -1.87035
 Alpha  occ. eigenvalues --   -1.10323  -1.09057  -1.04378  -1.03352  -1.02677
 Alpha  occ. eigenvalues --   -1.01600  -0.99660  -0.98524  -0.98038  -0.97245
 Alpha  occ. eigenvalues --   -0.87274  -0.84775  -0.84384  -0.84162  -0.83764
 Alpha  occ. eigenvalues --   -0.82802  -0.82632  -0.81762  -0.81611  -0.81307
 Alpha  occ. eigenvalues --   -0.80220  -0.80199  -0.78656  -0.78145  -0.77952
 Alpha  occ. eigenvalues --   -0.76813  -0.76319  -0.75758  -0.75023  -0.74560
 Alpha  occ. eigenvalues --   -0.73969  -0.72907  -0.72455  -0.71928  -0.70674
 Alpha  occ. eigenvalues --   -0.70036  -0.69621  -0.69272  -0.68653  -0.68200
 Alpha  occ. eigenvalues --   -0.67545  -0.66984  -0.66202  -0.64630  -0.63430
 Alpha  occ. eigenvalues --   -0.63127  -0.62816  -0.61315  -0.60715  -0.60123
 Alpha  occ. eigenvalues --   -0.60011  -0.59735  -0.59044  -0.58972  -0.58097
 Alpha  occ. eigenvalues --   -0.57697  -0.57598  -0.57036  -0.56969  -0.54788
 Alpha  occ. eigenvalues --   -0.54588  -0.54167  -0.54071  -0.53270  -0.52865
 Alpha  occ. eigenvalues --   -0.51201  -0.50969  -0.50818  -0.50459  -0.50073
 Alpha  occ. eigenvalues --   -0.49798  -0.49111  -0.48764  -0.48570  -0.48401
 Alpha  occ. eigenvalues --   -0.48073  -0.47787  -0.47752  -0.47592  -0.47388
 Alpha  occ. eigenvalues --   -0.47277  -0.47073  -0.46805  -0.46763  -0.46582
 Alpha  occ. eigenvalues --   -0.46460  -0.46321  -0.45873  -0.45826  -0.45644
 Alpha  occ. eigenvalues --   -0.45090  -0.44964  -0.44710  -0.44516  -0.44497
 Alpha  occ. eigenvalues --   -0.44219  -0.43942  -0.43883  -0.43749  -0.43516
 Alpha  occ. eigenvalues --   -0.43392  -0.43327  -0.43230  -0.42954  -0.42662
 Alpha  occ. eigenvalues --   -0.42337  -0.42207  -0.42081  -0.41884  -0.41586
 Alpha  occ. eigenvalues --   -0.41512  -0.41344  -0.41090  -0.40929  -0.40660
 Alpha  occ. eigenvalues --   -0.40589  -0.40372  -0.40323  -0.39751  -0.39502
 Alpha  occ. eigenvalues --   -0.39278  -0.39222  -0.39109  -0.38956  -0.38773
 Alpha  occ. eigenvalues --   -0.38718  -0.38507  -0.38166  -0.38074  -0.38023
 Alpha  occ. eigenvalues --   -0.37759  -0.37546  -0.37224  -0.37152  -0.36928
 Alpha  occ. eigenvalues --   -0.36900  -0.36798  -0.36710  -0.36465  -0.36155
 Alpha  occ. eigenvalues --   -0.35888  -0.35700  -0.35581  -0.35404  -0.35329
 Alpha  occ. eigenvalues --   -0.34638  -0.34393  -0.34059  -0.33907  -0.33662
 Alpha  occ. eigenvalues --   -0.33049  -0.32856  -0.32721  -0.32651  -0.32495
 Alpha  occ. eigenvalues --   -0.32283  -0.31938  -0.31796  -0.31624  -0.31413
 Alpha  occ. eigenvalues --   -0.31373  -0.31002  -0.30046  -0.30023  -0.29479
 Alpha  occ. eigenvalues --   -0.29159  -0.28902  -0.28788  -0.27090  -0.26049
 Alpha  occ. eigenvalues --   -0.26008  -0.25635  -0.25354  -0.24237  -0.21376
 Alpha  occ. eigenvalues --   -0.19269
 Alpha virt. eigenvalues --   -0.11662  -0.05672  -0.04210  -0.02456  -0.01111
 Alpha virt. eigenvalues --   -0.00406   0.00166   0.01038   0.01334   0.02586
 Alpha virt. eigenvalues --    0.03689   0.04241   0.04504   0.05306   0.05340

 Mulliken charges:
               1
     1  Mg   0.963527
     2  C   -0.023960
     3  C   -0.048898
     4  C   -0.074859
     5  C   -0.091824
     6  N   -0.338116
     7  C    0.042462
     8  C   -0.109231
     9  C   -0.117592
    10  C    0.002280
    11  C    0.036464
    12  C    0.004032
    13  C    0.013336
    14  C    0.226561
    15  O   -0.228737
    16  O   -0.406602
    17  N   -0.489310
    18  C    0.180621
    19  C   -0.188124
    20  C   -0.086779
    21  C    0.205182
    22  C    0.073282
    23  C    0.065793
    24  O   -0.242766
    25  C   -0.015738
    26  N   -0.458673
    27  C    0.084583
    28  C   -0.136746
    29  C   -0.079447
    30  C    0.147538
    31  C    0.015456
    32  C   -0.045234
    33  C   -0.072834
    34  N   -0.447133
    35  C    0.117569
    36  C   -0.190885
    37  C   -0.070451
    38  C    0.151687
    39  C    0.066018
    40  C    0.166186
    41  O   -0.231004
    42  C   -0.098713
    43  C    0.287402
    44  O   -0.245834
    45  O   -0.415302
    46  C    0.125692
    47  C    0.221079
    48  C   -0.113142
    49  C   -0.271380
    50  C    0.025542
    51  C    0.020908
    52  C   -0.070558
    53  C    0.020722
    54  C   -0.197077
    55  C   -0.019059
    56  C   -0.007532
    57  C   -0.068721
    58  C    0.030855
    59  C   -0.233499
    60  C   -0.004909
    61  C   -0.027443
    62  C   -0.043742
    63  C   -0.001100
    64  C   -0.254770
    65  C   -0.039691
    66  C   -0.016506
    67  H    0.009615
    68  H   -0.023020
    69  H    0.017951
    70  H    0.042065
    71  H    0.041589
    72  H    0.042719
    73  H    0.041239
    74  H    0.053501
    75  H    0.057650
    76  H    0.056190
    77  H    0.055501
    78  H    0.051537
    79  H    0.035360
    80  H    0.054799
    81  H    0.068463
    82  H    0.066074
    83  H    0.073453
    84  H    0.059229
    85  H    0.037630
    86  H    0.030140
    87  H    0.044714
    88  H    0.032730
    89  H    0.050668
    90  H    0.046451
    91  H    0.041544
    92  H    0.040762
    93  H    0.054375
    94  H    0.048890
    95  H    0.063798
    96  H    0.039728
    97  H    0.062235
    98  H    0.094840
    99  H    0.057788
   100  H    0.070959
   101  H    0.061944
   102  H    0.069203
   103  H    0.059767
   104  H    0.032069
   105  H    0.062251
   106  H    0.028392
   107  H    0.062366
   108  H    0.036881
   109  H    0.026593
   110  H    0.034152
   111  H    0.033016
   112  H    0.020867
   113  H    0.023266
   114  H    0.038544
   115  H    0.041044
   116  H    0.049801
   117  H    0.028933
   118  H    0.014304
   119  H    0.018309
   120  H    0.018874
   121  H    0.023629
   122  H    0.024046
   123  H    0.031792
   124  H    0.044699
   125  H    0.022402
   126  H    0.027905
   127  H    0.040712
   128  H    0.032347
   129  H    0.028328
   130  H    0.031685
   131  H    0.030573
   132  H    0.015703
   133  H    0.030967
   134  H    0.034696
   135  H    0.041761
   136  H    0.043379
   137  H    0.051882
   138  H    0.032080
   139  H    0.026533
   140  H    0.032283
 Sum of Mulliken charges =  -0.00000

 Dipole moment (field-independent basis, Debye):
    X=              1.5421    Y=              4.4185    Z=             -0.9743  Tot=              4.7803
 Quadrupole moment (field-independent basis, Debye-Ang):
   XX=           -339.2341   YY=           -465.5551   ZZ=           -378.8911
   XY=             24.0660   XZ=              6.1311   YZ=             32.5553

 Normal termination of Gaussian 16 at Tue Apr 26 22:58:00 2022.
