 Gaussian 16, Revision A.03,
 Gaussian 16:  ES64L-G16RevA.03 25-Dec-2016

 --------------------------------
 #p wB97XD/Def2SVP td=(nstates=5)
 --------------------------------

 ----------------------------------------------------
 step_1001_chromophore_5 TDDFT with wB97XD functional
 ----------------------------------------------------
 Symbolic Z-matrix:
 Charge =  0 Multiplicity = 1

                         Standard orientation:
 ---------------------------------------------------------------------
 Center     Atomic      Atomic             Coordinates (Angstroms)
 Number     Number       Type             X           Y           Z
 ---------------------------------------------------------------------
      1         12           0        5.724414    0.616139   -0.133158
      2          6           0        4.405183   -2.687236   -0.110136
      3          6           0        3.400902    1.418637   -2.617254
      4          6           0        6.617571    3.809296    0.235721
      5          6           0        7.668253   -0.289362    2.740617
      6          7           0        3.995616   -0.498377   -1.143527
      7          6           0        3.739957   -1.835307   -1.086579
      8          6           0        2.630559   -2.253562   -2.051772
      9          6           0        2.715893   -1.096936   -3.189389
     10          6           0        3.348926    0.017410   -2.229959
     11          6           0        3.502822   -1.391471   -4.462850
     12          6           0        1.298102   -2.307729   -1.292230
     13          6           0        0.104542   -2.855601   -2.054609
     14          6           0       -1.190453   -2.920169   -1.291833
     15          8           0       -1.499176   -3.821616   -0.565131
     16          8           0       -1.999788   -1.809071   -1.573200
     17          7           0        4.988980    2.401574   -0.965954
     18          6           0        4.111548    2.502403   -2.008147
     19          6           0        4.082381    3.915561   -2.434151
     20          6           0        5.051670    4.592595   -1.634981
     21          6           0        5.601356    3.621703   -0.741129
     22          6           0        3.154164    4.448631   -3.492363
     23          6           0        5.396264    6.148685   -1.713960
     24          8           0        4.825277    6.902916   -2.508675
     25          6           0        6.441754    6.794619   -0.839025
     26          7           0        6.870211    1.561681    1.319739
     27          6           0        7.128396    2.939752    1.196678
     28          6           0        8.212022    3.309620    2.155128
     29          6           0        8.252022    1.993175    3.138544
     30          6           0        7.619316    0.987259    2.311672
     31          6           0        9.499378    3.488702    1.397676
     32          6           0        7.597712    2.085902    4.577786
     33          6           0        8.593414    2.375176    5.772407
     34          7           0        6.193762   -1.166700    0.908120
     35          6           0        6.959380   -1.350632    2.029609
     36          6           0        6.950417   -2.747285    2.372735
     37          6           0        5.940075   -3.299345    1.538851
     38          6           0        5.461659   -2.261981    0.748774
     39          6           0        7.758594   -3.447436    3.366340
     40          6           0        5.327618   -4.580526    1.199586
     41          8           0        5.528431   -5.755032    1.565924
     42          6           0        4.273594   -4.189424    0.159423
     43          6           0        4.389389   -5.118278   -1.074378
     44          8           0        3.698627   -6.114588   -1.304658
     45          8           0        5.331114   -4.615540   -2.035289
     46          6           0        5.420230   -5.379051   -3.298733
     47          6           0       -3.441573   -1.941663   -1.214557
     48          6           0       -3.961877   -0.664903   -0.632465
     49          6           0       -5.172109   -0.612621   -0.026215
     50          6           0       -6.196413   -1.712975   -0.048675
     51          6           0       -5.646845    0.664171    0.673182
     52          6           0       -6.337755    1.616802   -0.346078
     53          6           0       -7.624834    2.297890    0.107362
     54          6           0       -8.918649    1.597579   -0.318730
     55          6           0       -9.760068    2.454003   -1.302830
     56          6           0       -9.810484    1.325026    0.958055
     57          6           0      -10.120686   -0.174254    1.198034
     58          6           0      -11.035872   -0.433476    2.406276
     59          6           0      -12.503718   -0.793307    2.036728
     60          6           0      -12.757462   -2.253826    2.496971
     61          6           0      -13.531198    0.217803    2.668798
     62          6           0      -14.944625    0.132401    2.030666
     63          6           0      -15.269028    1.301752    1.053203
     64          6           0      -15.465937    0.879750   -0.411628
     65          6           0      -14.149243    1.115309   -1.211027
     66          6           0      -16.597384    1.612290   -1.164544
     67          1           0        2.886836    1.548174   -3.571489
     68          1           0        7.096163    4.783245    0.357021
     69          1           0        8.222329   -0.563205    3.640491
     70          1           0        2.955735   -3.200983   -2.480677
     71          1           0        1.713547   -0.740425   -3.426482
     72          1           0        3.232306   -2.394601   -4.792426
     73          1           0        4.568060   -1.428108   -4.235055
     74          1           0        3.419680   -0.739698   -5.332765
     75          1           0        0.967761   -1.353102   -0.882982
     76          1           0        1.527014   -3.050998   -0.529162
     77          1           0        0.418963   -3.872745   -2.287800
     78          1           0       -0.149424   -2.336524   -2.978900
     79          1           0        2.894149    3.690162   -4.230763
     80          1           0        3.605700    5.231040   -4.102184
     81          1           0        2.315449    4.928053   -2.986635
     82          1           0        7.387943    6.277968   -1.002145
     83          1           0        6.126373    6.686901    0.198823
     84          1           0        6.578343    7.831723   -1.146805
     85          1           0        8.047715    4.285910    2.610898
     86          1           0        9.285737    1.715562    3.342699
     87          1           0        9.536638    4.441103    0.868430
     88          1           0        9.472737    2.800126    0.553929
     89          1           0       10.382890    3.200759    1.969103
     90          1           0        7.093017    1.144332    4.796936
     91          1           0        6.812533    2.842255    4.579571
     92          1           0        9.623583    2.270161    5.429682
     93          1           0        8.433988    1.753863    6.653383
     94          1           0        8.353813    3.418937    5.976211
     95          1           0        7.262295   -3.575564    4.328155
     96          1           0        8.726271   -2.955677    3.456353
     97          1           0        7.914258   -4.455765    2.982492
     98          1           0        3.269066   -4.357213    0.546391
     99          1           0        4.461048   -5.434425   -3.814512
    100          1           0        5.796568   -6.378148   -3.079958
    101          1           0        6.137216   -4.715242   -3.782887
    102          1           0       -3.618798   -2.646240   -0.401399
    103          1           0       -4.017655   -2.293989   -2.070000
    104          1           0       -3.346797    0.216175   -0.815856
    105          1           0       -6.200512   -2.136162    0.955994
    106          1           0       -5.916347   -2.551174   -0.686410
    107          1           0       -7.108884   -1.264364   -0.439788
    108          1           0       -4.801830    1.115556    1.192595
    109          1           0       -6.318268    0.391535    1.486663
    110          1           0       -6.603597    0.997047   -1.202620
    111          1           0       -5.603812    2.361129   -0.655705
    112          1           0       -7.499034    3.338834   -0.189562
    113          1           0       -7.467484    2.316751    1.185825
    114          1           0       -8.664855    0.664365   -0.821294
    115          1           0       -9.887451    3.493126   -0.999776
    116          1           0      -10.711827    1.934505   -1.411976
    117          1           0       -9.225106    2.458429   -2.253204
    118          1           0      -10.751176    1.875677    0.980034
    119          1           0       -9.328992    1.854169    1.781486
    120          1           0       -9.180981   -0.718388    1.282382
    121          1           0      -10.577367   -0.687225    0.351627
    122          1           0      -11.086251    0.520601    2.932275
    123          1           0      -10.482970   -1.175076    2.982259
    124          1           0      -12.711911   -0.711664    0.970010
    125          1           0      -13.362379   -2.226094    3.402836
    126          1           0      -11.920162   -2.805197    2.924345
    127          1           0      -13.194204   -2.892974    1.729660
    128          1           0      -13.149614    1.232119    2.556538
    129          1           0      -13.656286   -0.025456    3.724469
    130          1           0      -15.705038    0.122760    2.811071
    131          1           0      -14.975933   -0.788098    1.446616
    132          1           0      -14.372719    1.921176    1.093543
    133          1           0      -16.087912    1.902117    1.450374
    134          1           0      -15.671563   -0.189574   -0.449000
    135          1           0      -13.430035    0.507959   -0.661884
    136          1           0      -14.010049    2.173571   -0.989728
    137          1           0      -14.336040    0.883704   -2.259982
    138          1           0      -16.356960    2.078837   -2.120387
    139          1           0      -17.069213    2.395977   -0.572356
    140          1           0      -17.388184    0.886967   -1.352726
 ---------------------------------------------------------------------

 SCF Done:  E(RwB97XD) =  -3007.87849553     A.U. after   19 cycles

 Excitation energies and oscillator strengths:

 Excited State   1:      Singlet-A      1.6386 eV  756.64 nm  f=0.3699  <S**2>=0.000
     245 -> 248        0.18935
     246 -> 247        0.68283
     245 <- 248        0.11816
 This state for optimization and/or second-order correction.
 Total Energy, E(TD-HF/TD-DFT) =  -3007.81827745
 Copying the excited state density for this state as the 1-particle RhoCI density.

 Excited State   2:      Singlet-A      2.1772 eV  569.47 nm  f=0.1201  <S**2>=0.000
     245 -> 247        0.63963
     246 -> 248       -0.28670

 Excited State   3:      Singlet-A      3.3009 eV  375.61 nm  f=0.0006  <S**2>=0.000
     242 -> 247       -0.14376
     243 -> 247        0.65772

 Excited State   4:      Singlet-A      3.4046 eV  364.16 nm  f=0.0180  <S**2>=0.000
     242 -> 247        0.62867
     243 -> 247        0.10125
     246 -> 248        0.23259

 Excited State   5:      Singlet-A      3.5218 eV  352.05 nm  f=0.0410  <S**2>=0.000
     240 -> 247       -0.11491
     241 -> 247        0.52100
     241 -> 248        0.11898
     241 -> 249       -0.30615
     241 -> 250        0.18807
     246 -> 248       -0.17238

 The electronic state is 1-A.
 Alpha  occ. eigenvalues --  -46.95750 -19.29732 -19.29634 -19.25645 -19.24893
 Alpha  occ. eigenvalues --  -19.24349 -19.24269 -14.47982 -14.46396 -14.44720
 Alpha  occ. eigenvalues --  -14.44151 -10.44107 -10.42885 -10.40032 -10.39352
 Alpha  occ. eigenvalues --  -10.36110 -10.36004 -10.35628 -10.35584 -10.35305
 Alpha  occ. eigenvalues --  -10.35274 -10.34815 -10.34003 -10.33982 -10.33677
 Alpha  occ. eigenvalues --  -10.33582 -10.33363 -10.33321 -10.33041 -10.32864
 Alpha  occ. eigenvalues --  -10.32674 -10.32280 -10.31891 -10.31888 -10.31734
 Alpha  occ. eigenvalues --  -10.31443 -10.31312 -10.31115 -10.31027 -10.30820
 Alpha  occ. eigenvalues --  -10.30745 -10.30544 -10.30536 -10.30216 -10.29976
 Alpha  occ. eigenvalues --  -10.29927 -10.29890 -10.29865 -10.29795 -10.29496
 Alpha  occ. eigenvalues --  -10.29377 -10.29297 -10.29189 -10.29007 -10.28861
 Alpha  occ. eigenvalues --  -10.28770 -10.28662 -10.28643 -10.28639 -10.28460
 Alpha  occ. eigenvalues --  -10.28380 -10.28342 -10.28336 -10.28250 -10.28147
 Alpha  occ. eigenvalues --  -10.27887  -3.21655  -1.95239  -1.94777  -1.94613
 Alpha  occ. eigenvalues --   -1.17700  -1.16499  -1.11895  -1.10872  -1.10018
 Alpha  occ. eigenvalues --   -1.08997  -1.06965  -1.05974  -1.05456  -1.04658
 Alpha  occ. eigenvalues --   -0.94935  -0.92457  -0.92056  -0.91719  -0.91441
 Alpha  occ. eigenvalues --   -0.90472  -0.90157  -0.89421  -0.89274  -0.88876
 Alpha  occ. eigenvalues --   -0.87975  -0.87889  -0.86329  -0.85775  -0.85557
 Alpha  occ. eigenvalues --   -0.84489  -0.84043  -0.83444  -0.82666  -0.82213
 Alpha  occ. eigenvalues --   -0.81640  -0.80556  -0.80061  -0.79598  -0.78309
 Alpha  occ. eigenvalues --   -0.77728  -0.77222  -0.76972  -0.76337  -0.75876
 Alpha  occ. eigenvalues --   -0.75096  -0.74580  -0.73762  -0.72262  -0.70979
 Alpha  occ. eigenvalues --   -0.70635  -0.70464  -0.68922  -0.68363  -0.67588
 Alpha  occ. eigenvalues --   -0.67559  -0.67201  -0.66715  -0.66436  -0.65763
 Alpha  occ. eigenvalues --   -0.65287  -0.65183  -0.64688  -0.64448  -0.62251
 Alpha  occ. eigenvalues --   -0.62068  -0.61598  -0.61452  -0.60720  -0.60273
 Alpha  occ. eigenvalues --   -0.58658  -0.58458  -0.58302  -0.57895  -0.57470
 Alpha  occ. eigenvalues --   -0.57266  -0.56535  -0.56211  -0.56012  -0.55871
 Alpha  occ. eigenvalues --   -0.55422  -0.55210  -0.55147  -0.54935  -0.54733
 Alpha  occ. eigenvalues --   -0.54679  -0.54363  -0.54323  -0.54195  -0.53947
 Alpha  occ. eigenvalues --   -0.53861  -0.53672  -0.53229  -0.53172  -0.52994
 Alpha  occ. eigenvalues --   -0.52492  -0.52275  -0.52164  -0.51838  -0.51783
 Alpha  occ. eigenvalues --   -0.51521  -0.51282  -0.51184  -0.51047  -0.50870
 Alpha  occ. eigenvalues --   -0.50699  -0.50539  -0.50522  -0.50185  -0.49912
 Alpha  occ. eigenvalues --   -0.49631  -0.49479  -0.49361  -0.49054  -0.48806
 Alpha  occ. eigenvalues --   -0.48766  -0.48594  -0.48287  -0.48151  -0.47882
 Alpha  occ. eigenvalues --   -0.47819  -0.47578  -0.47474  -0.46958  -0.46699
 Alpha  occ. eigenvalues --   -0.46484  -0.46414  -0.46247  -0.46135  -0.45930
 Alpha  occ. eigenvalues --   -0.45818  -0.45583  -0.45336  -0.45212  -0.45158
 Alpha  occ. eigenvalues --   -0.44918  -0.44701  -0.44395  -0.44268  -0.44201
 Alpha  occ. eigenvalues --   -0.44034  -0.44016  -0.43878  -0.43487  -0.43298
 Alpha  occ. eigenvalues --   -0.42881  -0.42687  -0.42587  -0.42501  -0.42348
 Alpha  occ. eigenvalues --   -0.41710  -0.41388  -0.41111  -0.40773  -0.40740
 Alpha  occ. eigenvalues --   -0.40104  -0.39802  -0.39792  -0.39647  -0.39500
 Alpha  occ. eigenvalues --   -0.39317  -0.38951  -0.38753  -0.38582  -0.38505
 Alpha  occ. eigenvalues --   -0.38437  -0.38029  -0.37044  -0.36941  -0.36445
 Alpha  occ. eigenvalues --   -0.36031  -0.35923  -0.35519  -0.33663  -0.33174
 Alpha  occ. eigenvalues --   -0.33159  -0.32374  -0.31822  -0.30999  -0.26363
 Alpha  occ. eigenvalues --   -0.23468
 Alpha virt. eigenvalues --   -0.07586  -0.00302   0.02102   0.04064   0.04846
 Alpha virt. eigenvalues --    0.06347   0.06922   0.07811   0.08055   0.09307
 Alpha virt. eigenvalues --    0.10061   0.10993   0.11156   0.11874   0.11927

 Mulliken charges:
               1
     1  Mg   0.954823
     2  C   -0.024833
     3  C   -0.059095
     4  C   -0.089819
     5  C   -0.118183
     6  N   -0.303363
     7  C    0.004609
     8  C   -0.075509
     9  C   -0.092472
    10  C   -0.017953
    11  C    0.044134
    12  C    0.018066
    13  C    0.027895
    14  C    0.216551
    15  O   -0.226763
    16  O   -0.406114
    17  N   -0.457200
    18  C    0.170690
    19  C   -0.176302
    20  C   -0.085290
    21  C    0.206241
    22  C    0.084393
    23  C    0.059033
    24  O   -0.238357
    25  C    0.001441
    26  N   -0.430572
    27  C    0.075485
    28  C   -0.105740
    29  C   -0.053220
    30  C    0.138785
    31  C    0.023277
    32  C   -0.034484
    33  C   -0.055212
    34  N   -0.408533
    35  C    0.112292
    36  C   -0.190206
    37  C   -0.067872
    38  C    0.136448
    39  C    0.076614
    40  C    0.149540
    41  O   -0.219973
    42  C   -0.062950
    43  C    0.268495
    44  O   -0.240927
    45  O   -0.415406
    46  C    0.139218
    47  C    0.235086
    48  C   -0.128047
    49  C   -0.248876
    50  C    0.043333
    51  C    0.033478
    52  C   -0.049784
    53  C    0.032538
    54  C   -0.166144
    55  C   -0.002882
    56  C    0.009384
    57  C   -0.045913
    58  C    0.047262
    59  C   -0.194009
    60  C    0.003960
    61  C   -0.009178
    62  C   -0.026568
    63  C    0.014307
    64  C   -0.225307
    65  C   -0.010645
    66  C   -0.007307
    67  H    0.004447
    68  H   -0.038231
    69  H    0.013055
    70  H    0.024842
    71  H    0.031940
    72  H    0.036749
    73  H    0.034818
    74  H    0.049537
    75  H    0.051504
    76  H    0.042527
    77  H    0.050162
    78  H    0.045524
    79  H    0.030520
    80  H    0.051261
    81  H    0.065113
    82  H    0.059365
    83  H    0.067683
    84  H    0.058361
    85  H    0.030136
    86  H    0.016165
    87  H    0.039030
    88  H    0.024348
    89  H    0.046112
    90  H    0.037322
    91  H    0.033575
    92  H    0.033881
    93  H    0.049535
    94  H    0.042047
    95  H    0.059016
    96  H    0.033728
    97  H    0.057259
    98  H    0.089036
    99  H    0.053765
   100  H    0.067509
   101  H    0.059171
   102  H    0.062414
   103  H    0.054940
   104  H    0.030750
   105  H    0.056956
   106  H    0.023047
   107  H    0.051297
   108  H    0.031047
   109  H    0.016211
   110  H    0.019710
   111  H    0.026778
   112  H    0.014665
   113  H    0.011636
   114  H    0.022649
   115  H    0.035147
   116  H    0.041485
   117  H    0.022630
   118  H    0.001671
   119  H    0.009178
   120  H    0.006261
   121  H    0.013453
   122  H    0.012415
   123  H    0.024826
   124  H    0.019983
   125  H    0.015204
   126  H    0.022015
   127  H    0.036603
   128  H    0.020346
   129  H    0.019639
   130  H    0.026090
   131  H    0.016772
   132  H    0.001158
   133  H    0.024442
   134  H    0.023340
   135  H    0.024207
   136  H    0.033749
   137  H    0.046435
   138  H    0.026634
   139  H    0.020320
   140  H    0.026716
 Sum of Mulliken charges =  -0.00000

 Dipole moment (field-independent basis, Debye):
    X=              1.4298    Y=              4.5759    Z=             -1.2611  Tot=              4.9572
 Quadrupole moment (field-independent basis, Debye-Ang):
   XX=           -340.4110   YY=           -464.5695   ZZ=           -378.6777
   XY=             24.6427   XZ=              4.4641   YZ=             32.3050

 Normal termination of Gaussian 16 at Tue Apr 26 23:24:12 2022.
