 Gaussian 16, Revision A.03,
 Gaussian 16:  ES64L-G16RevA.03 25-Dec-2016

 --------------------
 #p ZINDO=(nstates=5)
 --------------------

 -----------------------------
 step_1001_chromophore_5 ZINDO
 -----------------------------
 Symbolic Z-matrix:
 Charge =  0 Multiplicity = 1

                         Standard orientation:
 ---------------------------------------------------------------------
 Center     Atomic      Atomic             Coordinates (Angstroms)
 Number     Number       Type             X           Y           Z
 ---------------------------------------------------------------------
      1         12           0        5.724414    0.616139   -0.133158
      2          6           0        4.405183   -2.687236   -0.110136
      3          6           0        3.400902    1.418637   -2.617254
      4          6           0        6.617571    3.809296    0.235721
      5          6           0        7.668253   -0.289362    2.740617
      6          7           0        3.995616   -0.498377   -1.143527
      7          6           0        3.739957   -1.835307   -1.086579
      8          6           0        2.630559   -2.253562   -2.051772
      9          6           0        2.715893   -1.096936   -3.189389
     10          6           0        3.348926    0.017410   -2.229959
     11          6           0        3.502822   -1.391471   -4.462850
     12          6           0        1.298102   -2.307729   -1.292230
     13          6           0        0.104542   -2.855601   -2.054609
     14          6           0       -1.190453   -2.920169   -1.291833
     15          8           0       -1.499176   -3.821616   -0.565131
     16          8           0       -1.999788   -1.809071   -1.573200
     17          7           0        4.988980    2.401574   -0.965954
     18          6           0        4.111548    2.502403   -2.008147
     19          6           0        4.082381    3.915561   -2.434151
     20          6           0        5.051670    4.592595   -1.634981
     21          6           0        5.601356    3.621703   -0.741129
     22          6           0        3.154164    4.448631   -3.492363
     23          6           0        5.396264    6.148685   -1.713960
     24          8           0        4.825277    6.902916   -2.508675
     25          6           0        6.441754    6.794619   -0.839025
     26          7           0        6.870211    1.561681    1.319739
     27          6           0        7.128396    2.939752    1.196678
     28          6           0        8.212022    3.309620    2.155128
     29          6           0        8.252022    1.993175    3.138544
     30          6           0        7.619316    0.987259    2.311672
     31          6           0        9.499378    3.488702    1.397676
     32          6           0        7.597712    2.085902    4.577786
     33          6           0        8.593414    2.375176    5.772407
     34          7           0        6.193762   -1.166700    0.908120
     35          6           0        6.959380   -1.350632    2.029609
     36          6           0        6.950417   -2.747285    2.372735
     37          6           0        5.940075   -3.299345    1.538851
     38          6           0        5.461659   -2.261981    0.748774
     39          6           0        7.758594   -3.447436    3.366340
     40          6           0        5.327618   -4.580526    1.199586
     41          8           0        5.528431   -5.755032    1.565924
     42          6           0        4.273594   -4.189424    0.159423
     43          6           0        4.389389   -5.118278   -1.074378
     44          8           0        3.698627   -6.114588   -1.304658
     45          8           0        5.331114   -4.615540   -2.035289
     46          6           0        5.420230   -5.379051   -3.298733
     47          6           0       -3.441573   -1.941663   -1.214557
     48          6           0       -3.961877   -0.664903   -0.632465
     49          6           0       -5.172109   -0.612621   -0.026215
     50          6           0       -6.196413   -1.712975   -0.048675
     51          6           0       -5.646845    0.664171    0.673182
     52          6           0       -6.337755    1.616802   -0.346078
     53          6           0       -7.624834    2.297890    0.107362
     54          6           0       -8.918649    1.597579   -0.318730
     55          6           0       -9.760068    2.454003   -1.302830
     56          6           0       -9.810484    1.325026    0.958055
     57          6           0      -10.120686   -0.174254    1.198034
     58          6           0      -11.035872   -0.433476    2.406276
     59          6           0      -12.503718   -0.793307    2.036728
     60          6           0      -12.757462   -2.253826    2.496971
     61          6           0      -13.531198    0.217803    2.668798
     62          6           0      -14.944625    0.132401    2.030666
     63          6           0      -15.269028    1.301752    1.053203
     64          6           0      -15.465937    0.879750   -0.411628
     65          6           0      -14.149243    1.115309   -1.211027
     66          6           0      -16.597384    1.612290   -1.164544
     67          1           0        2.886836    1.548174   -3.571489
     68          1           0        7.096163    4.783245    0.357021
     69          1           0        8.222329   -0.563205    3.640491
     70          1           0        2.955735   -3.200983   -2.480677
     71          1           0        1.713547   -0.740425   -3.426482
     72          1           0        3.232306   -2.394601   -4.792426
     73          1           0        4.568060   -1.428108   -4.235055
     74          1           0        3.419680   -0.739698   -5.332765
     75          1           0        0.967761   -1.353102   -0.882982
     76          1           0        1.527014   -3.050998   -0.529162
     77          1           0        0.418963   -3.872745   -2.287800
     78          1           0       -0.149424   -2.336524   -2.978900
     79          1           0        2.894149    3.690162   -4.230763
     80          1           0        3.605700    5.231040   -4.102184
     81          1           0        2.315449    4.928053   -2.986635
     82          1           0        7.387943    6.277968   -1.002145
     83          1           0        6.126373    6.686901    0.198823
     84          1           0        6.578343    7.831723   -1.146805
     85          1           0        8.047715    4.285910    2.610898
     86          1           0        9.285737    1.715562    3.342699
     87          1           0        9.536638    4.441103    0.868430
     88          1           0        9.472737    2.800126    0.553929
     89          1           0       10.382890    3.200759    1.969103
     90          1           0        7.093017    1.144332    4.796936
     91          1           0        6.812533    2.842255    4.579571
     92          1           0        9.623583    2.270161    5.429682
     93          1           0        8.433988    1.753863    6.653383
     94          1           0        8.353813    3.418937    5.976211
     95          1           0        7.262295   -3.575564    4.328155
     96          1           0        8.726271   -2.955677    3.456353
     97          1           0        7.914258   -4.455765    2.982492
     98          1           0        3.269066   -4.357213    0.546391
     99          1           0        4.461048   -5.434425   -3.814512
    100          1           0        5.796568   -6.378148   -3.079958
    101          1           0        6.137216   -4.715242   -3.782887
    102          1           0       -3.618798   -2.646240   -0.401399
    103          1           0       -4.017655   -2.293989   -2.070000
    104          1           0       -3.346797    0.216175   -0.815856
    105          1           0       -6.200512   -2.136162    0.955994
    106          1           0       -5.916347   -2.551174   -0.686410
    107          1           0       -7.108884   -1.264364   -0.439788
    108          1           0       -4.801830    1.115556    1.192595
    109          1           0       -6.318268    0.391535    1.486663
    110          1           0       -6.603597    0.997047   -1.202620
    111          1           0       -5.603812    2.361129   -0.655705
    112          1           0       -7.499034    3.338834   -0.189562
    113          1           0       -7.467484    2.316751    1.185825
    114          1           0       -8.664855    0.664365   -0.821294
    115          1           0       -9.887451    3.493126   -0.999776
    116          1           0      -10.711827    1.934505   -1.411976
    117          1           0       -9.225106    2.458429   -2.253204
    118          1           0      -10.751176    1.875677    0.980034
    119          1           0       -9.328992    1.854169    1.781486
    120          1           0       -9.180981   -0.718388    1.282382
    121          1           0      -10.577367   -0.687225    0.351627
    122          1           0      -11.086251    0.520601    2.932275
    123          1           0      -10.482970   -1.175076    2.982259
    124          1           0      -12.711911   -0.711664    0.970010
    125          1           0      -13.362379   -2.226094    3.402836
    126          1           0      -11.920162   -2.805197    2.924345
    127          1           0      -13.194204   -2.892974    1.729660
    128          1           0      -13.149614    1.232119    2.556538
    129          1           0      -13.656286   -0.025456    3.724469
    130          1           0      -15.705038    0.122760    2.811071
    131          1           0      -14.975933   -0.788098    1.446616
    132          1           0      -14.372719    1.921176    1.093543
    133          1           0      -16.087912    1.902117    1.450374
    134          1           0      -15.671563   -0.189574   -0.449000
    135          1           0      -13.430035    0.507959   -0.661884
    136          1           0      -14.010049    2.173571   -0.989728
    137          1           0      -14.336040    0.883704   -2.259982
    138          1           0      -16.356960    2.078837   -2.120387
    139          1           0      -17.069213    2.395977   -0.572356
    140          1           0      -17.388184    0.886967   -1.352726
 ---------------------------------------------------------------------

 SCF Done:  E(RZINDO/S) =  -474.078856952     A.U. after   19 cycles

 Excitation energies and oscillator strengths:

 Excited State   1:      Singlet-A      1.2245 eV 1012.54 nm  f=0.5986  <S**2>=0.000
     175 ->178         0.18933
     176 ->177         0.66293
 This state for optimization and/or second-order correction.
 Total Energy, E(CIS/TDA) =  -474.033858048
 Copying the excited state density for this state as the 1-particle RhoCI density.

 Excited State   2:      Singlet-A      1.9032 eV  651.45 nm  f=0.0488  <S**2>=0.000
     175 ->177         0.55102
     176 ->178        -0.41486

 Excited State   3:      Singlet-A      2.9289 eV  423.31 nm  f=0.7876  <S**2>=0.000
     172 ->177        -0.12011
     173 ->177        -0.17543
     175 ->177         0.32900
     176 ->178         0.48720
     176 ->179        -0.24696

 Excited State   4:      Singlet-A      2.9691 eV  417.58 nm  f=0.0017  <S**2>=0.000
     169 ->177         0.26627
     169 ->178        -0.15409
     169 ->179         0.24890
     169 ->180        -0.23380
     169 ->183         0.11284
     169 ->185         0.14099
     169 ->187         0.10033
     170 ->177         0.18334
     170 ->178        -0.10655
     170 ->179         0.17588
     170 ->180        -0.16400
     173 ->177        -0.22246

 Excited State   5:      Singlet-A      3.0489 eV  406.65 nm  f=0.0020  <S**2>=0.000
     168 ->177         0.23019
     168 ->179        -0.40759
     168 ->180        -0.33268
     168 ->185        -0.27450
     168 ->187         0.10855
     168 ->194         0.11219

 The electronic state is 1-A.
 Alpha  occ. eigenvalues --   -1.85173  -1.81603  -1.79513  -1.72385  -1.70345
 Alpha  occ. eigenvalues --   -1.68559  -1.65502  -1.62163  -1.58144  -1.57144
 Alpha  occ. eigenvalues --   -1.55368  -1.51908  -1.48055  -1.46987  -1.45726
 Alpha  occ. eigenvalues --   -1.44410  -1.44112  -1.41300  -1.39623  -1.37618
 Alpha  occ. eigenvalues --   -1.36130  -1.34528  -1.33598  -1.31325  -1.28589
 Alpha  occ. eigenvalues --   -1.27728  -1.27177  -1.22538  -1.20897  -1.17997
 Alpha  occ. eigenvalues --   -1.16451  -1.15011  -1.14532  -1.13952  -1.12004
 Alpha  occ. eigenvalues --   -1.11893  -1.10987  -1.09979  -1.05132  -1.03996
 Alpha  occ. eigenvalues --   -1.02031  -1.00943  -0.99757  -0.97732  -0.95722
 Alpha  occ. eigenvalues --   -0.94880  -0.94054  -0.93925  -0.92840  -0.92677
 Alpha  occ. eigenvalues --   -0.92024  -0.90904  -0.89150  -0.88224  -0.86836
 Alpha  occ. eigenvalues --   -0.86019  -0.85105  -0.83044  -0.82356  -0.81352
 Alpha  occ. eigenvalues --   -0.80164  -0.78835  -0.77251  -0.76666  -0.76216
 Alpha  occ. eigenvalues --   -0.75344  -0.74849  -0.74023  -0.73537  -0.73193
 Alpha  occ. eigenvalues --   -0.72582  -0.72045  -0.71646  -0.70978  -0.70359
 Alpha  occ. eigenvalues --   -0.70081  -0.69745  -0.69298  -0.68408  -0.68066
 Alpha  occ. eigenvalues --   -0.67581  -0.67072  -0.66462  -0.66017  -0.65772
 Alpha  occ. eigenvalues --   -0.65400  -0.65277  -0.65038  -0.64901  -0.64270
 Alpha  occ. eigenvalues --   -0.63507  -0.63330  -0.63167  -0.62846  -0.62300
 Alpha  occ. eigenvalues --   -0.62105  -0.61443  -0.60945  -0.60477  -0.60296
 Alpha  occ. eigenvalues --   -0.59990  -0.59466  -0.58932  -0.58748  -0.58501
 Alpha  occ. eigenvalues --   -0.58281  -0.57991  -0.57297  -0.57055  -0.56895
 Alpha  occ. eigenvalues --   -0.56831  -0.56432  -0.56166  -0.55253  -0.55084
 Alpha  occ. eigenvalues --   -0.54424  -0.54159  -0.53709  -0.53282  -0.53070
 Alpha  occ. eigenvalues --   -0.52896  -0.52442  -0.52275  -0.52051  -0.51481
 Alpha  occ. eigenvalues --   -0.51399  -0.51079  -0.50811  -0.50414  -0.50305
 Alpha  occ. eigenvalues --   -0.50210  -0.50031  -0.49796  -0.49144  -0.49034
 Alpha  occ. eigenvalues --   -0.48683  -0.48376  -0.48269  -0.48158  -0.47812
 Alpha  occ. eigenvalues --   -0.47453  -0.47297  -0.47002  -0.46659  -0.46533
 Alpha  occ. eigenvalues --   -0.46316  -0.46091  -0.45827  -0.45659  -0.45313
 Alpha  occ. eigenvalues --   -0.45306  -0.45075  -0.44853  -0.44744  -0.44539
 Alpha  occ. eigenvalues --   -0.44099  -0.43846  -0.42856  -0.42719  -0.42391
 Alpha  occ. eigenvalues --   -0.42227  -0.42113  -0.41999  -0.39185  -0.38753
 Alpha  occ. eigenvalues --   -0.38489  -0.37420  -0.35987  -0.35200  -0.34861
 Alpha  occ. eigenvalues --   -0.33588  -0.32895  -0.31891  -0.31158  -0.27032
 Alpha  occ. eigenvalues --   -0.22169
 Alpha virt. eigenvalues --   -0.09074  -0.02636  -0.00586   0.00998   0.01383
 Alpha virt. eigenvalues --    0.02087   0.02403   0.02674   0.03992   0.04990
 Alpha virt. eigenvalues --    0.05450   0.06175   0.06698   0.07077   0.07726

 Mulliken charges:
               1
     1  Mg   0.431675
     2  C   -0.046369
     3  C   -0.069669
     4  C   -0.103693
     5  C   -0.084620
     6  N   -0.261740
     7  C    0.107071
     8  C    0.010047
     9  C    0.002387
    10  C    0.113576
    11  C   -0.041773
    12  C   -0.006248
    13  C    0.004551
    14  C    0.469201
    15  O   -0.499453
    16  O   -0.292536
    17  N   -0.328583
    18  C    0.111958
    19  C    0.047583
    20  C   -0.055327
    21  C    0.148187
    22  C   -0.035477
    23  C    0.319859
    24  O   -0.519387
    25  C   -0.022422
    26  N   -0.309637
    27  C    0.156651
    28  C    0.005756
    29  C   -0.001040
    30  C    0.139691
    31  C   -0.047419
    32  C   -0.033236
    33  C   -0.063979
    34  N   -0.311124
    35  C    0.088010
    36  C    0.016158
    37  C   -0.062735
    38  C    0.112637
    39  C   -0.034978
    40  C    0.332519
    41  O   -0.520513
    42  C    0.066778
    43  C    0.470842
    44  O   -0.497992
    45  O   -0.294104
    46  C    0.076042
    47  C    0.099291
    48  C   -0.097899
    49  C   -0.009172
    50  C   -0.042833
    51  C   -0.023991
    52  C   -0.032149
    53  C   -0.035357
    54  C   -0.008695
    55  C   -0.055740
    56  C   -0.040093
    57  C   -0.037297
    58  C   -0.038295
    59  C   -0.009212
    60  C   -0.062569
    61  C   -0.036786
    62  C   -0.042878
    63  C   -0.036395
    64  C   -0.013205
    65  C   -0.068228
    66  C   -0.059806
    67  H    0.031711
    68  H    0.026426
    69  H    0.037625
    70  H    0.037917
    71  H    0.027062
    72  H    0.017044
    73  H    0.021395
    74  H    0.029275
    75  H    0.035512
    76  H    0.031294
    77  H    0.038652
    78  H    0.032084
    79  H    0.024529
    80  H    0.035572
    81  H    0.044198
    82  H    0.034476
    83  H    0.041563
    84  H    0.040674
    85  H    0.028218
    86  H    0.024365
    87  H    0.022663
    88  H    0.013669
    89  H    0.026852
    90  H    0.023469
    91  H    0.019884
    92  H    0.022676
    93  H    0.028585
    94  H    0.019561
    95  H    0.038087
    96  H    0.021941
    97  H    0.032169
    98  H    0.061149
    99  H    0.045923
   100  H    0.053818
   101  H    0.031887
   102  H    0.055076
   103  H    0.046053
   104  H    0.037996
   105  H    0.035455
   106  H    0.017308
   107  H    0.036545
   108  H    0.020793
   109  H    0.017635
   110  H    0.017300
   111  H    0.018747
   112  H    0.018062
   113  H    0.016097
   114  H    0.028094
   115  H    0.026038
   116  H    0.018743
   117  H    0.010440
   118  H    0.015191
   119  H    0.019992
   120  H    0.011351
   121  H    0.017852
   122  H    0.016381
   123  H    0.026335
   124  H    0.026789
   125  H    0.014687
   126  H    0.017207
   127  H    0.020332
   128  H    0.021206
   129  H    0.016958
   130  H    0.018720
   131  H    0.021534
   132  H    0.016100
   133  H    0.020258
   134  H    0.017850
   135  H    0.023111
   136  H    0.025100
   137  H    0.028616
   138  H    0.020961
   139  H    0.014623
   140  H    0.010724
 Sum of Mulliken charges =   0.00000

 Dipole moment (field-independent basis, Debye):
    X=              1.9964    Y=              7.0206    Z=             -1.9035  Tot=              7.5431
 N-N= 4.243829900291D+03 E-N= 0.000000000000D+00  KE=-9.161278869064D+03
 Leave Link  601 at Tue Apr 26 23:36:09 2022, MaxMem=  6710886400 cpu:               2.2 elap:               0.1
 (Enter /sw/apps/gaussian-16.0/g16/l9999.exe)
 1\1\GINC-BP1-COMPUTE165\SP\RZINDO CIS\STO-3G\C55H74Mg1N4O6\OF15641\26-
 Apr-2022\0\\#p ZINDO=(nstates=5)\\step_1001_chromophore_5 ZINDO\\0,1\M
 g,0,24.929,-8.041,46.769\C,0,27.266,-5.537,45.809\C,0,22.507,-6.356,44
 .896\C,0,22.915,-10.657,47.249\C,0,27.67,-9.851,48.207\N,0,24.944,-6.2
 13,45.387\C,0,25.939,-5.291,45.261\C,0,25.516,-4.097,44.405\C,0,23.902
 ,-4.101,44.59\C,0,23.787,-5.665,44.912\C,0,23.291,-3.169,45.632\C,0,25
 .996,-4.317,42.964\C,0,25.801,-3.16,42.\C,0,26.293,-3.383,40.596\O,0,2

 Normal termination of Gaussian 16 at Tue Apr 26 23:36:09 2022.
