 Gaussian 16, Revision A.03,
 Gaussian 16:  ES64L-G16RevA.03 25-Dec-2016

 ------------------------------
 #p blyp/Def2SVP td=(nstates=5)
 ------------------------------

 ---------------------------------------------------
 step_1151_chromophore_17 TDDFT with blyp functional
 ---------------------------------------------------
 Symbolic Z-matrix:
 Charge =  0 Multiplicity = 1

                         Standard orientation:
 ---------------------------------------------------------------------
 Center     Atomic      Atomic             Coordinates (Angstroms)
 Number     Number       Type             X           Y           Z
 ---------------------------------------------------------------------
      1         12           0       -4.624711   -1.308892   -0.573278
      2          6           0       -4.346956    2.196752   -0.218588
      3          6           0       -2.083914   -1.315764   -2.727777
      4          6           0       -4.288282   -4.694388   -0.116800
      5          6           0       -6.963950   -1.217533    2.146784
      6          7           0       -3.448514    0.282856   -1.394962
      7          6           0       -3.505807    1.600508   -1.161671
      8          6           0       -2.436762    2.339232   -2.016354
      9          6           0       -2.026004    1.275065   -3.062609
     10          6           0       -2.561990   -0.000336   -2.382919
     11          6           0       -2.556613    1.547979   -4.456157
     12          6           0       -1.266798    2.947387   -1.182517
     13          6           0       -0.709789    4.316570   -1.704217
     14          6           0        0.054341    5.245526   -0.767138
     15          8           0       -0.289862    6.391721   -0.448227
     16          8           0        1.189453    4.581365   -0.271425
     17          7           0       -3.381998   -2.839581   -1.405615
     18          6           0       -2.451489   -2.584937   -2.307164
     19          6           0       -1.780401   -3.908867   -2.627281
     20          6           0       -2.526626   -4.898278   -1.937041
     21          6           0       -3.426684   -4.180797   -1.075416
     22          6           0       -0.733548   -4.126404   -3.542942
     23          6           0       -2.376810   -6.418716   -2.056428
     24          8           0       -1.562262   -6.827840   -2.886164
     25          6           0       -3.308480   -7.395603   -1.414919
     26          7           0       -5.336322   -2.737311    0.931087
     27          6           0       -5.116965   -4.034784    0.832042
     28          6           0       -5.862143   -4.790106    1.973934
     29          6           0       -6.870755   -3.775325    2.517732
     30          6           0       -6.313132   -2.478653    1.880155
     31          6           0       -6.635855   -6.163113    1.554164
     32          6           0       -6.961297   -3.742911    4.116197
     33          6           0       -8.366538   -4.158779    4.704740
     34          7           0       -5.588396    0.155844    0.693873
     35          6           0       -6.480561    0.027413    1.710584
     36          6           0       -6.890178    1.370827    2.023206
     37          6           0       -6.038492    2.271048    1.342571
     38          6           0       -5.230178    1.433507    0.555718
     39          6           0       -7.998780    1.793517    2.983917
     40          6           0       -5.704306    3.684313    1.082681
     41          8           0       -6.189821    4.669939    1.523171
     42          6           0       -4.571982    3.708138    0.090431
     43          6           0       -4.955094    4.631268   -1.048587
     44          8           0       -5.766890    4.419804   -1.984211
     45          8           0       -4.234163    5.796439   -1.019943
     46          6           0       -4.538131    6.596662   -2.290110
     47          6           0        2.028981    5.246133    0.756610
     48          6           0        3.413711    4.479718    0.901054
     49          6           0        4.657857    4.881996    1.217373
     50          6           0        5.080691    6.135302    1.919883
     51          6           0        5.805721    3.935458    0.973122
     52          6           0        5.949994    2.849583    2.008637
     53          6           0        5.711421    1.478687    1.435536
     54          6           0        6.906331    0.569174    1.716113
     55          6           0        6.971036    0.159842    3.183205
     56          6           0        6.762176   -0.749444    0.786656
     57          6           0        7.343967   -0.717272   -0.641344
     58          6           0        8.348913   -1.883962   -1.026693
     59          6           0        9.843817   -1.430754   -1.247769
     60          6           0       10.458864   -1.951544   -2.575281
     61          6           0       10.583971   -1.989354   -0.029129
     62          6           0       11.958792   -1.345895   -0.062533
     63          6           0       13.174828   -2.283075    0.074722
     64          6           0       14.227964   -1.860133    1.118723
     65          6           0       15.463864   -2.857124    0.947432
     66          6           0       13.727830   -1.832480    2.591098
     67          1           0       -1.264074   -1.250015   -3.446849
     68          1           0       -4.149981   -5.695973    0.296047
     69          1           0       -7.727311   -1.156262    2.925058
     70          1           0       -2.933461    3.140580   -2.563450
     71          1           0       -0.938173    1.212229   -3.054311
     72          1           0       -1.706042    2.038923   -4.930106
     73          1           0       -3.348457    2.278641   -4.623685
     74          1           0       -2.859467    0.665827   -5.019748
     75          1           0       -0.453010    2.222867   -1.217744
     76          1           0       -1.539621    3.026633   -0.130107
     77          1           0       -1.585927    4.915508   -1.953557
     78          1           0       -0.067487    4.182223   -2.573780
     79          1           0        0.051104   -4.804241   -3.207055
     80          1           0       -0.212904   -3.208944   -3.817168
     81          1           0       -1.111107   -4.573266   -4.462201
     82          1           0       -2.939333   -7.608918   -0.411743
     83          1           0       -3.065264   -8.283374   -1.998389
     84          1           0       -4.342361   -7.061511   -1.496526
     85          1           0       -5.240494   -5.173113    2.783470
     86          1           0       -7.857972   -3.914998    2.079267
     87          1           0       -7.695956   -6.207080    1.805315
     88          1           0       -6.262890   -7.029089    2.102704
     89          1           0       -6.606472   -6.343540    0.478941
     90          1           0       -6.780508   -2.699668    4.377506
     91          1           0       -6.219440   -4.382626    4.594325
     92          1           0       -9.071753   -4.570786    3.983660
     93          1           0       -8.887038   -3.234049    4.952417
     94          1           0       -8.210282   -4.785383    5.582685
     95          1           0       -7.849695    1.278841    3.933511
     96          1           0       -8.917384    1.413859    2.536576
     97          1           0       -8.098310    2.874538    3.078014
     98          1           0       -3.691967    3.992960    0.666052
     99          1           0       -4.352201    6.050033   -3.214152
    100          1           0       -3.808691    7.403189   -2.216782
    101          1           0       -5.523779    7.050358   -2.187559
    102          1           0        1.537053    5.112069    1.720065
    103          1           0        2.212187    6.305337    0.574558
    104          1           0        3.424110    3.507539    0.408643
    105          1           0        5.430725    6.739749    1.082266
    106          1           0        5.811872    5.892546    2.691280
    107          1           0        4.328519    6.782216    2.370780
    108          1           0        6.755101    4.460812    1.073030
    109          1           0        5.767401    3.510912   -0.030874
    110          1           0        5.294351    2.883537    2.879629
    111          1           0        6.960330    2.909621    2.412451
    112          1           0        5.440046    1.543486    0.381324
    113          1           0        4.806288    1.045548    1.860113
    114          1           0        7.749012    1.189160    1.408574
    115          1           0        6.352916    0.788265    3.824475
    116          1           0        7.911055    0.397841    3.679579
    117          1           0        7.018401   -0.893037    3.457601
    118          1           0        5.736572   -1.012742    0.530732
    119          1           0        7.250475   -1.574722    1.304039
    120          1           0        7.771373    0.278604   -0.758269
    121          1           0        6.543798   -0.799862   -1.377878
    122          1           0        8.112817   -2.510722   -1.886801
    123          1           0        8.192181   -2.606791   -0.226266
    124          1           0        9.782368   -0.343270   -1.299387
    125          1           0       11.547595   -1.986259   -2.527723
    126          1           0       10.284393   -1.105577   -3.240627
    127          1           0       10.020960   -2.928096   -2.776886
    128          1           0       10.701778   -3.059192   -0.201953
    129          1           0       10.207946   -1.963324    0.993643
    130          1           0       11.963018   -0.658512    0.782903
    131          1           0       12.171777   -0.759913   -0.956857
    132          1           0       13.705057   -2.107802   -0.862072
    133          1           0       12.992095   -3.323254   -0.193856
    134          1           0       14.389472   -0.819377    0.836198
    135          1           0       15.429108   -3.564123    0.119088
    136          1           0       15.785095   -3.388861    1.842846
    137          1           0       16.275385   -2.180870    0.680053
    138          1           0       13.575633   -0.829745    2.991088
    139          1           0       14.308193   -2.491141    3.236900
    140          1           0       12.794119   -2.393436    2.556190
 ---------------------------------------------------------------------

 SCF Done:  E(RB-LYP) =  -3007.31743334     A.U. after   21 cycles

 Excitation energies and oscillator strengths:

 Excited State   1:      Singlet-A      1.8487 eV  670.64 nm  f=0.2913  <S**2>=0.000
     245 -> 248        0.20556
     246 -> 247        0.68493
     246 <- 247       -0.14042
 This state for optimization and/or second-order correction.
 Total Energy, E(TD-HF/TD-DFT) =  -3007.24949327
 Copying the excited state density for this state as the 1-particle RhoCI density.

 Excited State   2:      Singlet-A      2.0620 eV  601.28 nm  f=0.0035  <S**2>=0.000
     244 -> 247        0.66631
     245 -> 247       -0.21448

 Excited State   3:      Singlet-A      2.1142 eV  586.42 nm  f=0.0315  <S**2>=0.000
     243 -> 247        0.23957
     244 -> 247        0.22623
     245 -> 247        0.54383
     246 -> 248       -0.28441

 Excited State   4:      Singlet-A      2.1309 eV  581.85 nm  f=0.0040  <S**2>=0.000
     243 -> 247        0.66421
     245 -> 247       -0.19955
     246 -> 248        0.11648

 Excited State   5:      Singlet-A      2.3500 eV  527.59 nm  f=0.0000  <S**2>=0.000
     241 -> 247        0.68548
     242 -> 247       -0.17346

 The electronic state is 1-A.
 Alpha  occ. eigenvalues --  -46.28370 -18.82330 -18.82022 -18.77184 -18.76490
 Alpha  occ. eigenvalues --  -18.75666 -18.75552 -14.03881 -14.03539 -14.01212
 Alpha  occ. eigenvalues --  -14.00455 -10.04550 -10.04282  -9.99966  -9.99413
 Alpha  occ. eigenvalues --   -9.98648  -9.97528  -9.97149  -9.96947  -9.96812
 Alpha  occ. eigenvalues --   -9.96543  -9.95890  -9.95882  -9.95028  -9.94542
 Alpha  occ. eigenvalues --   -9.94372  -9.94327  -9.94120  -9.94034  -9.93948
 Alpha  occ. eigenvalues --   -9.93913  -9.93894  -9.93829  -9.93719  -9.93315
 Alpha  occ. eigenvalues --   -9.93281  -9.93204  -9.93112  -9.92878  -9.92627
 Alpha  occ. eigenvalues --   -9.92626  -9.92621  -9.92577  -9.92477  -9.92348
 Alpha  occ. eigenvalues --   -9.92266  -9.92262  -9.92253  -9.91823  -9.91729
 Alpha  occ. eigenvalues --   -9.91695  -9.91686  -9.91253  -9.91150  -9.91042
 Alpha  occ. eigenvalues --   -9.91022  -9.91017  -9.90982  -9.90882  -9.90719
 Alpha  occ. eigenvalues --   -9.90573  -9.90573  -9.90477  -9.90255  -9.90160
 Alpha  occ. eigenvalues --   -9.90090  -2.92815  -1.73233  -1.72685  -1.72539
 Alpha  occ. eigenvalues --   -0.96796  -0.96067  -0.93542  -0.91365  -0.89108
 Alpha  occ. eigenvalues --   -0.87620  -0.87375  -0.86663  -0.86306  -0.85701
 Alpha  occ. eigenvalues --   -0.75759  -0.74329  -0.73149  -0.72911  -0.72213
 Alpha  occ. eigenvalues --   -0.71865  -0.71579  -0.70645  -0.70546  -0.70440
 Alpha  occ. eigenvalues --   -0.69572  -0.69069  -0.67983  -0.67578  -0.66891
 Alpha  occ. eigenvalues --   -0.66195  -0.66101  -0.65391  -0.64890  -0.64591
 Alpha  occ. eigenvalues --   -0.64176  -0.62621  -0.62387  -0.61806  -0.60805
 Alpha  occ. eigenvalues --   -0.60603  -0.60152  -0.59760  -0.59692  -0.58990
 Alpha  occ. eigenvalues --   -0.58310  -0.57332  -0.57224  -0.56189  -0.54767
 Alpha  occ. eigenvalues --   -0.54016  -0.53684  -0.52748  -0.52034  -0.51697
 Alpha  occ. eigenvalues --   -0.51513  -0.51264  -0.50625  -0.50563  -0.49901
 Alpha  occ. eigenvalues --   -0.49516  -0.49335  -0.48914  -0.48155  -0.46464
 Alpha  occ. eigenvalues --   -0.46313  -0.46020  -0.45863  -0.45505  -0.44935
 Alpha  occ. eigenvalues --   -0.44188  -0.43242  -0.43174  -0.42632  -0.42358
 Alpha  occ. eigenvalues --   -0.41961  -0.41641  -0.41475  -0.41368  -0.41049
 Alpha  occ. eigenvalues --   -0.40656  -0.40515  -0.40460  -0.40424  -0.40188
 Alpha  occ. eigenvalues --   -0.40012  -0.39793  -0.39656  -0.39373  -0.39301
 Alpha  occ. eigenvalues --   -0.39005  -0.38915  -0.38701  -0.38424  -0.38259
 Alpha  occ. eigenvalues --   -0.38166  -0.37938  -0.37589  -0.37385  -0.37067
 Alpha  occ. eigenvalues --   -0.36984  -0.36860  -0.36664  -0.36554  -0.36394
 Alpha  occ. eigenvalues --   -0.35937  -0.35876  -0.35837  -0.35700  -0.35271
 Alpha  occ. eigenvalues --   -0.35192  -0.35157  -0.35049  -0.34975  -0.34876
 Alpha  occ. eigenvalues --   -0.34649  -0.34554  -0.34459  -0.34160  -0.34010
 Alpha  occ. eigenvalues --   -0.33800  -0.33770  -0.33618  -0.33503  -0.33228
 Alpha  occ. eigenvalues --   -0.32886  -0.32724  -0.32633  -0.32203  -0.32007
 Alpha  occ. eigenvalues --   -0.31901  -0.31757  -0.31577  -0.31429  -0.31338
 Alpha  occ. eigenvalues --   -0.31311  -0.31065  -0.30865  -0.30805  -0.30607
 Alpha  occ. eigenvalues --   -0.30415  -0.30345  -0.30224  -0.30134  -0.30068
 Alpha  occ. eigenvalues --   -0.30023  -0.29616  -0.29459  -0.29290  -0.29070
 Alpha  occ. eigenvalues --   -0.28921  -0.28774  -0.28237  -0.28100  -0.27740
 Alpha  occ. eigenvalues --   -0.27496  -0.26995  -0.26935  -0.26887  -0.26454
 Alpha  occ. eigenvalues --   -0.25989  -0.25972  -0.25547  -0.25136  -0.25093
 Alpha  occ. eigenvalues --   -0.25028  -0.24624  -0.24452  -0.24337  -0.23309
 Alpha  occ. eigenvalues --   -0.22184  -0.21886  -0.21846  -0.21495  -0.20414
 Alpha  occ. eigenvalues --   -0.19882  -0.19857  -0.18978  -0.18768  -0.17599
 Alpha  occ. eigenvalues --   -0.15726
 Alpha virt. eigenvalues --   -0.11244  -0.07283  -0.06154  -0.04698  -0.03753
 Alpha virt. eigenvalues --   -0.03430  -0.03227  -0.01886  -0.01734  -0.00069
 Alpha virt. eigenvalues --    0.01033   0.01543   0.02350   0.02740   0.02849

 Mulliken charges:
               1
     1  Mg   0.695391
     2  C   -0.102034
     3  C   -0.062774
     4  C   -0.069263
     5  C   -0.063160
     6  N   -0.210255
     7  C   -0.084586
     8  C   -0.004377
     9  C    0.021006
    10  C   -0.004643
    11  C    0.131500
    12  C    0.135757
    13  C    0.122992
    14  C    0.084475
    15  O   -0.189310
    16  O   -0.307315
    17  N   -0.252604
    18  C    0.141455
    19  C   -0.131930
    20  C    0.061365
    21  C    0.129855
    22  C    0.189920
    23  C   -0.108583
    24  O   -0.183410
    25  C    0.166258
    26  N   -0.181426
    27  C   -0.028364
    28  C    0.018174
    29  C    0.031963
    30  C    0.001934
    31  C    0.075876
    32  C    0.077380
    33  C    0.046957
    34  N   -0.221189
    35  C    0.104522
    36  C   -0.215891
    37  C    0.070628
    38  C    0.109868
    39  C    0.173435
    40  C   -0.111644
    41  O   -0.082646
    42  C    0.190800
    43  C    0.145576
    44  O   -0.226911
    45  O   -0.272888
    46  C    0.218886
    47  C    0.322551
    48  C   -0.111305
    49  C   -0.153676
    50  C    0.147475
    51  C    0.149885
    52  C    0.081631
    53  C    0.058404
    54  C   -0.039442
    55  C    0.122750
    56  C    0.097149
    57  C    0.056447
    58  C    0.112502
    59  C   -0.104924
    60  C    0.124715
    61  C    0.118810
    62  C    0.072935
    63  C    0.063200
    64  C   -0.073608
    65  C    0.095419
    66  C    0.120324
    67  H   -0.063869
    68  H   -0.042709
    69  H   -0.051350
    70  H   -0.023121
    71  H   -0.027704
    72  H   -0.013976
    73  H    0.002836
    74  H   -0.004950
    75  H   -0.018825
    76  H   -0.016310
    77  H   -0.006358
    78  H    0.004623
    79  H    0.000518
    80  H   -0.033012
    81  H    0.007032
    82  H    0.012225
    83  H   -0.010477
    84  H    0.026630
    85  H   -0.009693
    86  H   -0.014589
    87  H   -0.013700
    88  H   -0.015749
    89  H   -0.004859
    90  H   -0.012506
    91  H   -0.016937
    92  H   -0.008194
    93  H   -0.012148
    94  H    0.003078
    95  H   -0.001772
    96  H   -0.009214
    97  H    0.008550
    98  H    0.006886
    99  H    0.026870
   100  H    0.012282
   101  H    0.030342
   102  H    0.001124
   103  H    0.010751
   104  H   -0.036046
   105  H    0.002491
   106  H    0.005846
   107  H   -0.019370
   108  H   -0.048787
   109  H   -0.015643
   110  H   -0.019329
   111  H   -0.032205
   112  H   -0.037537
   113  H   -0.038658
   114  H   -0.033043
   115  H   -0.022370
   116  H   -0.043574
   117  H   -0.010756
   118  H   -0.026376
   119  H   -0.033336
   120  H   -0.034762
   121  H   -0.033447
   122  H   -0.055732
   123  H   -0.041861
   124  H   -0.033885
   125  H   -0.020060
   126  H   -0.015555
   127  H    0.002316
   128  H   -0.045538
   129  H   -0.027897
   130  H   -0.043266
   131  H   -0.027382
   132  H   -0.053622
   133  H   -0.044693
   134  H   -0.031002
   135  H   -0.014254
   136  H   -0.011564
   137  H   -0.018252
   138  H   -0.002232
   139  H   -0.024318
   140  H   -0.028041
 Sum of Mulliken charges =  -0.00000

 Dipole moment (field-independent basis, Debye):
    X=              1.9526    Y=             -2.7067    Z=              0.5573  Tot=              3.3837
 Quadrupole moment (field-independent basis, Debye-Ang):
   XX=           -393.1122   YY=           -430.3707   ZZ=           -395.3445
   XY=             50.6743   XZ=             -2.2125   YZ=            -28.3001

 Normal termination of Gaussian 16 at Wed Apr 27 11:47:17 2022.
