 Gaussian 16, Revision A.03,
 Gaussian 16:  ES64L-G16RevA.03 25-Dec-2016

 -----------------------------------
 #p cam-b3lyp/Def2SVP td=(nstates=5)
 -----------------------------------

 --------------------------------------------------------
 step_1151_chromophore_17 TDDFT with cam-b3lyp functional
 --------------------------------------------------------
 Symbolic Z-matrix:
 Charge =  0 Multiplicity = 1

                         Standard orientation:
 ---------------------------------------------------------------------
 Center     Atomic      Atomic             Coordinates (Angstroms)
 Number     Number       Type             X           Y           Z
 ---------------------------------------------------------------------
      1         12           0       -4.624711   -1.308892   -0.573278
      2          6           0       -4.346956    2.196752   -0.218588
      3          6           0       -2.083914   -1.315764   -2.727777
      4          6           0       -4.288282   -4.694388   -0.116800
      5          6           0       -6.963950   -1.217533    2.146784
      6          7           0       -3.448514    0.282856   -1.394962
      7          6           0       -3.505807    1.600508   -1.161671
      8          6           0       -2.436762    2.339232   -2.016354
      9          6           0       -2.026004    1.275065   -3.062609
     10          6           0       -2.561990   -0.000336   -2.382919
     11          6           0       -2.556613    1.547979   -4.456157
     12          6           0       -1.266798    2.947387   -1.182517
     13          6           0       -0.709789    4.316570   -1.704217
     14          6           0        0.054341    5.245526   -0.767138
     15          8           0       -0.289862    6.391721   -0.448227
     16          8           0        1.189453    4.581365   -0.271425
     17          7           0       -3.381998   -2.839581   -1.405615
     18          6           0       -2.451489   -2.584937   -2.307164
     19          6           0       -1.780401   -3.908867   -2.627281
     20          6           0       -2.526626   -4.898278   -1.937041
     21          6           0       -3.426684   -4.180797   -1.075416
     22          6           0       -0.733548   -4.126404   -3.542942
     23          6           0       -2.376810   -6.418716   -2.056428
     24          8           0       -1.562262   -6.827840   -2.886164
     25          6           0       -3.308480   -7.395603   -1.414919
     26          7           0       -5.336322   -2.737311    0.931087
     27          6           0       -5.116965   -4.034784    0.832042
     28          6           0       -5.862143   -4.790106    1.973934
     29          6           0       -6.870755   -3.775325    2.517732
     30          6           0       -6.313132   -2.478653    1.880155
     31          6           0       -6.635855   -6.163113    1.554164
     32          6           0       -6.961297   -3.742911    4.116197
     33          6           0       -8.366538   -4.158779    4.704740
     34          7           0       -5.588396    0.155844    0.693873
     35          6           0       -6.480561    0.027413    1.710584
     36          6           0       -6.890178    1.370827    2.023206
     37          6           0       -6.038492    2.271048    1.342571
     38          6           0       -5.230178    1.433507    0.555718
     39          6           0       -7.998780    1.793517    2.983917
     40          6           0       -5.704306    3.684313    1.082681
     41          8           0       -6.189821    4.669939    1.523171
     42          6           0       -4.571982    3.708138    0.090431
     43          6           0       -4.955094    4.631268   -1.048587
     44          8           0       -5.766890    4.419804   -1.984211
     45          8           0       -4.234163    5.796439   -1.019943
     46          6           0       -4.538131    6.596662   -2.290110
     47          6           0        2.028981    5.246133    0.756610
     48          6           0        3.413711    4.479718    0.901054
     49          6           0        4.657857    4.881996    1.217373
     50          6           0        5.080691    6.135302    1.919883
     51          6           0        5.805721    3.935458    0.973122
     52          6           0        5.949994    2.849583    2.008637
     53          6           0        5.711421    1.478687    1.435536
     54          6           0        6.906331    0.569174    1.716113
     55          6           0        6.971036    0.159842    3.183205
     56          6           0        6.762176   -0.749444    0.786656
     57          6           0        7.343967   -0.717272   -0.641344
     58          6           0        8.348913   -1.883962   -1.026693
     59          6           0        9.843817   -1.430754   -1.247769
     60          6           0       10.458864   -1.951544   -2.575281
     61          6           0       10.583971   -1.989354   -0.029129
     62          6           0       11.958792   -1.345895   -0.062533
     63          6           0       13.174828   -2.283075    0.074722
     64          6           0       14.227964   -1.860133    1.118723
     65          6           0       15.463864   -2.857124    0.947432
     66          6           0       13.727830   -1.832480    2.591098
     67          1           0       -1.264074   -1.250015   -3.446849
     68          1           0       -4.149981   -5.695973    0.296047
     69          1           0       -7.727311   -1.156262    2.925058
     70          1           0       -2.933461    3.140580   -2.563450
     71          1           0       -0.938173    1.212229   -3.054311
     72          1           0       -1.706042    2.038923   -4.930106
     73          1           0       -3.348457    2.278641   -4.623685
     74          1           0       -2.859467    0.665827   -5.019748
     75          1           0       -0.453010    2.222867   -1.217744
     76          1           0       -1.539621    3.026633   -0.130107
     77          1           0       -1.585927    4.915508   -1.953557
     78          1           0       -0.067487    4.182223   -2.573780
     79          1           0        0.051104   -4.804241   -3.207055
     80          1           0       -0.212904   -3.208944   -3.817168
     81          1           0       -1.111107   -4.573266   -4.462201
     82          1           0       -2.939333   -7.608918   -0.411743
     83          1           0       -3.065264   -8.283374   -1.998389
     84          1           0       -4.342361   -7.061511   -1.496526
     85          1           0       -5.240494   -5.173113    2.783470
     86          1           0       -7.857972   -3.914998    2.079267
     87          1           0       -7.695956   -6.207080    1.805315
     88          1           0       -6.262890   -7.029089    2.102704
     89          1           0       -6.606472   -6.343540    0.478941
     90          1           0       -6.780508   -2.699668    4.377506
     91          1           0       -6.219440   -4.382626    4.594325
     92          1           0       -9.071753   -4.570786    3.983660
     93          1           0       -8.887038   -3.234049    4.952417
     94          1           0       -8.210282   -4.785383    5.582685
     95          1           0       -7.849695    1.278841    3.933511
     96          1           0       -8.917384    1.413859    2.536576
     97          1           0       -8.098310    2.874538    3.078014
     98          1           0       -3.691967    3.992960    0.666052
     99          1           0       -4.352201    6.050033   -3.214152
    100          1           0       -3.808691    7.403189   -2.216782
    101          1           0       -5.523779    7.050358   -2.187559
    102          1           0        1.537053    5.112069    1.720065
    103          1           0        2.212187    6.305337    0.574558
    104          1           0        3.424110    3.507539    0.408643
    105          1           0        5.430725    6.739749    1.082266
    106          1           0        5.811872    5.892546    2.691280
    107          1           0        4.328519    6.782216    2.370780
    108          1           0        6.755101    4.460812    1.073030
    109          1           0        5.767401    3.510912   -0.030874
    110          1           0        5.294351    2.883537    2.879629
    111          1           0        6.960330    2.909621    2.412451
    112          1           0        5.440046    1.543486    0.381324
    113          1           0        4.806288    1.045548    1.860113
    114          1           0        7.749012    1.189160    1.408574
    115          1           0        6.352916    0.788265    3.824475
    116          1           0        7.911055    0.397841    3.679579
    117          1           0        7.018401   -0.893037    3.457601
    118          1           0        5.736572   -1.012742    0.530732
    119          1           0        7.250475   -1.574722    1.304039
    120          1           0        7.771373    0.278604   -0.758269
    121          1           0        6.543798   -0.799862   -1.377878
    122          1           0        8.112817   -2.510722   -1.886801
    123          1           0        8.192181   -2.606791   -0.226266
    124          1           0        9.782368   -0.343270   -1.299387
    125          1           0       11.547595   -1.986259   -2.527723
    126          1           0       10.284393   -1.105577   -3.240627
    127          1           0       10.020960   -2.928096   -2.776886
    128          1           0       10.701778   -3.059192   -0.201953
    129          1           0       10.207946   -1.963324    0.993643
    130          1           0       11.963018   -0.658512    0.782903
    131          1           0       12.171777   -0.759913   -0.956857
    132          1           0       13.705057   -2.107802   -0.862072
    133          1           0       12.992095   -3.323254   -0.193856
    134          1           0       14.389472   -0.819377    0.836198
    135          1           0       15.429108   -3.564123    0.119088
    136          1           0       15.785095   -3.388861    1.842846
    137          1           0       16.275385   -2.180870    0.680053
    138          1           0       13.575633   -0.829745    2.991088
    139          1           0       14.308193   -2.491141    3.236900
    140          1           0       12.794119   -2.393436    2.556190
 ---------------------------------------------------------------------

 SCF Done:  E(RCAM-B3LYP) =  -3007.10681851     A.U. after   18 cycles

 Excitation energies and oscillator strengths:

 Excited State   1:      Singlet-A      1.7734 eV  699.15 nm  f=0.3581  <S**2>=0.000
     245 -> 248       -0.19038
     246 -> 247        0.68271
     245 <- 248       -0.10868
 This state for optimization and/or second-order correction.
 Total Energy, E(TD-HF/TD-DFT) =  -3007.04164871
 Copying the excited state density for this state as the 1-particle RhoCI density.

 Excited State   2:      Singlet-A      2.3223 eV  533.88 nm  f=0.0409  <S**2>=0.000
     245 -> 247        0.59042
     246 -> 248        0.37848

 Excited State   3:      Singlet-A      3.4290 eV  361.57 nm  f=0.0371  <S**2>=0.000
     244 -> 247        0.65842
     246 -> 248       -0.18348

 Excited State   4:      Singlet-A      3.4476 eV  359.62 nm  f=0.4827  <S**2>=0.000
     242 -> 247       -0.40623
     244 -> 247        0.13141
     245 -> 247       -0.27543
     246 -> 248        0.47635

 Excited State   5:      Singlet-A      3.6367 eV  340.92 nm  f=0.3917  <S**2>=0.000
     239 -> 247       -0.19082
     239 -> 249       -0.16403
     242 -> 247        0.48551
     244 -> 247        0.13110
     245 -> 247       -0.22875
     246 -> 248        0.26746
     246 -> 250       -0.14713

 The electronic state is 1-A.
 Alpha  occ. eigenvalues --  -46.90029 -19.25184 -19.24856 -19.20191 -19.19457
 Alpha  occ. eigenvalues --  -19.19037 -19.18707 -14.42785 -14.42419 -14.39817
 Alpha  occ. eigenvalues --  -14.38640 -10.39947 -10.39715 -10.35367 -10.34428
 Alpha  occ. eigenvalues --  -10.32748 -10.31953 -10.31544 -10.31527 -10.31184
 Alpha  occ. eigenvalues --  -10.30821 -10.30681 -10.30601 -10.28788 -10.28771
 Alpha  occ. eigenvalues --  -10.28737 -10.28449 -10.28399 -10.28174 -10.28034
 Alpha  occ. eigenvalues --  -10.28019 -10.27866 -10.27842 -10.27790 -10.27392
 Alpha  occ. eigenvalues --  -10.27345 -10.27117 -10.27043 -10.26994 -10.26901
 Alpha  occ. eigenvalues --  -10.26814 -10.26505 -10.26480 -10.26380 -10.26317
 Alpha  occ. eigenvalues --  -10.26256 -10.25954 -10.25884 -10.25685 -10.25482
 Alpha  occ. eigenvalues --  -10.25348 -10.25281 -10.25178 -10.24773 -10.24738
 Alpha  occ. eigenvalues --  -10.24726 -10.24601 -10.24556 -10.24520 -10.24450
 Alpha  occ. eigenvalues --  -10.24183 -10.24163 -10.24123 -10.24027 -10.23838
 Alpha  occ. eigenvalues --  -10.23752  -3.18364  -1.93261  -1.92806  -1.92662
 Alpha  occ. eigenvalues --   -1.15197  -1.14442  -1.11893  -1.10006  -1.06913
 Alpha  occ. eigenvalues --   -1.05366  -1.05151  -1.04402  -1.03926  -1.03223
 Alpha  occ. eigenvalues --   -0.92761  -0.91223  -0.89947  -0.89744  -0.89014
 Alpha  occ. eigenvalues --   -0.88550  -0.88263  -0.87547  -0.87152  -0.87048
 Alpha  occ. eigenvalues --   -0.85956  -0.85324  -0.84235  -0.83824  -0.83071
 Alpha  occ. eigenvalues --   -0.82482  -0.82119  -0.81324  -0.80651  -0.80406
 Alpha  occ. eigenvalues --   -0.79958  -0.78316  -0.78026  -0.77363  -0.76151
 Alpha  occ. eigenvalues --   -0.75924  -0.75527  -0.75058  -0.75007  -0.74208
 Alpha  occ. eigenvalues --   -0.73389  -0.72269  -0.72117  -0.71032  -0.69358
 Alpha  occ. eigenvalues --   -0.68615  -0.68172  -0.67422  -0.66421  -0.65956
 Alpha  occ. eigenvalues --   -0.65559  -0.65207  -0.64737  -0.64688  -0.63938
 Alpha  occ. eigenvalues --   -0.63360  -0.63173  -0.62824  -0.61851  -0.60155
 Alpha  occ. eigenvalues --   -0.60052  -0.59529  -0.59251  -0.58874  -0.58431
 Alpha  occ. eigenvalues --   -0.57629  -0.56630  -0.56434  -0.55826  -0.55264
 Alpha  occ. eigenvalues --   -0.55076  -0.54418  -0.54340  -0.54300  -0.53795
 Alpha  occ. eigenvalues --   -0.53560  -0.53445  -0.53202  -0.53069  -0.52939
 Alpha  occ. eigenvalues --   -0.52843  -0.52631  -0.52406  -0.52172  -0.51822
 Alpha  occ. eigenvalues --   -0.51776  -0.51389  -0.51312  -0.50785  -0.50736
 Alpha  occ. eigenvalues --   -0.50588  -0.50518  -0.49783  -0.49698  -0.49614
 Alpha  occ. eigenvalues --   -0.49401  -0.49195  -0.48860  -0.48640  -0.48613
 Alpha  occ. eigenvalues --   -0.48562  -0.48430  -0.47879  -0.47835  -0.47434
 Alpha  occ. eigenvalues --   -0.47281  -0.47203  -0.47033  -0.46934  -0.46811
 Alpha  occ. eigenvalues --   -0.46554  -0.46401  -0.46318  -0.46216  -0.45824
 Alpha  occ. eigenvalues --   -0.45560  -0.45422  -0.45361  -0.45259  -0.44899
 Alpha  occ. eigenvalues --   -0.44736  -0.44379  -0.44260  -0.43935  -0.43765
 Alpha  occ. eigenvalues --   -0.43504  -0.43407  -0.43254  -0.42923  -0.42762
 Alpha  occ. eigenvalues --   -0.42730  -0.42526  -0.42432  -0.42296  -0.42010
 Alpha  occ. eigenvalues --   -0.41901  -0.41819  -0.41671  -0.41557  -0.41448
 Alpha  occ. eigenvalues --   -0.41211  -0.40889  -0.40739  -0.40549  -0.40166
 Alpha  occ. eigenvalues --   -0.39966  -0.39765  -0.39369  -0.39091  -0.38680
 Alpha  occ. eigenvalues --   -0.38524  -0.37853  -0.37714  -0.37596  -0.37231
 Alpha  occ. eigenvalues --   -0.36835  -0.36781  -0.36700  -0.36542  -0.36460
 Alpha  occ. eigenvalues --   -0.35858  -0.35130  -0.34915  -0.34281  -0.34164
 Alpha  occ. eigenvalues --   -0.33992  -0.33703  -0.32190  -0.31389  -0.31255
 Alpha  occ. eigenvalues --   -0.30816  -0.29928  -0.29557  -0.28944  -0.24431
 Alpha  occ. eigenvalues --   -0.20953
 Alpha virt. eigenvalues --   -0.08110  -0.02327   0.00342   0.01407   0.02454
 Alpha virt. eigenvalues --    0.04391   0.04464   0.05231   0.05848   0.06770
 Alpha virt. eigenvalues --    0.07831   0.08422   0.08539   0.08922   0.08962

 Mulliken charges:
               1
     1  Mg   0.824883
     2  C   -0.119478
     3  C   -0.080737
     4  C   -0.093611
     5  C   -0.065170
     6  N   -0.284419
     7  C   -0.041742
     8  C   -0.049396
     9  C   -0.035221
    10  C    0.019194
    11  C    0.071775
    12  C    0.082719
    13  C    0.057942
    14  C    0.169516
    15  O   -0.229715
    16  O   -0.373469
    17  N   -0.343470
    18  C    0.156970
    19  C   -0.129799
    20  C   -0.010872
    21  C    0.164182
    22  C    0.122248
    23  C   -0.024119
    24  O   -0.221618
    25  C    0.075817
    26  N   -0.254334
    27  C    0.004459
    28  C   -0.039361
    29  C   -0.027020
    30  C    0.021499
    31  C    0.022640
    32  C    0.024769
    33  C   -0.012289
    34  N   -0.307721
    35  C    0.102338
    36  C   -0.207282
    37  C   -0.013753
    38  C    0.140160
    39  C    0.119297
    40  C   -0.007387
    41  O   -0.122449
    42  C    0.113298
    43  C    0.225705
    44  O   -0.266115
    45  O   -0.335025
    46  C    0.179147
    47  C    0.296548
    48  C   -0.131674
    49  C   -0.173778
    50  C    0.082155
    51  C    0.082181
    52  C    0.026671
    53  C    0.010107
    54  C   -0.096232
    55  C    0.056274
    56  C    0.045140
    57  C    0.004440
    58  C    0.062115
    59  C   -0.163168
    60  C    0.067736
    61  C    0.068659
    62  C    0.013267
    63  C    0.006126
    64  C   -0.127260
    65  C    0.034937
    66  C    0.056216
    67  H   -0.028920
    68  H   -0.010704
    69  H   -0.018647
    70  H    0.008890
    71  H    0.008284
    72  H    0.010786
    73  H    0.029235
    74  H    0.021511
    75  H    0.011450
    76  H    0.014410
    77  H    0.022709
    78  H    0.033771
    79  H    0.032043
    80  H   -0.004957
    81  H    0.037431
    82  H    0.041808
    83  H    0.027522
    84  H    0.054063
    85  H    0.024166
    86  H    0.018669
    87  H    0.011328
    88  H    0.009038
    89  H    0.018130
    90  H    0.017094
    91  H    0.010175
    92  H    0.013430
    93  H    0.010365
    94  H    0.026252
    95  H    0.020368
    96  H    0.014971
    97  H    0.035631
    98  H    0.049579
    99  H    0.047880
   100  H    0.037040
   101  H    0.054436
   102  H    0.028536
   103  H    0.037799
   104  H   -0.004614
   105  H    0.027557
   106  H    0.028714
   107  H    0.007194
   108  H   -0.014835
   109  H    0.015160
   110  H    0.009867
   111  H   -0.003454
   112  H   -0.010993
   113  H   -0.008276
   114  H   -0.002728
   115  H    0.002562
   116  H   -0.016736
   117  H    0.015431
   118  H    0.002119
   119  H   -0.007358
   120  H   -0.009246
   121  H   -0.004191
   122  H   -0.024913
   123  H   -0.013622
   124  H   -0.002861
   125  H    0.002855
   126  H    0.010034
   127  H    0.024171
   128  H   -0.016798
   129  H   -0.000170
   130  H   -0.013337
   131  H    0.001611
   132  H   -0.023541
   133  H   -0.014228
   134  H    0.000303
   135  H    0.009765
   136  H    0.012159
   137  H    0.005619
   138  H    0.021072
   139  H    0.001321
   140  H   -0.004630
 Sum of Mulliken charges =  -0.00000

 Dipole moment (field-independent basis, Debye):
    X=              2.3510    Y=             -3.6047    Z=              0.1508  Tot=              4.3062
 Quadrupole moment (field-independent basis, Debye-Ang):
   XX=           -395.4234   YY=           -425.5664   ZZ=           -393.6949
   XY=             54.7354   XZ=             -1.8565   YZ=            -28.8983

 Normal termination of Gaussian 16 at Wed Apr 27 10:44:17 2022.
