 Gaussian 16, Revision A.03,
 Gaussian 16:  ES64L-G16RevA.03 25-Dec-2016

 ---------------------------------
 #p PBE1PBE/Def2SVP td=(nstates=5)
 ---------------------------------

 ------------------------------------------------------
 step_1151_chromophore_17 TDDFT with PBE1PBE functional
 ------------------------------------------------------
 Symbolic Z-matrix:
 Charge =  0 Multiplicity = 1

                         Standard orientation:
 ---------------------------------------------------------------------
 Center     Atomic      Atomic             Coordinates (Angstroms)
 Number     Number       Type             X           Y           Z
 ---------------------------------------------------------------------
      1         12           0       -4.624711   -1.308892   -0.573278
      2          6           0       -4.346956    2.196752   -0.218588
      3          6           0       -2.083914   -1.315764   -2.727777
      4          6           0       -4.288282   -4.694388   -0.116800
      5          6           0       -6.963950   -1.217533    2.146784
      6          7           0       -3.448514    0.282856   -1.394962
      7          6           0       -3.505807    1.600508   -1.161671
      8          6           0       -2.436762    2.339232   -2.016354
      9          6           0       -2.026004    1.275065   -3.062609
     10          6           0       -2.561990   -0.000336   -2.382919
     11          6           0       -2.556613    1.547979   -4.456157
     12          6           0       -1.266798    2.947387   -1.182517
     13          6           0       -0.709789    4.316570   -1.704217
     14          6           0        0.054341    5.245526   -0.767138
     15          8           0       -0.289862    6.391721   -0.448227
     16          8           0        1.189453    4.581365   -0.271425
     17          7           0       -3.381998   -2.839581   -1.405615
     18          6           0       -2.451489   -2.584937   -2.307164
     19          6           0       -1.780401   -3.908867   -2.627281
     20          6           0       -2.526626   -4.898278   -1.937041
     21          6           0       -3.426684   -4.180797   -1.075416
     22          6           0       -0.733548   -4.126404   -3.542942
     23          6           0       -2.376810   -6.418716   -2.056428
     24          8           0       -1.562262   -6.827840   -2.886164
     25          6           0       -3.308480   -7.395603   -1.414919
     26          7           0       -5.336322   -2.737311    0.931087
     27          6           0       -5.116965   -4.034784    0.832042
     28          6           0       -5.862143   -4.790106    1.973934
     29          6           0       -6.870755   -3.775325    2.517732
     30          6           0       -6.313132   -2.478653    1.880155
     31          6           0       -6.635855   -6.163113    1.554164
     32          6           0       -6.961297   -3.742911    4.116197
     33          6           0       -8.366538   -4.158779    4.704740
     34          7           0       -5.588396    0.155844    0.693873
     35          6           0       -6.480561    0.027413    1.710584
     36          6           0       -6.890178    1.370827    2.023206
     37          6           0       -6.038492    2.271048    1.342571
     38          6           0       -5.230178    1.433507    0.555718
     39          6           0       -7.998780    1.793517    2.983917
     40          6           0       -5.704306    3.684313    1.082681
     41          8           0       -6.189821    4.669939    1.523171
     42          6           0       -4.571982    3.708138    0.090431
     43          6           0       -4.955094    4.631268   -1.048587
     44          8           0       -5.766890    4.419804   -1.984211
     45          8           0       -4.234163    5.796439   -1.019943
     46          6           0       -4.538131    6.596662   -2.290110
     47          6           0        2.028981    5.246133    0.756610
     48          6           0        3.413711    4.479718    0.901054
     49          6           0        4.657857    4.881996    1.217373
     50          6           0        5.080691    6.135302    1.919883
     51          6           0        5.805721    3.935458    0.973122
     52          6           0        5.949994    2.849583    2.008637
     53          6           0        5.711421    1.478687    1.435536
     54          6           0        6.906331    0.569174    1.716113
     55          6           0        6.971036    0.159842    3.183205
     56          6           0        6.762176   -0.749444    0.786656
     57          6           0        7.343967   -0.717272   -0.641344
     58          6           0        8.348913   -1.883962   -1.026693
     59          6           0        9.843817   -1.430754   -1.247769
     60          6           0       10.458864   -1.951544   -2.575281
     61          6           0       10.583971   -1.989354   -0.029129
     62          6           0       11.958792   -1.345895   -0.062533
     63          6           0       13.174828   -2.283075    0.074722
     64          6           0       14.227964   -1.860133    1.118723
     65          6           0       15.463864   -2.857124    0.947432
     66          6           0       13.727830   -1.832480    2.591098
     67          1           0       -1.264074   -1.250015   -3.446849
     68          1           0       -4.149981   -5.695973    0.296047
     69          1           0       -7.727311   -1.156262    2.925058
     70          1           0       -2.933461    3.140580   -2.563450
     71          1           0       -0.938173    1.212229   -3.054311
     72          1           0       -1.706042    2.038923   -4.930106
     73          1           0       -3.348457    2.278641   -4.623685
     74          1           0       -2.859467    0.665827   -5.019748
     75          1           0       -0.453010    2.222867   -1.217744
     76          1           0       -1.539621    3.026633   -0.130107
     77          1           0       -1.585927    4.915508   -1.953557
     78          1           0       -0.067487    4.182223   -2.573780
     79          1           0        0.051104   -4.804241   -3.207055
     80          1           0       -0.212904   -3.208944   -3.817168
     81          1           0       -1.111107   -4.573266   -4.462201
     82          1           0       -2.939333   -7.608918   -0.411743
     83          1           0       -3.065264   -8.283374   -1.998389
     84          1           0       -4.342361   -7.061511   -1.496526
     85          1           0       -5.240494   -5.173113    2.783470
     86          1           0       -7.857972   -3.914998    2.079267
     87          1           0       -7.695956   -6.207080    1.805315
     88          1           0       -6.262890   -7.029089    2.102704
     89          1           0       -6.606472   -6.343540    0.478941
     90          1           0       -6.780508   -2.699668    4.377506
     91          1           0       -6.219440   -4.382626    4.594325
     92          1           0       -9.071753   -4.570786    3.983660
     93          1           0       -8.887038   -3.234049    4.952417
     94          1           0       -8.210282   -4.785383    5.582685
     95          1           0       -7.849695    1.278841    3.933511
     96          1           0       -8.917384    1.413859    2.536576
     97          1           0       -8.098310    2.874538    3.078014
     98          1           0       -3.691967    3.992960    0.666052
     99          1           0       -4.352201    6.050033   -3.214152
    100          1           0       -3.808691    7.403189   -2.216782
    101          1           0       -5.523779    7.050358   -2.187559
    102          1           0        1.537053    5.112069    1.720065
    103          1           0        2.212187    6.305337    0.574558
    104          1           0        3.424110    3.507539    0.408643
    105          1           0        5.430725    6.739749    1.082266
    106          1           0        5.811872    5.892546    2.691280
    107          1           0        4.328519    6.782216    2.370780
    108          1           0        6.755101    4.460812    1.073030
    109          1           0        5.767401    3.510912   -0.030874
    110          1           0        5.294351    2.883537    2.879629
    111          1           0        6.960330    2.909621    2.412451
    112          1           0        5.440046    1.543486    0.381324
    113          1           0        4.806288    1.045548    1.860113
    114          1           0        7.749012    1.189160    1.408574
    115          1           0        6.352916    0.788265    3.824475
    116          1           0        7.911055    0.397841    3.679579
    117          1           0        7.018401   -0.893037    3.457601
    118          1           0        5.736572   -1.012742    0.530732
    119          1           0        7.250475   -1.574722    1.304039
    120          1           0        7.771373    0.278604   -0.758269
    121          1           0        6.543798   -0.799862   -1.377878
    122          1           0        8.112817   -2.510722   -1.886801
    123          1           0        8.192181   -2.606791   -0.226266
    124          1           0        9.782368   -0.343270   -1.299387
    125          1           0       11.547595   -1.986259   -2.527723
    126          1           0       10.284393   -1.105577   -3.240627
    127          1           0       10.020960   -2.928096   -2.776886
    128          1           0       10.701778   -3.059192   -0.201953
    129          1           0       10.207946   -1.963324    0.993643
    130          1           0       11.963018   -0.658512    0.782903
    131          1           0       12.171777   -0.759913   -0.956857
    132          1           0       13.705057   -2.107802   -0.862072
    133          1           0       12.992095   -3.323254   -0.193856
    134          1           0       14.389472   -0.819377    0.836198
    135          1           0       15.429108   -3.564123    0.119088
    136          1           0       15.785095   -3.388861    1.842846
    137          1           0       16.275385   -2.180870    0.680053
    138          1           0       13.575633   -0.829745    2.991088
    139          1           0       14.308193   -2.491141    3.236900
    140          1           0       12.794119   -2.393436    2.556190
 ---------------------------------------------------------------------

 SCF Done:  E(RPBE1PBE) =  -3005.29566990     A.U. after   15 cycles

 Excitation energies and oscillator strengths:

 Excited State   1:      Singlet-A      1.9081 eV  649.77 nm  f=0.3509  <S**2>=0.000
     245 -> 248       -0.18593
     246 -> 247        0.68883
 This state for optimization and/or second-order correction.
 Total Energy, E(TD-HF/TD-DFT) =  -3005.22554784
 Copying the excited state density for this state as the 1-particle RhoCI density.

 Excited State   2:      Singlet-A      2.3372 eV  530.48 nm  f=0.0472  <S**2>=0.000
     245 -> 247        0.60852
     246 -> 248        0.34936

 Excited State   3:      Singlet-A      3.0426 eV  407.50 nm  f=0.0015  <S**2>=0.000
     244 -> 247        0.69533

 Excited State   4:      Singlet-A      3.1684 eV  391.31 nm  f=0.0275  <S**2>=0.000
     240 -> 247       -0.19640
     242 -> 247        0.59835
     246 -> 248       -0.24272
     246 -> 249        0.10884

 Excited State   5:      Singlet-A      3.2438 eV  382.22 nm  f=0.0073  <S**2>=0.000
     240 -> 247       -0.23568
     241 -> 247        0.62598
     241 -> 249       -0.12211
     241 -> 250        0.11139

 The electronic state is 1-A.
 Alpha  occ. eigenvalues --  -46.93392 -19.25906 -19.25577 -19.20499 -19.19821
 Alpha  occ. eigenvalues --  -19.19087 -19.19033 -14.42263 -14.41905 -14.39324
 Alpha  occ. eigenvalues --  -14.38401 -10.37021 -10.36832 -10.32371 -10.31686
 Alpha  occ. eigenvalues --  -10.30153 -10.29506 -10.29153 -10.29064 -10.28856
 Alpha  occ. eigenvalues --  -10.28686 -10.28058 -10.27981 -10.26781 -10.26470
 Alpha  occ. eigenvalues --  -10.26240 -10.26127 -10.26090 -10.26004 -10.25902
 Alpha  occ. eigenvalues --  -10.25722 -10.25687 -10.25535 -10.25503 -10.25094
 Alpha  occ. eigenvalues --  -10.25058 -10.24987 -10.24754 -10.24621 -10.24395
 Alpha  occ. eigenvalues --  -10.24381 -10.24025 -10.23983 -10.23922 -10.23796
 Alpha  occ. eigenvalues --  -10.23676 -10.23370 -10.23313 -10.23251 -10.23188
 Alpha  occ. eigenvalues --  -10.22911 -10.22876 -10.22423 -10.22315 -10.22269
 Alpha  occ. eigenvalues --  -10.22177 -10.22151 -10.22044 -10.21991 -10.21952
 Alpha  occ. eigenvalues --  -10.21925 -10.21731 -10.21652 -10.21529 -10.21400
 Alpha  occ. eigenvalues --  -10.21287  -3.15311  -1.88147  -1.87672  -1.87531
 Alpha  occ. eigenvalues --   -1.10032  -1.09254  -1.06792  -1.04572  -1.01807
 Alpha  occ. eigenvalues --   -1.00249  -0.99769  -0.98993  -0.98603  -0.97944
 Alpha  occ. eigenvalues --   -0.87226  -0.85347  -0.84173  -0.83817  -0.83265
 Alpha  occ. eigenvalues --   -0.82668  -0.82529  -0.81663  -0.81348  -0.81207
 Alpha  occ. eigenvalues --   -0.80299  -0.79725  -0.78427  -0.78079  -0.77315
 Alpha  occ. eigenvalues --   -0.76600  -0.76299  -0.75574  -0.75024  -0.74658
 Alpha  occ. eigenvalues --   -0.74123  -0.72535  -0.72340  -0.71656  -0.70506
 Alpha  occ. eigenvalues --   -0.70091  -0.69599  -0.69406  -0.69114  -0.68387
 Alpha  occ. eigenvalues --   -0.67683  -0.66706  -0.66590  -0.65378  -0.63715
 Alpha  occ. eigenvalues --   -0.62844  -0.62702  -0.61734  -0.60640  -0.60356
 Alpha  occ. eigenvalues --   -0.59971  -0.59843  -0.59291  -0.58927  -0.58054
 Alpha  occ. eigenvalues --   -0.57716  -0.57470  -0.57030  -0.56512  -0.54598
 Alpha  occ. eigenvalues --   -0.54525  -0.54173  -0.53680  -0.53516  -0.52912
 Alpha  occ. eigenvalues --   -0.52253  -0.51111  -0.50853  -0.50368  -0.49820
 Alpha  occ. eigenvalues --   -0.49667  -0.48914  -0.48849  -0.48732  -0.48236
 Alpha  occ. eigenvalues --   -0.48149  -0.47980  -0.47685  -0.47623  -0.47465
 Alpha  occ. eigenvalues --   -0.47369  -0.47112  -0.46912  -0.46670  -0.46399
 Alpha  occ. eigenvalues --   -0.46219  -0.46036  -0.45930  -0.45449  -0.45296
 Alpha  occ. eigenvalues --   -0.45130  -0.44914  -0.44392  -0.44270  -0.44159
 Alpha  occ. eigenvalues --   -0.44033  -0.43720  -0.43550  -0.43285  -0.43214
 Alpha  occ. eigenvalues --   -0.43191  -0.43120  -0.42553  -0.42476  -0.41985
 Alpha  occ. eigenvalues --   -0.41878  -0.41832  -0.41644  -0.41576  -0.41438
 Alpha  occ. eigenvalues --   -0.41253  -0.41167  -0.40934  -0.40909  -0.40574
 Alpha  occ. eigenvalues --   -0.40354  -0.40177  -0.40072  -0.39902  -0.39556
 Alpha  occ. eigenvalues --   -0.39447  -0.39203  -0.39032  -0.38706  -0.38478
 Alpha  occ. eigenvalues --   -0.38255  -0.38164  -0.38082  -0.37689  -0.37545
 Alpha  occ. eigenvalues --   -0.37428  -0.37290  -0.37116  -0.37093  -0.36821
 Alpha  occ. eigenvalues --   -0.36737  -0.36616  -0.36495  -0.36455  -0.36298
 Alpha  occ. eigenvalues --   -0.35935  -0.35727  -0.35578  -0.35433  -0.34975
 Alpha  occ. eigenvalues --   -0.34904  -0.34559  -0.34281  -0.33887  -0.33530
 Alpha  occ. eigenvalues --   -0.33501  -0.32643  -0.32570  -0.32556  -0.31989
 Alpha  occ. eigenvalues --   -0.31855  -0.31810  -0.31536  -0.31477  -0.31461
 Alpha  occ. eigenvalues --   -0.30685  -0.30039  -0.29737  -0.29654  -0.29399
 Alpha  occ. eigenvalues --   -0.28879  -0.28700  -0.27149  -0.26930  -0.25959
 Alpha  occ. eigenvalues --   -0.25822  -0.25357  -0.24802  -0.24723  -0.21324
 Alpha  occ. eigenvalues --   -0.18604
 Alpha virt. eigenvalues --   -0.10702  -0.05722  -0.03822  -0.02053  -0.01378
 Alpha virt. eigenvalues --   -0.00236  -0.00212   0.00920   0.01345   0.02894
 Alpha virt. eigenvalues --    0.04094   0.04213   0.05177   0.05675   0.05773

 Mulliken charges:
               1
     1  Mg   0.960783
     2  C   -0.117280
     3  C   -0.073559
     4  C   -0.092507
     5  C   -0.059026
     6  N   -0.394104
     7  C    0.038905
     8  C   -0.115156
     9  C   -0.116374
    10  C    0.058334
    11  C    0.018612
    12  C    0.031905
    13  C   -0.024534
    14  C    0.237027
    15  O   -0.263461
    16  O   -0.401851
    17  N   -0.459936
    18  C    0.186075
    19  C   -0.166203
    20  C   -0.057454
    21  C    0.189263
    22  C    0.063211
    23  C    0.032271
    24  O   -0.255342
    25  C   -0.005497
    26  N   -0.360064
    27  C    0.053053
    28  C   -0.115554
    29  C   -0.106051
    30  C    0.063212
    31  C   -0.032631
    32  C   -0.033160
    33  C   -0.083155
    34  N   -0.434648
    35  C    0.126353
    36  C   -0.222469
    37  C   -0.062379
    38  C    0.186692
    39  C    0.064233
    40  C    0.096858
    41  O   -0.170724
    42  C    0.003704
    43  C    0.303601
    44  O   -0.297976
    45  O   -0.363850
    46  C    0.120022
    47  C    0.258782
    48  C   -0.139134
    49  C   -0.223451
    50  C    0.018983
    51  C    0.012060
    52  C   -0.029185
    53  C   -0.036968
    54  C   -0.194050
    55  C    0.001744
    56  C   -0.008033
    57  C   -0.055397
    58  C    0.015181
    59  C   -0.257620
    60  C    0.007223
    61  C    0.019644
    62  C   -0.051703
    63  C   -0.048980
    64  C   -0.217801
    65  C   -0.025921
    66  C   -0.005550
    67  H    0.003344
    68  H    0.023529
    69  H    0.012541
    70  H    0.050649
    71  H    0.043787
    72  H    0.038608
    73  H    0.054092
    74  H    0.048967
    75  H    0.044669
    76  H    0.047524
    77  H    0.059429
    78  H    0.065369
    79  H    0.058673
    80  H    0.022297
    81  H    0.064443
    82  H    0.068598
    83  H    0.055106
    84  H    0.080351
    85  H    0.060187
    86  H    0.055913
    87  H    0.037856
    88  H    0.036077
    89  H    0.045794
    90  H    0.050174
    91  H    0.041841
    92  H    0.040219
    93  H    0.037871
    94  H    0.053618
    95  H    0.048643
    96  H    0.044682
    97  H    0.063443
    98  H    0.087357
    99  H    0.069652
   100  H    0.058814
   101  H    0.077239
   102  H    0.056107
   103  H    0.063149
   104  H    0.026854
   105  H    0.056561
   106  H    0.055357
   107  H    0.034638
   108  H    0.018993
   109  H    0.046781
   110  H    0.041312
   111  H    0.028275
   112  H    0.021018
   113  H    0.024936
   114  H    0.034604
   115  H    0.029847
   116  H    0.011277
   117  H    0.041088
   118  H    0.034164
   119  H    0.024896
   120  H    0.022501
   121  H    0.028845
   122  H    0.007083
   123  H    0.018012
   124  H    0.034772
   125  H    0.031793
   126  H    0.038740
   127  H    0.050144
   128  H    0.017148
   129  H    0.030767
   130  H    0.021642
   131  H    0.033884
   132  H    0.011598
   133  H    0.016233
   134  H    0.036992
   135  H    0.035946
   136  H    0.038454
   137  H    0.033860
   138  H    0.047133
   139  H    0.028980
   140  H    0.025265
 Sum of Mulliken charges =  -0.00000

 Dipole moment (field-independent basis, Debye):
    X=              2.0898    Y=             -3.3298    Z=              0.3838  Tot=              3.9499
 Quadrupole moment (field-independent basis, Debye-Ang):
   XX=           -389.1659   YY=           -423.1787   ZZ=           -390.2271
   XY=             54.2771   XZ=             -3.9793   YZ=            -29.7992

 Normal termination of Gaussian 16 at Wed Apr 27 11:04:45 2022.
