 Gaussian 16, Revision A.03,
 Gaussian 16:  ES64L-G16RevA.03 25-Dec-2016

 --------------------------------
 #p wB97XD/Def2SVP td=(nstates=5)
 --------------------------------

 -----------------------------------------------------
 step_1151_chromophore_17 TDDFT with wB97XD functional
 -----------------------------------------------------
 Symbolic Z-matrix:
 Charge =  0 Multiplicity = 1

                         Standard orientation:
 ---------------------------------------------------------------------
 Center     Atomic      Atomic             Coordinates (Angstroms)
 Number     Number       Type             X           Y           Z
 ---------------------------------------------------------------------
      1         12           0       -4.624711   -1.308892   -0.573278
      2          6           0       -4.346956    2.196752   -0.218588
      3          6           0       -2.083914   -1.315764   -2.727777
      4          6           0       -4.288282   -4.694388   -0.116800
      5          6           0       -6.963950   -1.217533    2.146784
      6          7           0       -3.448514    0.282856   -1.394962
      7          6           0       -3.505807    1.600508   -1.161671
      8          6           0       -2.436762    2.339232   -2.016354
      9          6           0       -2.026004    1.275065   -3.062609
     10          6           0       -2.561990   -0.000336   -2.382919
     11          6           0       -2.556613    1.547979   -4.456157
     12          6           0       -1.266798    2.947387   -1.182517
     13          6           0       -0.709789    4.316570   -1.704217
     14          6           0        0.054341    5.245526   -0.767138
     15          8           0       -0.289862    6.391721   -0.448227
     16          8           0        1.189453    4.581365   -0.271425
     17          7           0       -3.381998   -2.839581   -1.405615
     18          6           0       -2.451489   -2.584937   -2.307164
     19          6           0       -1.780401   -3.908867   -2.627281
     20          6           0       -2.526626   -4.898278   -1.937041
     21          6           0       -3.426684   -4.180797   -1.075416
     22          6           0       -0.733548   -4.126404   -3.542942
     23          6           0       -2.376810   -6.418716   -2.056428
     24          8           0       -1.562262   -6.827840   -2.886164
     25          6           0       -3.308480   -7.395603   -1.414919
     26          7           0       -5.336322   -2.737311    0.931087
     27          6           0       -5.116965   -4.034784    0.832042
     28          6           0       -5.862143   -4.790106    1.973934
     29          6           0       -6.870755   -3.775325    2.517732
     30          6           0       -6.313132   -2.478653    1.880155
     31          6           0       -6.635855   -6.163113    1.554164
     32          6           0       -6.961297   -3.742911    4.116197
     33          6           0       -8.366538   -4.158779    4.704740
     34          7           0       -5.588396    0.155844    0.693873
     35          6           0       -6.480561    0.027413    1.710584
     36          6           0       -6.890178    1.370827    2.023206
     37          6           0       -6.038492    2.271048    1.342571
     38          6           0       -5.230178    1.433507    0.555718
     39          6           0       -7.998780    1.793517    2.983917
     40          6           0       -5.704306    3.684313    1.082681
     41          8           0       -6.189821    4.669939    1.523171
     42          6           0       -4.571982    3.708138    0.090431
     43          6           0       -4.955094    4.631268   -1.048587
     44          8           0       -5.766890    4.419804   -1.984211
     45          8           0       -4.234163    5.796439   -1.019943
     46          6           0       -4.538131    6.596662   -2.290110
     47          6           0        2.028981    5.246133    0.756610
     48          6           0        3.413711    4.479718    0.901054
     49          6           0        4.657857    4.881996    1.217373
     50          6           0        5.080691    6.135302    1.919883
     51          6           0        5.805721    3.935458    0.973122
     52          6           0        5.949994    2.849583    2.008637
     53          6           0        5.711421    1.478687    1.435536
     54          6           0        6.906331    0.569174    1.716113
     55          6           0        6.971036    0.159842    3.183205
     56          6           0        6.762176   -0.749444    0.786656
     57          6           0        7.343967   -0.717272   -0.641344
     58          6           0        8.348913   -1.883962   -1.026693
     59          6           0        9.843817   -1.430754   -1.247769
     60          6           0       10.458864   -1.951544   -2.575281
     61          6           0       10.583971   -1.989354   -0.029129
     62          6           0       11.958792   -1.345895   -0.062533
     63          6           0       13.174828   -2.283075    0.074722
     64          6           0       14.227964   -1.860133    1.118723
     65          6           0       15.463864   -2.857124    0.947432
     66          6           0       13.727830   -1.832480    2.591098
     67          1           0       -1.264074   -1.250015   -3.446849
     68          1           0       -4.149981   -5.695973    0.296047
     69          1           0       -7.727311   -1.156262    2.925058
     70          1           0       -2.933461    3.140580   -2.563450
     71          1           0       -0.938173    1.212229   -3.054311
     72          1           0       -1.706042    2.038923   -4.930106
     73          1           0       -3.348457    2.278641   -4.623685
     74          1           0       -2.859467    0.665827   -5.019748
     75          1           0       -0.453010    2.222867   -1.217744
     76          1           0       -1.539621    3.026633   -0.130107
     77          1           0       -1.585927    4.915508   -1.953557
     78          1           0       -0.067487    4.182223   -2.573780
     79          1           0        0.051104   -4.804241   -3.207055
     80          1           0       -0.212904   -3.208944   -3.817168
     81          1           0       -1.111107   -4.573266   -4.462201
     82          1           0       -2.939333   -7.608918   -0.411743
     83          1           0       -3.065264   -8.283374   -1.998389
     84          1           0       -4.342361   -7.061511   -1.496526
     85          1           0       -5.240494   -5.173113    2.783470
     86          1           0       -7.857972   -3.914998    2.079267
     87          1           0       -7.695956   -6.207080    1.805315
     88          1           0       -6.262890   -7.029089    2.102704
     89          1           0       -6.606472   -6.343540    0.478941
     90          1           0       -6.780508   -2.699668    4.377506
     91          1           0       -6.219440   -4.382626    4.594325
     92          1           0       -9.071753   -4.570786    3.983660
     93          1           0       -8.887038   -3.234049    4.952417
     94          1           0       -8.210282   -4.785383    5.582685
     95          1           0       -7.849695    1.278841    3.933511
     96          1           0       -8.917384    1.413859    2.536576
     97          1           0       -8.098310    2.874538    3.078014
     98          1           0       -3.691967    3.992960    0.666052
     99          1           0       -4.352201    6.050033   -3.214152
    100          1           0       -3.808691    7.403189   -2.216782
    101          1           0       -5.523779    7.050358   -2.187559
    102          1           0        1.537053    5.112069    1.720065
    103          1           0        2.212187    6.305337    0.574558
    104          1           0        3.424110    3.507539    0.408643
    105          1           0        5.430725    6.739749    1.082266
    106          1           0        5.811872    5.892546    2.691280
    107          1           0        4.328519    6.782216    2.370780
    108          1           0        6.755101    4.460812    1.073030
    109          1           0        5.767401    3.510912   -0.030874
    110          1           0        5.294351    2.883537    2.879629
    111          1           0        6.960330    2.909621    2.412451
    112          1           0        5.440046    1.543486    0.381324
    113          1           0        4.806288    1.045548    1.860113
    114          1           0        7.749012    1.189160    1.408574
    115          1           0        6.352916    0.788265    3.824475
    116          1           0        7.911055    0.397841    3.679579
    117          1           0        7.018401   -0.893037    3.457601
    118          1           0        5.736572   -1.012742    0.530732
    119          1           0        7.250475   -1.574722    1.304039
    120          1           0        7.771373    0.278604   -0.758269
    121          1           0        6.543798   -0.799862   -1.377878
    122          1           0        8.112817   -2.510722   -1.886801
    123          1           0        8.192181   -2.606791   -0.226266
    124          1           0        9.782368   -0.343270   -1.299387
    125          1           0       11.547595   -1.986259   -2.527723
    126          1           0       10.284393   -1.105577   -3.240627
    127          1           0       10.020960   -2.928096   -2.776886
    128          1           0       10.701778   -3.059192   -0.201953
    129          1           0       10.207946   -1.963324    0.993643
    130          1           0       11.963018   -0.658512    0.782903
    131          1           0       12.171777   -0.759913   -0.956857
    132          1           0       13.705057   -2.107802   -0.862072
    133          1           0       12.992095   -3.323254   -0.193856
    134          1           0       14.389472   -0.819377    0.836198
    135          1           0       15.429108   -3.564123    0.119088
    136          1           0       15.785095   -3.388861    1.842846
    137          1           0       16.275385   -2.180870    0.680053
    138          1           0       13.575633   -0.829745    2.991088
    139          1           0       14.308193   -2.491141    3.236900
    140          1           0       12.794119   -2.393436    2.556190
 ---------------------------------------------------------------------

 SCF Done:  E(RwB97XD) =  -3007.80320141     A.U. after   19 cycles

 Excitation energies and oscillator strengths:

 Excited State   1:      Singlet-A      1.7274 eV  717.76 nm  f=0.3567  <S**2>=0.000
     245 -> 248       -0.19465
     246 -> 247        0.68074
     245 <- 248       -0.11731
 This state for optimization and/or second-order correction.
 Total Energy, E(TD-HF/TD-DFT) =  -3007.73972180
 Copying the excited state density for this state as the 1-particle RhoCI density.

 Excited State   2:      Singlet-A      2.2704 eV  546.10 nm  f=0.0407  <S**2>=0.000
     245 -> 247        0.58985
     246 -> 248        0.37794

 Excited State   3:      Singlet-A      3.4554 eV  358.81 nm  f=0.4195  <S**2>=0.000
     242 -> 247       -0.24973
     244 -> 247       -0.36556
     245 -> 247       -0.25389
     246 -> 248        0.47599

 Excited State   4:      Singlet-A      3.4697 eV  357.33 nm  f=0.1088  <S**2>=0.000
     242 -> 247       -0.34847
     244 -> 247        0.54169
     245 -> 247       -0.12371
     246 -> 248        0.18740

 Excited State   5:      Singlet-A      3.6566 eV  339.07 nm  f=0.2290  <S**2>=0.000
     240 -> 247        0.38591
     240 -> 248       -0.10075
     240 -> 249        0.34797
     240 -> 250       -0.16730
     242 -> 247       -0.27814
     244 -> 247       -0.10653
     245 -> 247        0.17232
     246 -> 248       -0.20750

 The electronic state is 1-A.
 Alpha  occ. eigenvalues --  -46.96364 -19.30390 -19.30112 -19.25144 -19.24419
 Alpha  occ. eigenvalues --  -19.24088 -19.23673 -14.47365 -14.46999 -14.44421
 Alpha  occ. eigenvalues --  -14.43191 -10.43780 -10.43580 -10.39365 -10.38361
 Alpha  occ. eigenvalues --  -10.36642 -10.36046 -10.35586 -10.35317 -10.35182
 Alpha  occ. eigenvalues --  -10.34803 -10.34789 -10.34695 -10.32934 -10.32791
 Alpha  occ. eigenvalues --  -10.32727 -10.32509 -10.32456 -10.32234 -10.32145
 Alpha  occ. eigenvalues --  -10.31936 -10.31836 -10.31833 -10.31769 -10.31479
 Alpha  occ. eigenvalues --  -10.31359 -10.31167 -10.31040 -10.30993 -10.30976
 Alpha  occ. eigenvalues --  -10.30894 -10.30412 -10.30385 -10.30315 -10.30253
 Alpha  occ. eigenvalues --  -10.30215 -10.29762 -10.29706 -10.29639 -10.29467
 Alpha  occ. eigenvalues --  -10.29282 -10.29117 -10.29102 -10.28681 -10.28643
 Alpha  occ. eigenvalues --  -10.28615 -10.28520 -10.28395 -10.28389 -10.28348
 Alpha  occ. eigenvalues --  -10.28099 -10.28037 -10.28014 -10.27966 -10.27762
 Alpha  occ. eigenvalues --  -10.27668  -3.22166  -1.95747  -1.95270  -1.95128
 Alpha  occ. eigenvalues --   -1.17355  -1.16623  -1.14074  -1.12246  -1.09130
 Alpha  occ. eigenvalues --   -1.07549  -1.07165  -1.06422  -1.05968  -1.05246
 Alpha  occ. eigenvalues --   -0.94707  -0.93011  -0.91799  -0.91493  -0.90955
 Alpha  occ. eigenvalues --   -0.90338  -0.90155  -0.89555  -0.88999  -0.88877
 Alpha  occ. eigenvalues --   -0.87864  -0.87214  -0.86070  -0.85727  -0.84975
 Alpha  occ. eigenvalues --   -0.84386  -0.83960  -0.83215  -0.82604  -0.82291
 Alpha  occ. eigenvalues --   -0.81788  -0.80257  -0.79953  -0.79282  -0.78057
 Alpha  occ. eigenvalues --   -0.77754  -0.77309  -0.77011  -0.76815  -0.76048
 Alpha  occ. eigenvalues --   -0.75294  -0.74245  -0.74076  -0.72972  -0.71264
 Alpha  occ. eigenvalues --   -0.70482  -0.70162  -0.69454  -0.68282  -0.67914
 Alpha  occ. eigenvalues --   -0.67465  -0.67213  -0.66727  -0.66557  -0.65740
 Alpha  occ. eigenvalues --   -0.65225  -0.65101  -0.64659  -0.63850  -0.62167
 Alpha  occ. eigenvalues --   -0.62022  -0.61507  -0.61170  -0.60864  -0.60346
 Alpha  occ. eigenvalues --   -0.59632  -0.58623  -0.58322  -0.57738  -0.57175
 Alpha  occ. eigenvalues --   -0.57054  -0.56305  -0.56214  -0.56193  -0.55660
 Alpha  occ. eigenvalues --   -0.55484  -0.55411  -0.55126  -0.54960  -0.54859
 Alpha  occ. eigenvalues --   -0.54792  -0.54530  -0.54323  -0.54100  -0.53730
 Alpha  occ. eigenvalues --   -0.53634  -0.53287  -0.53254  -0.52702  -0.52622
 Alpha  occ. eigenvalues --   -0.52518  -0.52466  -0.51694  -0.51629  -0.51553
 Alpha  occ. eigenvalues --   -0.51330  -0.51054  -0.50786  -0.50540  -0.50504
 Alpha  occ. eigenvalues --   -0.50470  -0.50341  -0.49768  -0.49724  -0.49421
 Alpha  occ. eigenvalues --   -0.49232  -0.49132  -0.48918  -0.48838  -0.48696
 Alpha  occ. eigenvalues --   -0.48481  -0.48314  -0.48175  -0.48142  -0.47778
 Alpha  occ. eigenvalues --   -0.47471  -0.47353  -0.47234  -0.47124  -0.46761
 Alpha  occ. eigenvalues --   -0.46626  -0.46311  -0.46206  -0.45856  -0.45714
 Alpha  occ. eigenvalues --   -0.45370  -0.45364  -0.45216  -0.44815  -0.44671
 Alpha  occ. eigenvalues --   -0.44596  -0.44429  -0.44269  -0.44241  -0.44020
 Alpha  occ. eigenvalues --   -0.43801  -0.43712  -0.43540  -0.43489  -0.43340
 Alpha  occ. eigenvalues --   -0.43057  -0.42745  -0.42611  -0.42447  -0.42006
 Alpha  occ. eigenvalues --   -0.41861  -0.41619  -0.41247  -0.40943  -0.40536
 Alpha  occ. eigenvalues --   -0.40435  -0.39732  -0.39681  -0.39568  -0.39075
 Alpha  occ. eigenvalues --   -0.38822  -0.38696  -0.38572  -0.38522  -0.38480
 Alpha  occ. eigenvalues --   -0.37720  -0.36977  -0.36755  -0.36382  -0.36169
 Alpha  occ. eigenvalues --   -0.35928  -0.35719  -0.34020  -0.33498  -0.33337
 Alpha  occ. eigenvalues --   -0.32742  -0.32163  -0.31576  -0.31060  -0.26369
 Alpha  occ. eigenvalues --   -0.22772
 Alpha virt. eigenvalues --   -0.06433  -0.00422   0.02449   0.04506   0.04664
 Alpha virt. eigenvalues --    0.06619   0.06665   0.07642   0.08080   0.09408
 Alpha virt. eigenvalues --    0.10559   0.11042   0.11880   0.12429   0.12536

 Mulliken charges:
               1
     1  Mg   0.955567
     2  C   -0.124773
     3  C   -0.092194
     4  C   -0.106850
     5  C   -0.072765
     6  N   -0.357651
     7  C    0.001772
     8  C   -0.086471
     9  C   -0.087243
    10  C    0.043240
    11  C    0.024879
    12  C    0.041666
    13  C   -0.001578
    14  C    0.226842
    15  O   -0.260915
    16  O   -0.401863
    17  N   -0.426656
    18  C    0.178585
    19  C   -0.149258
    20  C   -0.052545
    21  C    0.189675
    22  C    0.070554
    23  C    0.025307
    24  O   -0.250221
    25  C    0.008457
    26  N   -0.327114
    27  C    0.038693
    28  C   -0.092561
    29  C   -0.078466
    30  C    0.048400
    31  C   -0.020530
    32  C   -0.019194
    33  C   -0.066577
    34  N   -0.394283
    35  C    0.113306
    36  C   -0.219398
    37  C   -0.058836
    38  C    0.168560
    39  C    0.073575
    40  C    0.076535
    41  O   -0.162054
    42  C    0.043137
    43  C    0.282953
    44  O   -0.293506
    45  O   -0.363777
    46  C    0.136916
    47  C    0.271216
    48  C   -0.152510
    49  C   -0.203771
    50  C    0.029830
    51  C    0.034599
    52  C   -0.018666
    53  C   -0.023560
    54  C   -0.155427
    55  C    0.007970
    56  C    0.008858
    57  C   -0.040249
    58  C    0.028532
    59  C   -0.220564
    60  C    0.018405
    61  C    0.031744
    62  C   -0.033624
    63  C   -0.033364
    64  C   -0.188050
    65  C   -0.013538
    66  C    0.005224
    67  H   -0.003249
    68  H    0.011188
    69  H    0.007018
    70  H    0.031227
    71  H    0.033930
    72  H    0.032945
    73  H    0.050647
    74  H    0.043649
    75  H    0.036492
    76  H    0.038663
    77  H    0.048463
    78  H    0.059583
    79  H    0.056425
    80  H    0.018142
    81  H    0.061976
    82  H    0.065675
    83  H    0.053960
    84  H    0.074778
    85  H    0.050318
    86  H    0.043084
    87  H    0.032177
    88  H    0.031039
    89  H    0.038016
    90  H    0.040518
    91  H    0.034335
    92  H    0.033203
    93  H    0.031417
    94  H    0.048621
    95  H    0.041981
    96  H    0.037432
    97  H    0.060249
    98  H    0.080403
    99  H    0.064693
   100  H    0.055782
   101  H    0.073190
   102  H    0.051663
   103  H    0.058954
   104  H    0.021851
   105  H    0.050155
   106  H    0.049875
   107  H    0.030504
   108  H    0.011770
   109  H    0.038504
   110  H    0.033046
   111  H    0.019133
   112  H    0.008933
   113  H    0.016014
   114  H    0.020878
   115  H    0.023601
   116  H    0.005355
   117  H    0.036710
   118  H    0.026350
   119  H    0.012141
   120  H    0.011063
   121  H    0.021738
   122  H   -0.000843
   123  H    0.006883
   124  H    0.021052
   125  H    0.023538
   126  H    0.033612
   127  H    0.044222
   128  H    0.005006
   129  H    0.023444
   130  H    0.011693
   131  H    0.023619
   132  H   -0.000413
   133  H    0.007803
   134  H    0.026641
   135  H    0.030371
   136  H    0.032943
   137  H    0.027344
   138  H    0.043108
   139  H    0.023052
   140  H    0.016323
 Sum of Mulliken charges =  -0.00000

 Dipole moment (field-independent basis, Debye):
    X=              2.4120    Y=             -3.7985    Z=              0.0379  Tot=              4.4998
 Quadrupole moment (field-independent basis, Debye-Ang):
   XX=           -391.7194   YY=           -420.9718   ZZ=           -389.7548
   XY=             55.6345   XZ=             -2.2235   YZ=            -28.9521

 Normal termination of Gaussian 16 at Wed Apr 27 11:34:07 2022.
