 Gaussian 16, Revision A.03,
 Gaussian 16:  ES64L-G16RevA.03 25-Dec-2016

 --------------------
 #p ZINDO=(nstates=5)
 --------------------

 ------------------------------
 step_1151_chromophore_17 ZINDO
 ------------------------------
 Symbolic Z-matrix:
 Charge =  0 Multiplicity = 1

                         Standard orientation:
 ---------------------------------------------------------------------
 Center     Atomic      Atomic             Coordinates (Angstroms)
 Number     Number       Type             X           Y           Z
 ---------------------------------------------------------------------
      1         12           0       -4.624711   -1.308892   -0.573278
      2          6           0       -4.346956    2.196752   -0.218588
      3          6           0       -2.083914   -1.315764   -2.727777
      4          6           0       -4.288282   -4.694388   -0.116800
      5          6           0       -6.963950   -1.217533    2.146784
      6          7           0       -3.448514    0.282856   -1.394962
      7          6           0       -3.505807    1.600508   -1.161671
      8          6           0       -2.436762    2.339232   -2.016354
      9          6           0       -2.026004    1.275065   -3.062609
     10          6           0       -2.561990   -0.000336   -2.382919
     11          6           0       -2.556613    1.547979   -4.456157
     12          6           0       -1.266798    2.947387   -1.182517
     13          6           0       -0.709789    4.316570   -1.704217
     14          6           0        0.054341    5.245526   -0.767138
     15          8           0       -0.289862    6.391721   -0.448227
     16          8           0        1.189453    4.581365   -0.271425
     17          7           0       -3.381998   -2.839581   -1.405615
     18          6           0       -2.451489   -2.584937   -2.307164
     19          6           0       -1.780401   -3.908867   -2.627281
     20          6           0       -2.526626   -4.898278   -1.937041
     21          6           0       -3.426684   -4.180797   -1.075416
     22          6           0       -0.733548   -4.126404   -3.542942
     23          6           0       -2.376810   -6.418716   -2.056428
     24          8           0       -1.562262   -6.827840   -2.886164
     25          6           0       -3.308480   -7.395603   -1.414919
     26          7           0       -5.336322   -2.737311    0.931087
     27          6           0       -5.116965   -4.034784    0.832042
     28          6           0       -5.862143   -4.790106    1.973934
     29          6           0       -6.870755   -3.775325    2.517732
     30          6           0       -6.313132   -2.478653    1.880155
     31          6           0       -6.635855   -6.163113    1.554164
     32          6           0       -6.961297   -3.742911    4.116197
     33          6           0       -8.366538   -4.158779    4.704740
     34          7           0       -5.588396    0.155844    0.693873
     35          6           0       -6.480561    0.027413    1.710584
     36          6           0       -6.890178    1.370827    2.023206
     37          6           0       -6.038492    2.271048    1.342571
     38          6           0       -5.230178    1.433507    0.555718
     39          6           0       -7.998780    1.793517    2.983917
     40          6           0       -5.704306    3.684313    1.082681
     41          8           0       -6.189821    4.669939    1.523171
     42          6           0       -4.571982    3.708138    0.090431
     43          6           0       -4.955094    4.631268   -1.048587
     44          8           0       -5.766890    4.419804   -1.984211
     45          8           0       -4.234163    5.796439   -1.019943
     46          6           0       -4.538131    6.596662   -2.290110
     47          6           0        2.028981    5.246133    0.756610
     48          6           0        3.413711    4.479718    0.901054
     49          6           0        4.657857    4.881996    1.217373
     50          6           0        5.080691    6.135302    1.919883
     51          6           0        5.805721    3.935458    0.973122
     52          6           0        5.949994    2.849583    2.008637
     53          6           0        5.711421    1.478687    1.435536
     54          6           0        6.906331    0.569174    1.716113
     55          6           0        6.971036    0.159842    3.183205
     56          6           0        6.762176   -0.749444    0.786656
     57          6           0        7.343967   -0.717272   -0.641344
     58          6           0        8.348913   -1.883962   -1.026693
     59          6           0        9.843817   -1.430754   -1.247769
     60          6           0       10.458864   -1.951544   -2.575281
     61          6           0       10.583971   -1.989354   -0.029129
     62          6           0       11.958792   -1.345895   -0.062533
     63          6           0       13.174828   -2.283075    0.074722
     64          6           0       14.227964   -1.860133    1.118723
     65          6           0       15.463864   -2.857124    0.947432
     66          6           0       13.727830   -1.832480    2.591098
     67          1           0       -1.264074   -1.250015   -3.446849
     68          1           0       -4.149981   -5.695973    0.296047
     69          1           0       -7.727311   -1.156262    2.925058
     70          1           0       -2.933461    3.140580   -2.563450
     71          1           0       -0.938173    1.212229   -3.054311
     72          1           0       -1.706042    2.038923   -4.930106
     73          1           0       -3.348457    2.278641   -4.623685
     74          1           0       -2.859467    0.665827   -5.019748
     75          1           0       -0.453010    2.222867   -1.217744
     76          1           0       -1.539621    3.026633   -0.130107
     77          1           0       -1.585927    4.915508   -1.953557
     78          1           0       -0.067487    4.182223   -2.573780
     79          1           0        0.051104   -4.804241   -3.207055
     80          1           0       -0.212904   -3.208944   -3.817168
     81          1           0       -1.111107   -4.573266   -4.462201
     82          1           0       -2.939333   -7.608918   -0.411743
     83          1           0       -3.065264   -8.283374   -1.998389
     84          1           0       -4.342361   -7.061511   -1.496526
     85          1           0       -5.240494   -5.173113    2.783470
     86          1           0       -7.857972   -3.914998    2.079267
     87          1           0       -7.695956   -6.207080    1.805315
     88          1           0       -6.262890   -7.029089    2.102704
     89          1           0       -6.606472   -6.343540    0.478941
     90          1           0       -6.780508   -2.699668    4.377506
     91          1           0       -6.219440   -4.382626    4.594325
     92          1           0       -9.071753   -4.570786    3.983660
     93          1           0       -8.887038   -3.234049    4.952417
     94          1           0       -8.210282   -4.785383    5.582685
     95          1           0       -7.849695    1.278841    3.933511
     96          1           0       -8.917384    1.413859    2.536576
     97          1           0       -8.098310    2.874538    3.078014
     98          1           0       -3.691967    3.992960    0.666052
     99          1           0       -4.352201    6.050033   -3.214152
    100          1           0       -3.808691    7.403189   -2.216782
    101          1           0       -5.523779    7.050358   -2.187559
    102          1           0        1.537053    5.112069    1.720065
    103          1           0        2.212187    6.305337    0.574558
    104          1           0        3.424110    3.507539    0.408643
    105          1           0        5.430725    6.739749    1.082266
    106          1           0        5.811872    5.892546    2.691280
    107          1           0        4.328519    6.782216    2.370780
    108          1           0        6.755101    4.460812    1.073030
    109          1           0        5.767401    3.510912   -0.030874
    110          1           0        5.294351    2.883537    2.879629
    111          1           0        6.960330    2.909621    2.412451
    112          1           0        5.440046    1.543486    0.381324
    113          1           0        4.806288    1.045548    1.860113
    114          1           0        7.749012    1.189160    1.408574
    115          1           0        6.352916    0.788265    3.824475
    116          1           0        7.911055    0.397841    3.679579
    117          1           0        7.018401   -0.893037    3.457601
    118          1           0        5.736572   -1.012742    0.530732
    119          1           0        7.250475   -1.574722    1.304039
    120          1           0        7.771373    0.278604   -0.758269
    121          1           0        6.543798   -0.799862   -1.377878
    122          1           0        8.112817   -2.510722   -1.886801
    123          1           0        8.192181   -2.606791   -0.226266
    124          1           0        9.782368   -0.343270   -1.299387
    125          1           0       11.547595   -1.986259   -2.527723
    126          1           0       10.284393   -1.105577   -3.240627
    127          1           0       10.020960   -2.928096   -2.776886
    128          1           0       10.701778   -3.059192   -0.201953
    129          1           0       10.207946   -1.963324    0.993643
    130          1           0       11.963018   -0.658512    0.782903
    131          1           0       12.171777   -0.759913   -0.956857
    132          1           0       13.705057   -2.107802   -0.862072
    133          1           0       12.992095   -3.323254   -0.193856
    134          1           0       14.389472   -0.819377    0.836198
    135          1           0       15.429108   -3.564123    0.119088
    136          1           0       15.785095   -3.388861    1.842846
    137          1           0       16.275385   -2.180870    0.680053
    138          1           0       13.575633   -0.829745    2.991088
    139          1           0       14.308193   -2.491141    3.236900
    140          1           0       12.794119   -2.393436    2.556190
 ---------------------------------------------------------------------

 SCF Done:  E(RZINDO/S) =  -474.179166095     A.U. after   19 cycles

 Excitation energies and oscillator strengths:

 Excited State   1:      Singlet-A      1.3460 eV  921.15 nm  f=0.5411  <S**2>=0.000
     175 ->178        -0.18315
     176 ->177         0.66654
 This state for optimization and/or second-order correction.
 Total Energy, E(CIS/TDA) =  -474.129702361
 Copying the excited state density for this state as the 1-particle RhoCI density.

 Excited State   2:      Singlet-A      1.9345 eV  640.91 nm  f=0.0016  <S**2>=0.000
     175 ->177         0.47239
     176 ->178         0.50249

 Excited State   3:      Singlet-A      2.8766 eV  431.00 nm  f=0.0166  <S**2>=0.000
     176 ->179         0.11403
     176 ->180         0.68610

 Excited State   4:      Singlet-A      2.9292 eV  423.26 nm  f=0.0034  <S**2>=0.000
     167 ->177        -0.10310
     167 ->179         0.20071
     168 ->177        -0.24896
     168 ->179         0.42847
     168 ->181        -0.20587
     168 ->183         0.12694
     168 ->185        -0.18723
     169 ->179        -0.11379

 Excited State   5:      Singlet-A      3.0653 eV  404.47 nm  f=1.2751  <S**2>=0.000
     171 ->177        -0.13017
     175 ->177         0.45916
     176 ->178        -0.45550

 The electronic state is 1-A.
 Alpha  occ. eigenvalues --   -1.84813  -1.82236  -1.80199  -1.72451  -1.71061
 Alpha  occ. eigenvalues --   -1.68308  -1.66072  -1.63646  -1.60941  -1.60648
 Alpha  occ. eigenvalues --   -1.54798  -1.51081  -1.47937  -1.47508  -1.46278
 Alpha  occ. eigenvalues --   -1.44867  -1.40856  -1.40059  -1.39693  -1.37833
 Alpha  occ. eigenvalues --   -1.35611  -1.33949  -1.31790  -1.31008  -1.28423
 Alpha  occ. eigenvalues --   -1.26939  -1.26714  -1.23086  -1.21285  -1.18423
 Alpha  occ. eigenvalues --   -1.17213  -1.17041  -1.14919  -1.14545  -1.12945
 Alpha  occ. eigenvalues --   -1.12508  -1.11336  -1.10983  -1.04901  -1.03689
 Alpha  occ. eigenvalues --   -1.03089  -1.00994  -0.99682  -0.97768  -0.97630
 Alpha  occ. eigenvalues --   -0.95911  -0.94669  -0.94488  -0.93190  -0.91198
 Alpha  occ. eigenvalues --   -0.90555  -0.90378  -0.89479  -0.89121  -0.86879
 Alpha  occ. eigenvalues --   -0.86502  -0.84585  -0.83266  -0.82188  -0.81416
 Alpha  occ. eigenvalues --   -0.80063  -0.78299  -0.77928  -0.76675  -0.76187
 Alpha  occ. eigenvalues --   -0.75622  -0.75331  -0.74626  -0.73963  -0.73580
 Alpha  occ. eigenvalues --   -0.72860  -0.72273  -0.71922  -0.71272  -0.70707
 Alpha  occ. eigenvalues --   -0.70239  -0.69456  -0.69181  -0.68355  -0.67876
 Alpha  occ. eigenvalues --   -0.67601  -0.67257  -0.66849  -0.66095  -0.65697
 Alpha  occ. eigenvalues --   -0.65415  -0.65074  -0.64793  -0.64226  -0.63716
 Alpha  occ. eigenvalues --   -0.63467  -0.63068  -0.62617  -0.62274  -0.62070
 Alpha  occ. eigenvalues --   -0.61832  -0.61688  -0.61280  -0.61122  -0.60325
 Alpha  occ. eigenvalues --   -0.60046  -0.59708  -0.58752  -0.58337  -0.58041
 Alpha  occ. eigenvalues --   -0.57695  -0.57661  -0.56543  -0.56420  -0.56277
 Alpha  occ. eigenvalues --   -0.56107  -0.55792  -0.54852  -0.54763  -0.54649
 Alpha  occ. eigenvalues --   -0.54075  -0.53927  -0.53195  -0.53077  -0.53005
 Alpha  occ. eigenvalues --   -0.52535  -0.52333  -0.52102  -0.51859  -0.51447
 Alpha  occ. eigenvalues --   -0.51181  -0.51035  -0.50879  -0.50519  -0.50422
 Alpha  occ. eigenvalues --   -0.50288  -0.49891  -0.49700  -0.49499  -0.49208
 Alpha  occ. eigenvalues --   -0.48910  -0.48775  -0.48675  -0.48476  -0.48112
 Alpha  occ. eigenvalues --   -0.47968  -0.47293  -0.47157  -0.47023  -0.46607
 Alpha  occ. eigenvalues --   -0.46124  -0.45995  -0.45907  -0.45733  -0.45620
 Alpha  occ. eigenvalues --   -0.45127  -0.44949  -0.44919  -0.44259  -0.43884
 Alpha  occ. eigenvalues --   -0.43786  -0.42792  -0.42508  -0.42440  -0.41910
 Alpha  occ. eigenvalues --   -0.41361  -0.40781  -0.39624  -0.39485  -0.39301
 Alpha  occ. eigenvalues --   -0.38088  -0.36948  -0.36047  -0.35512  -0.34120
 Alpha  occ. eigenvalues --   -0.33513  -0.32774  -0.32051  -0.31292  -0.27142
 Alpha  occ. eigenvalues --   -0.21703
 Alpha virt. eigenvalues --   -0.07875  -0.02682  -0.00645   0.00489   0.01180
 Alpha virt. eigenvalues --    0.01318   0.02440   0.02654   0.04315   0.04556
 Alpha virt. eigenvalues --    0.06101   0.06754   0.06993   0.07571   0.07861

 Mulliken charges:
               1
     1  Mg   0.432195
     2  C   -0.039370
     3  C   -0.092723
     4  C   -0.107390
     5  C   -0.060670
     6  N   -0.259978
     7  C    0.093424
     8  C   -0.003053
     9  C    0.015183
    10  C    0.153744
    11  C   -0.045414
    12  C   -0.017397
    13  C    0.004038
    14  C    0.465668
    15  O   -0.505038
    16  O   -0.282130
    17  N   -0.328439
    18  C    0.143754
    19  C    0.072565
    20  C   -0.052853
    21  C    0.145123
    22  C   -0.023136
    23  C    0.323052
    24  O   -0.526191
    25  C   -0.030504
    26  N   -0.252712
    27  C    0.162577
    28  C   -0.000075
    29  C   -0.003258
    30  C    0.071487
    31  C   -0.068859
    32  C   -0.038238
    33  C   -0.065186
    34  N   -0.316991
    35  C    0.073694
    36  C    0.013475
    37  C   -0.079256
    38  C    0.099720
    39  C   -0.046927
    40  C    0.349764
    41  O   -0.507893
    42  C    0.061908
    43  C    0.492864
    44  O   -0.536735
    45  O   -0.261721
    46  C    0.077827
    47  C    0.107096
    48  C   -0.114838
    49  C    0.014811
    50  C   -0.042656
    51  C   -0.015056
    52  C   -0.026138
    53  C   -0.030557
    54  C   -0.001847
    55  C   -0.065808
    56  C   -0.048144
    57  C   -0.040214
    58  C   -0.052889
    59  C   -0.009561
    60  C   -0.060956
    61  C   -0.029856
    62  C   -0.041846
    63  C   -0.052517
    64  C   -0.003564
    65  C   -0.063327
    66  C   -0.063467
    67  H    0.019439
    68  H    0.022401
    69  H    0.032494
    70  H    0.030188
    71  H    0.028967
    72  H    0.011389
    73  H    0.032778
    74  H    0.024662
    75  H    0.020318
    76  H    0.030470
    77  H    0.036362
    78  H    0.044925
    79  H    0.042292
    80  H    0.012055
    81  H    0.046825
    82  H    0.045618
    83  H    0.040123
    84  H    0.046791
    85  H    0.040136
    86  H    0.038199
    87  H    0.019557
    88  H    0.016616
    89  H    0.020579
    90  H    0.026319
    91  H    0.024319
    92  H    0.023976
    93  H    0.016025
    94  H    0.026158
    95  H    0.025616
    96  H    0.023588
    97  H    0.037041
    98  H    0.060700
    99  H    0.051823
   100  H    0.021057
   101  H    0.055892
   102  H    0.045558
   103  H    0.058017
   104  H    0.020340
   105  H    0.032601
   106  H    0.031130
   107  H    0.020301
   108  H    0.011552
   109  H    0.027690
   110  H    0.020864
   111  H    0.013834
   112  H    0.015201
   113  H    0.010463
   114  H    0.029967
   115  H    0.022838
   116  H    0.003458
   117  H    0.031868
   118  H    0.024009
   119  H    0.018171
   120  H    0.017686
   121  H    0.012385
   122  H    0.015981
   123  H    0.015467
   124  H    0.024764
   125  H    0.020892
   126  H    0.021022
   127  H    0.034936
   128  H    0.011116
   129  H    0.027193
   130  H    0.008553
   131  H    0.021973
   132  H   -0.007421
   133  H    0.035121
   134  H    0.028342
   135  H    0.024652
   136  H    0.024719
   137  H    0.008651
   138  H    0.027989
   139  H    0.020780
   140  H    0.013040
 Sum of Mulliken charges =  -0.00000

 Dipole moment (field-independent basis, Debye):
    X=              4.9140    Y=             -6.4260    Z=             -0.4679  Tot=              8.1031
 N-N= 4.326575972227D+03 E-N= 0.000000000000D+00  KE=-9.327010754973D+03
 Leave Link  601 at Wed Apr 27 11:47:24 2022, MaxMem=  6710886400 cpu:               1.0 elap:               0.1
 (Enter /sw/apps/gaussian-16.0/g16/l9999.exe)
 1\1\GINC-BP1-COMPUTE198\SP\RZINDO CIS\STO-3G\C55H74Mg1N4O6\OF15641\27-
 Apr-2022\0\\#p ZINDO=(nstates=5)\\step_1151_chromophore_17 ZINDO\\0,1\
 Mg,0,29.367,59.217,41.181\C,0,26.46,57.755,39.801\C,0,31.222,56.73,39.
 968\C,0,32.179,61.13,41.646\C,0,27.344,62.08,41.949\N,0,28.842,57.447,
 40.093\C,0,27.644,57.025,39.668\C,0,27.791,55.666,38.926\C,0,29.206,55
 .192,39.337\C,0,29.801,56.517,39.853\C,0,29.205,54.044,40.327\C,0,27.5
 31,55.75,37.39\C,0,26.815,54.506,36.76\C,0,26.073,54.633,35.434\O,0,24

 Normal termination of Gaussian 16 at Wed Apr 27 11:47:24 2022.
