 Gaussian 16, Revision A.03,
 Gaussian 16:  ES64L-G16RevA.03 25-Dec-2016

 ------------------------------
 #p blyp/Def2SVP td=(nstates=5)
 ------------------------------

 ---------------------------------------------------
 step_1801_chromophore_15 TDDFT with blyp functional
 ---------------------------------------------------
 Symbolic Z-matrix:
 Charge =  0 Multiplicity = 1

                         Standard orientation:
 ---------------------------------------------------------------------
 Center     Atomic      Atomic             Coordinates (Angstroms)
 Number     Number       Type             X           Y           Z
 ---------------------------------------------------------------------
      1         12           0       -4.976790    0.894103    0.056359
      2          6           0       -4.110115   -2.434494    0.573339
      3          6           0       -1.476394    1.584035   -0.268757
      4          6           0       -5.635843    4.172760   -0.106469
      5          6           0       -8.207736    0.235143    0.733744
      6          7           0       -3.026537   -0.281958    0.210381
      7          6           0       -3.009089   -1.657761    0.235815
      8          6           0       -1.673519   -2.159148   -0.283623
      9          6           0       -0.775806   -0.896233   -0.087292
     10          6           0       -1.814125    0.217562    0.064003
     11          6           0        0.331212   -0.862192    1.099391
     12          6           0       -1.633674   -2.715123   -1.741204
     13          6           0       -0.512954   -3.599712   -2.145101
     14          6           0        0.750886   -3.870521   -1.328475
     15          8           0        0.786488   -4.213525   -0.096139
     16          8           0        1.949280   -3.626358   -2.088652
     17          7           0       -3.692899    2.667856    0.025180
     18          6           0       -2.352372    2.714815   -0.268529
     19          6           0       -1.939975    4.086764   -0.410947
     20          6           0       -3.129039    4.869340   -0.324351
     21          6           0       -4.251728    3.922123   -0.126807
     22          6           0       -0.510677    4.504883   -0.549737
     23          6           0       -3.320075    6.442152   -0.459326
     24          8           0       -4.441089    6.940724   -0.299388
     25          6           0       -2.200296    7.421521   -0.749492
     26          7           0       -6.678261    1.983732    0.139271
     27          6           0       -6.760885    3.390372    0.074722
     28          6           0       -8.266192    3.804933    0.023013
     29          6           0       -9.043444    2.526089    0.407542
     30          6           0       -7.939488    1.500084    0.323387
     31          6           0       -8.552724    5.059233    0.857098
     32          6           0      -10.227853    2.244113   -0.612877
     33          6           0      -11.265327    1.370201   -0.077703
     34          7           0       -6.016658   -0.771486    0.585062
     35          6           0       -7.375441   -0.912566    0.817630
     36          6           0       -7.732449   -2.265275    1.067964
     37          6           0       -6.481433   -2.911781    0.934690
     38          6           0       -5.456897   -1.947545    0.677351
     39          6           0       -9.163523   -2.821294    1.369486
     40          6           0       -5.792767   -4.152190    1.159843
     41          8           0       -6.223680   -5.193656    1.513660
     42          6           0       -4.299742   -3.780995    1.018634
     43          6           0       -3.564610   -4.822494    0.320065
     44          8           0       -3.653574   -5.184620   -0.843609
     45          8           0       -2.919324   -5.544104    1.328230
     46          6           0       -2.195256   -6.803162    0.973061
     47          6           0        3.282177   -3.775772   -1.411138
     48          6           0        4.281584   -3.004686   -2.163714
     49          6           0        5.615890   -3.151957   -2.200007
     50          6           0        6.478488   -3.830998   -1.164004
     51          6           0        6.310367   -2.141309   -3.143075
     52          6           0        6.263899   -0.682524   -2.595703
     53          6           0        7.597306   -0.172596   -2.145823
     54          6           0        8.217261    1.010936   -2.951492
     55          6           0        8.972931    0.609849   -4.224695
     56          6           0        9.135721    1.907825   -2.047549
     57          6           0       10.183990    1.150084   -1.232977
     58          6           0       11.463866    2.002696   -0.940032
     59          6           0       11.381476    2.684676    0.439435
     60          6           0       11.598958    4.207998    0.388105
     61          6           0       12.374176    2.046885    1.596756
     62          6           0       12.009766    0.632315    2.046802
     63          6           0       10.752414    0.445285    2.949519
     64          6           0       11.153360   -0.131258    4.334946
     65          6           0        9.874015   -0.594522    5.121727
     66          6           0       11.977325    0.871349    5.210460
     67          1           0       -0.454115    1.779144   -0.598872
     68          1           0       -6.154867    5.131637   -0.170570
     69          1           0       -9.286896    0.077940    0.784154
     70          1           0       -1.395713   -2.915185    0.451595
     71          1           0       -0.367289   -0.645018   -1.066223
     72          1           0        0.084103   -1.750517    1.679504
     73          1           0        0.112740   -0.000626    1.731819
     74          1           0        1.402316   -0.805938    0.908245
     75          1           0       -1.568056   -1.893264   -2.454093
     76          1           0       -2.572861   -3.229455   -1.944937
     77          1           0       -0.183327   -3.146148   -3.080065
     78          1           0       -1.022148   -4.559038   -2.238189
     79          1           0       -0.350230    5.546077   -0.270432
     80          1           0       -0.375409    4.506526   -1.631020
     81          1           0        0.225299    3.979793    0.058690
     82          1           0       -1.348384    6.963190   -1.250313
     83          1           0       -1.779195    7.681032    0.221752
     84          1           0       -2.620850    8.246438   -1.325257
     85          1           0       -8.471971    4.034153   -1.021983
     86          1           0       -9.399747    2.438116    1.435041
     87          1           0       -7.812930    5.209222    1.642280
     88          1           0       -9.534845    5.041134    1.329029
     89          1           0       -8.563665    5.876300    0.135061
     90          1           0       -9.863031    1.876766   -1.571988
     91          1           0      -10.711356    3.145562   -0.990949
     92          1           0      -11.055143    0.364869   -0.443490
     93          1           0      -12.242571    1.691822   -0.438844
     94          1           0      -11.255134    1.343082    1.011189
     95          1           0       -9.428366   -2.625940    2.408820
     96          1           0       -9.154340   -3.892365    1.166307
     97          1           0       -9.960735   -2.357002    0.788983
     98          1           0       -3.923302   -3.803393    2.040818
     99          1           0       -1.973993   -7.385264    1.867806
    100          1           0       -1.305662   -6.386902    0.500693
    101          1           0       -2.704263   -7.448537    0.256614
    102          1           0        3.423419   -4.851030   -1.296701
    103          1           0        3.247032   -3.319734   -0.421510
    104          1           0        3.866174   -2.385332   -2.959503
    105          1           0        5.732414   -4.306775   -0.527086
    106          1           0        6.979346   -3.012768   -0.646547
    107          1           0        7.152061   -4.538965   -1.646711
    108          1           0        5.825243   -2.204984   -4.117464
    109          1           0        7.293351   -2.603135   -3.239237
    110          1           0        5.692381   -0.568519   -1.674799
    111          1           0        5.785091   -0.104531   -3.385828
    112          1           0        8.304909   -0.997062   -2.233610
    113          1           0        7.534439    0.175087   -1.114921
    114          1           0        7.401057    1.660426   -3.268930
    115          1           0        8.416303   -0.259657   -4.574323
    116          1           0       10.012741    0.335995   -4.049257
    117          1           0        8.820662    1.495182   -4.840829
    118          1           0        8.519773    2.536410   -1.405611
    119          1           0        9.729653    2.553518   -2.694771
    120          1           0       10.562594    0.298137   -1.796951
    121          1           0        9.749742    0.767701   -0.309749
    122          1           0       11.691115    2.796666   -1.650382
    123          1           0       12.228002    1.226054   -0.914281
    124          1           0       10.370260    2.573141    0.831704
    125          1           0       12.289698    4.499269    1.178374
    126          1           0       10.682698    4.731228    0.661506
    127          1           0       12.027646    4.597799   -0.534888
    128          1           0       12.318534    2.631622    2.515174
    129          1           0       13.337969    2.050350    1.089120
    130          1           0       12.844420    0.085539    2.486594
    131          1           0       11.783686    0.071542    1.140368
    132          1           0       10.090469   -0.246639    2.429379
    133          1           0       10.212918    1.392013    2.955098
    134          1           0       11.790619   -1.013906    4.279107
    135          1           0        9.773198   -0.211689    6.136559
    136          1           0        9.700857   -1.660848    4.978135
    137          1           0        8.943467   -0.213173    4.703175
    138          1           0       13.046368    0.707197    5.077235
    139          1           0       11.639373    0.775681    6.242756
    140          1           0       11.819680    1.878586    4.824249
 ---------------------------------------------------------------------

 SCF Done:  E(RB-LYP) =  -3007.33612817     A.U. after   22 cycles

 Excitation energies and oscillator strengths:

 Excited State   1:      Singlet-A      1.7607 eV  704.16 nm  f=0.2561  <S**2>=0.000
     245 -> 248       -0.18463
     246 -> 247        0.68601
     246 <- 247       -0.15005
 This state for optimization and/or second-order correction.
 Total Energy, E(TD-HF/TD-DFT) =  -3007.27142262
 Copying the excited state density for this state as the 1-particle RhoCI density.

 Excited State   2:      Singlet-A      1.9255 eV  643.90 nm  f=0.0942  <S**2>=0.000
     243 -> 247        0.38423
     245 -> 247        0.55520
     246 -> 248        0.16396

 Excited State   3:      Singlet-A      1.9729 eV  628.44 nm  f=0.0023  <S**2>=0.000
     244 -> 247        0.70414

 Excited State   4:      Singlet-A      2.0591 eV  602.13 nm  f=0.0331  <S**2>=0.000
     243 -> 247        0.58681
     245 -> 247       -0.34219
     246 -> 248       -0.17069

 Excited State   5:      Singlet-A      2.3269 eV  532.83 nm  f=0.0002  <S**2>=0.000
     241 -> 247        0.48409
     242 -> 247        0.51509

 The electronic state is 1-A.
 Alpha  occ. eigenvalues --  -46.26519 -18.82165 -18.80812 -18.77744 -18.76697
 Alpha  occ. eigenvalues --  -18.75580 -18.75342 -14.03003 -14.02269 -14.00810
 Alpha  occ. eigenvalues --  -14.00106 -10.05387 -10.03055 -10.00391  -9.98635
 Alpha  occ. eigenvalues --   -9.98210  -9.96796  -9.96486  -9.96222  -9.96168
 Alpha  occ. eigenvalues --   -9.96071  -9.95437  -9.95028  -9.94690  -9.93878
 Alpha  occ. eigenvalues --   -9.93848  -9.93804  -9.93784  -9.93776  -9.93607
 Alpha  occ. eigenvalues --   -9.93390  -9.93349  -9.93290  -9.93249  -9.93206
 Alpha  occ. eigenvalues --   -9.93201  -9.93066  -9.93052  -9.92670  -9.92650
 Alpha  occ. eigenvalues --   -9.92502  -9.92480  -9.92450  -9.92429  -9.92312
 Alpha  occ. eigenvalues --   -9.92080  -9.91993  -9.91875  -9.91863  -9.91863
 Alpha  occ. eigenvalues --   -9.91791  -9.91616  -9.91525  -9.91497  -9.91463
 Alpha  occ. eigenvalues --   -9.91320  -9.91312  -9.91290  -9.91164  -9.91134
 Alpha  occ. eigenvalues --   -9.91062  -9.90907  -9.90862  -9.90705  -9.90595
 Alpha  occ. eigenvalues --   -9.90275  -2.91225  -1.71650  -1.71088  -1.70954
 Alpha  occ. eigenvalues --   -0.96023  -0.94792  -0.93100  -0.90816  -0.88839
 Alpha  occ. eigenvalues --   -0.87901  -0.86899  -0.86111  -0.84938  -0.84233
 Alpha  occ. eigenvalues --   -0.76549  -0.74243  -0.73154  -0.72844  -0.72799
 Alpha  occ. eigenvalues --   -0.71988  -0.71693  -0.70648  -0.70489  -0.69989
 Alpha  occ. eigenvalues --   -0.69114  -0.68890  -0.68162  -0.67986  -0.67077
 Alpha  occ. eigenvalues --   -0.66489  -0.65804  -0.65505  -0.65044  -0.64502
 Alpha  occ. eigenvalues --   -0.64482  -0.62324  -0.62030  -0.61910  -0.61328
 Alpha  occ. eigenvalues --   -0.60346  -0.60029  -0.59782  -0.59604  -0.59077
 Alpha  occ. eigenvalues --   -0.58422  -0.57935  -0.56375  -0.55540  -0.54471
 Alpha  occ. eigenvalues --   -0.53912  -0.53779  -0.52737  -0.52297  -0.51729
 Alpha  occ. eigenvalues --   -0.51611  -0.51148  -0.50174  -0.49974  -0.49760
 Alpha  occ. eigenvalues --   -0.49128  -0.48365  -0.47880  -0.47416  -0.46326
 Alpha  occ. eigenvalues --   -0.46161  -0.45454  -0.45405  -0.44881  -0.44328
 Alpha  occ. eigenvalues --   -0.44140  -0.43486  -0.43124  -0.42564  -0.42221
 Alpha  occ. eigenvalues --   -0.42004  -0.41888  -0.41545  -0.41371  -0.41088
 Alpha  occ. eigenvalues --   -0.40837  -0.40454  -0.40365  -0.40229  -0.40086
 Alpha  occ. eigenvalues --   -0.39843  -0.39752  -0.39427  -0.39260  -0.39173
 Alpha  occ. eigenvalues --   -0.38891  -0.38689  -0.38611  -0.38546  -0.38386
 Alpha  occ. eigenvalues --   -0.38218  -0.38167  -0.38030  -0.37759  -0.37249
 Alpha  occ. eigenvalues --   -0.37039  -0.36818  -0.36705  -0.36607  -0.36468
 Alpha  occ. eigenvalues --   -0.36139  -0.36038  -0.35692  -0.35662  -0.35237
 Alpha  occ. eigenvalues --   -0.35134  -0.34954  -0.34906  -0.34801  -0.34790
 Alpha  occ. eigenvalues --   -0.34584  -0.34501  -0.34243  -0.34196  -0.34022
 Alpha  occ. eigenvalues --   -0.33927  -0.33779  -0.33400  -0.33182  -0.33019
 Alpha  occ. eigenvalues --   -0.32892  -0.32821  -0.32526  -0.32426  -0.32106
 Alpha  occ. eigenvalues --   -0.32020  -0.31922  -0.31785  -0.31552  -0.31417
 Alpha  occ. eigenvalues --   -0.31224  -0.31185  -0.30977  -0.30716  -0.30452
 Alpha  occ. eigenvalues --   -0.30302  -0.30118  -0.29931  -0.29859  -0.29705
 Alpha  occ. eigenvalues --   -0.29438  -0.29268  -0.29164  -0.28860  -0.28809
 Alpha  occ. eigenvalues --   -0.28577  -0.28274  -0.28170  -0.27968  -0.27561
 Alpha  occ. eigenvalues --   -0.27523  -0.27250  -0.27223  -0.26625  -0.26234
 Alpha  occ. eigenvalues --   -0.25969  -0.25754  -0.25671  -0.25488  -0.25265
 Alpha  occ. eigenvalues --   -0.25195  -0.24973  -0.24074  -0.23675  -0.23366
 Alpha  occ. eigenvalues --   -0.23132  -0.22288  -0.21748  -0.21340  -0.20545
 Alpha  occ. eigenvalues --   -0.20016  -0.19958  -0.18695  -0.18606  -0.16899
 Alpha  occ. eigenvalues --   -0.15585
 Alpha virt. eigenvalues --   -0.11437  -0.06608  -0.05914  -0.04918  -0.03904
 Alpha virt. eigenvalues --   -0.02719  -0.02400  -0.02350  -0.00711   0.00393
 Alpha virt. eigenvalues --    0.01382   0.01929   0.01982   0.02622   0.02790

 Mulliken charges:
               1
     1  Mg   0.692663
     2  C    0.159290
     3  C   -0.086371
     4  C    0.009885
     5  C   -0.082062
     6  N   -0.161274
     7  C   -0.163407
     8  C    0.038945
     9  C   -0.017416
    10  C    0.024187
    11  C    0.136293
    12  C    0.126073
    13  C    0.152399
    14  C    0.123125
    15  O   -0.242451
    16  O   -0.318594
    17  N   -0.263257
    18  C    0.105689
    19  C   -0.149947
    20  C    0.042022
    21  C    0.148740
    22  C    0.173778
    23  C   -0.068319
    24  O   -0.179653
    25  C    0.141255
    26  N   -0.286159
    27  C   -0.093424
    28  C    0.074702
    29  C    0.009918
    30  C    0.056052
    31  C    0.127340
    32  C    0.061406
    33  C    0.113020
    34  N   -0.254071
    35  C    0.113337
    36  C   -0.156434
    37  C    0.040230
    38  C   -0.011878
    39  C    0.169445
    40  C   -0.049716
    41  O   -0.074127
    42  C    0.043189
    43  C    0.108239
    44  O   -0.190691
    45  O   -0.303878
    46  C    0.212767
    47  C    0.322975
    48  C   -0.079107
    49  C   -0.219310
    50  C    0.160081
    51  C    0.100798
    52  C    0.139912
    53  C    0.076235
    54  C   -0.086150
    55  C    0.118718
    56  C    0.104366
    57  C    0.025757
    58  C    0.150979
    59  C   -0.113880
    60  C    0.117680
    61  C    0.094386
    62  C    0.077843
    63  C    0.096510
    64  C   -0.094682
    65  C    0.096680
    66  C    0.097240
    67  H   -0.052576
    68  H   -0.056994
    69  H   -0.097102
    70  H   -0.016334
    71  H   -0.033913
    72  H    0.001642
    73  H   -0.016841
    74  H    0.001805
    75  H   -0.031187
    76  H   -0.002063
    77  H   -0.005418
    78  H    0.024616
    79  H   -0.023947
    80  H    0.007949
    81  H    0.010444
    82  H   -0.023286
    83  H    0.018393
    84  H    0.015141
    85  H   -0.014769
    86  H   -0.016010
    87  H    0.007022
    88  H   -0.016355
    89  H    0.001158
    90  H   -0.033199
    91  H   -0.031612
    92  H    0.003459
    93  H   -0.017509
    94  H   -0.007984
    95  H    0.000871
    96  H    0.012288
    97  H   -0.005688
    98  H    0.011295
    99  H    0.022091
   100  H    0.013875
   101  H    0.018426
   102  H    0.013457
   103  H    0.005860
   104  H   -0.027633
   105  H   -0.014390
   106  H    0.011336
   107  H    0.009454
   108  H   -0.023465
   109  H   -0.031344
   110  H   -0.024618
   111  H   -0.027770
   112  H   -0.030404
   113  H   -0.038158
   114  H   -0.049408
   115  H   -0.019506
   116  H   -0.007165
   117  H   -0.007724
   118  H   -0.036098
   119  H   -0.049524
   120  H   -0.038737
   121  H   -0.015240
   122  H   -0.027382
   123  H   -0.036692
   124  H   -0.035712
   125  H   -0.034121
   126  H   -0.019456
   127  H   -0.015628
   128  H   -0.024474
   129  H   -0.027381
   130  H   -0.033576
   131  H   -0.052373
   132  H   -0.035250
   133  H   -0.028711
   134  H   -0.026598
   135  H   -0.017850
   136  H   -0.014807
   137  H   -0.037198
   138  H   -0.012736
   139  H   -0.008200
   140  H   -0.016363
 Sum of Mulliken charges =  -0.00000

 Dipole moment (field-independent basis, Debye):
    X=              3.4922    Y=              2.7305    Z=             -2.1014  Tot=              4.9058
 Quadrupole moment (field-independent basis, Debye-Ang):
   XX=           -377.4986   YY=           -433.1798   ZZ=           -406.5937
   XY=            -26.2827   XZ=              2.0130   YZ=              0.0630

 Normal termination of Gaussian 16 at Fri Apr 29 01:16:00 2022.
