 Gaussian 16, Revision A.03,
 Gaussian 16:  ES64L-G16RevA.03 25-Dec-2016

 -----------------------------------
 #p cam-b3lyp/Def2SVP td=(nstates=5)
 -----------------------------------

 --------------------------------------------------------
 step_1801_chromophore_15 TDDFT with cam-b3lyp functional
 --------------------------------------------------------
 Symbolic Z-matrix:
 Charge =  0 Multiplicity = 1

                         Standard orientation:
 ---------------------------------------------------------------------
 Center     Atomic      Atomic             Coordinates (Angstroms)
 Number     Number       Type             X           Y           Z
 ---------------------------------------------------------------------
      1         12           0       -4.976790    0.894103    0.056359
      2          6           0       -4.110115   -2.434494    0.573339
      3          6           0       -1.476394    1.584035   -0.268757
      4          6           0       -5.635843    4.172760   -0.106469
      5          6           0       -8.207736    0.235143    0.733744
      6          7           0       -3.026537   -0.281958    0.210381
      7          6           0       -3.009089   -1.657761    0.235815
      8          6           0       -1.673519   -2.159148   -0.283623
      9          6           0       -0.775806   -0.896233   -0.087292
     10          6           0       -1.814125    0.217562    0.064003
     11          6           0        0.331212   -0.862192    1.099391
     12          6           0       -1.633674   -2.715123   -1.741204
     13          6           0       -0.512954   -3.599712   -2.145101
     14          6           0        0.750886   -3.870521   -1.328475
     15          8           0        0.786488   -4.213525   -0.096139
     16          8           0        1.949280   -3.626358   -2.088652
     17          7           0       -3.692899    2.667856    0.025180
     18          6           0       -2.352372    2.714815   -0.268529
     19          6           0       -1.939975    4.086764   -0.410947
     20          6           0       -3.129039    4.869340   -0.324351
     21          6           0       -4.251728    3.922123   -0.126807
     22          6           0       -0.510677    4.504883   -0.549737
     23          6           0       -3.320075    6.442152   -0.459326
     24          8           0       -4.441089    6.940724   -0.299388
     25          6           0       -2.200296    7.421521   -0.749492
     26          7           0       -6.678261    1.983732    0.139271
     27          6           0       -6.760885    3.390372    0.074722
     28          6           0       -8.266192    3.804933    0.023013
     29          6           0       -9.043444    2.526089    0.407542
     30          6           0       -7.939488    1.500084    0.323387
     31          6           0       -8.552724    5.059233    0.857098
     32          6           0      -10.227853    2.244113   -0.612877
     33          6           0      -11.265327    1.370201   -0.077703
     34          7           0       -6.016658   -0.771486    0.585062
     35          6           0       -7.375441   -0.912566    0.817630
     36          6           0       -7.732449   -2.265275    1.067964
     37          6           0       -6.481433   -2.911781    0.934690
     38          6           0       -5.456897   -1.947545    0.677351
     39          6           0       -9.163523   -2.821294    1.369486
     40          6           0       -5.792767   -4.152190    1.159843
     41          8           0       -6.223680   -5.193656    1.513660
     42          6           0       -4.299742   -3.780995    1.018634
     43          6           0       -3.564610   -4.822494    0.320065
     44          8           0       -3.653574   -5.184620   -0.843609
     45          8           0       -2.919324   -5.544104    1.328230
     46          6           0       -2.195256   -6.803162    0.973061
     47          6           0        3.282177   -3.775772   -1.411138
     48          6           0        4.281584   -3.004686   -2.163714
     49          6           0        5.615890   -3.151957   -2.200007
     50          6           0        6.478488   -3.830998   -1.164004
     51          6           0        6.310367   -2.141309   -3.143075
     52          6           0        6.263899   -0.682524   -2.595703
     53          6           0        7.597306   -0.172596   -2.145823
     54          6           0        8.217261    1.010936   -2.951492
     55          6           0        8.972931    0.609849   -4.224695
     56          6           0        9.135721    1.907825   -2.047549
     57          6           0       10.183990    1.150084   -1.232977
     58          6           0       11.463866    2.002696   -0.940032
     59          6           0       11.381476    2.684676    0.439435
     60          6           0       11.598958    4.207998    0.388105
     61          6           0       12.374176    2.046885    1.596756
     62          6           0       12.009766    0.632315    2.046802
     63          6           0       10.752414    0.445285    2.949519
     64          6           0       11.153360   -0.131258    4.334946
     65          6           0        9.874015   -0.594522    5.121727
     66          6           0       11.977325    0.871349    5.210460
     67          1           0       -0.454115    1.779144   -0.598872
     68          1           0       -6.154867    5.131637   -0.170570
     69          1           0       -9.286896    0.077940    0.784154
     70          1           0       -1.395713   -2.915185    0.451595
     71          1           0       -0.367289   -0.645018   -1.066223
     72          1           0        0.084103   -1.750517    1.679504
     73          1           0        0.112740   -0.000626    1.731819
     74          1           0        1.402316   -0.805938    0.908245
     75          1           0       -1.568056   -1.893264   -2.454093
     76          1           0       -2.572861   -3.229455   -1.944937
     77          1           0       -0.183327   -3.146148   -3.080065
     78          1           0       -1.022148   -4.559038   -2.238189
     79          1           0       -0.350230    5.546077   -0.270432
     80          1           0       -0.375409    4.506526   -1.631020
     81          1           0        0.225299    3.979793    0.058690
     82          1           0       -1.348384    6.963190   -1.250313
     83          1           0       -1.779195    7.681032    0.221752
     84          1           0       -2.620850    8.246438   -1.325257
     85          1           0       -8.471971    4.034153   -1.021983
     86          1           0       -9.399747    2.438116    1.435041
     87          1           0       -7.812930    5.209222    1.642280
     88          1           0       -9.534845    5.041134    1.329029
     89          1           0       -8.563665    5.876300    0.135061
     90          1           0       -9.863031    1.876766   -1.571988
     91          1           0      -10.711356    3.145562   -0.990949
     92          1           0      -11.055143    0.364869   -0.443490
     93          1           0      -12.242571    1.691822   -0.438844
     94          1           0      -11.255134    1.343082    1.011189
     95          1           0       -9.428366   -2.625940    2.408820
     96          1           0       -9.154340   -3.892365    1.166307
     97          1           0       -9.960735   -2.357002    0.788983
     98          1           0       -3.923302   -3.803393    2.040818
     99          1           0       -1.973993   -7.385264    1.867806
    100          1           0       -1.305662   -6.386902    0.500693
    101          1           0       -2.704263   -7.448537    0.256614
    102          1           0        3.423419   -4.851030   -1.296701
    103          1           0        3.247032   -3.319734   -0.421510
    104          1           0        3.866174   -2.385332   -2.959503
    105          1           0        5.732414   -4.306775   -0.527086
    106          1           0        6.979346   -3.012768   -0.646547
    107          1           0        7.152061   -4.538965   -1.646711
    108          1           0        5.825243   -2.204984   -4.117464
    109          1           0        7.293351   -2.603135   -3.239237
    110          1           0        5.692381   -0.568519   -1.674799
    111          1           0        5.785091   -0.104531   -3.385828
    112          1           0        8.304909   -0.997062   -2.233610
    113          1           0        7.534439    0.175087   -1.114921
    114          1           0        7.401057    1.660426   -3.268930
    115          1           0        8.416303   -0.259657   -4.574323
    116          1           0       10.012741    0.335995   -4.049257
    117          1           0        8.820662    1.495182   -4.840829
    118          1           0        8.519773    2.536410   -1.405611
    119          1           0        9.729653    2.553518   -2.694771
    120          1           0       10.562594    0.298137   -1.796951
    121          1           0        9.749742    0.767701   -0.309749
    122          1           0       11.691115    2.796666   -1.650382
    123          1           0       12.228002    1.226054   -0.914281
    124          1           0       10.370260    2.573141    0.831704
    125          1           0       12.289698    4.499269    1.178374
    126          1           0       10.682698    4.731228    0.661506
    127          1           0       12.027646    4.597799   -0.534888
    128          1           0       12.318534    2.631622    2.515174
    129          1           0       13.337969    2.050350    1.089120
    130          1           0       12.844420    0.085539    2.486594
    131          1           0       11.783686    0.071542    1.140368
    132          1           0       10.090469   -0.246639    2.429379
    133          1           0       10.212918    1.392013    2.955098
    134          1           0       11.790619   -1.013906    4.279107
    135          1           0        9.773198   -0.211689    6.136559
    136          1           0        9.700857   -1.660848    4.978135
    137          1           0        8.943467   -0.213173    4.703175
    138          1           0       13.046368    0.707197    5.077235
    139          1           0       11.639373    0.775681    6.242756
    140          1           0       11.819680    1.878586    4.824249
 ---------------------------------------------------------------------

 SCF Done:  E(RCAM-B3LYP) =  -3007.12658018     A.U. after   18 cycles

 Excitation energies and oscillator strengths:

 Excited State   1:      Singlet-A      1.7017 eV  728.60 nm  f=0.3643  <S**2>=0.000
     245 -> 248       -0.16693
     246 -> 247        0.68854
     245 <- 248       -0.10277
 This state for optimization and/or second-order correction.
 Total Energy, E(TD-HF/TD-DFT) =  -3007.06404449
 Copying the excited state density for this state as the 1-particle RhoCI density.

 Excited State   2:      Singlet-A      2.1880 eV  566.67 nm  f=0.1447  <S**2>=0.000
     245 -> 247        0.64710
     246 -> 248        0.26888

 Excited State   3:      Singlet-A      3.2962 eV  376.14 nm  f=0.0020  <S**2>=0.000
     240 -> 247       -0.11902
     241 -> 247       -0.26863
     242 -> 247        0.38600
     244 -> 247        0.49061

 Excited State   4:      Singlet-A      3.4820 eV  356.07 nm  f=0.2368  <S**2>=0.000
     241 -> 247       -0.23807
     242 -> 247        0.14592
     244 -> 247       -0.35533
     245 -> 247       -0.17091
     246 -> 248        0.49578

 Excited State   5:      Singlet-A      3.5807 eV  346.25 nm  f=0.1387  <S**2>=0.000
     240 -> 247       -0.14787
     241 -> 247        0.21894
     241 -> 249        0.12746
     241 -> 252        0.13928
     242 -> 247        0.47740
     244 -> 247       -0.26238
     245 -> 247        0.11816
     246 -> 248       -0.18732

 The electronic state is 1-A.
 Alpha  occ. eigenvalues --  -46.88044 -19.25009 -19.23617 -19.20740 -19.19775
 Alpha  occ. eigenvalues --  -19.19207 -19.18021 -14.41998 -14.41022 -14.39484
 Alpha  occ. eigenvalues --  -14.38255 -10.41002 -10.38535 -10.36055 -10.33450
 Alpha  occ. eigenvalues --  -10.32263 -10.31334 -10.31170 -10.30926 -10.30740
 Alpha  occ. eigenvalues --  -10.30449 -10.30334 -10.28991 -10.28957 -10.28321
 Alpha  occ. eigenvalues --  -10.28231 -10.27969 -10.27872 -10.27742 -10.27738
 Alpha  occ. eigenvalues --  -10.27605 -10.27594 -10.27433 -10.27396 -10.27389
 Alpha  occ. eigenvalues --  -10.27176 -10.26877 -10.26823 -10.26811 -10.26740
 Alpha  occ. eigenvalues --  -10.26455 -10.26273 -10.26181 -10.26041 -10.26010
 Alpha  occ. eigenvalues --  -10.25874 -10.25857 -10.25850 -10.25671 -10.25578
 Alpha  occ. eigenvalues --  -10.25546 -10.25456 -10.25411 -10.25191 -10.25061
 Alpha  occ. eigenvalues --  -10.25052 -10.24986 -10.24970 -10.24876 -10.24796
 Alpha  occ. eigenvalues --  -10.24763 -10.24576 -10.24549 -10.24341 -10.24249
 Alpha  occ. eigenvalues --  -10.23819  -3.16657  -1.91557  -1.91100  -1.90970
 Alpha  occ. eigenvalues --   -1.14505  -1.13081  -1.11152  -1.09588  -1.06654
 Alpha  occ. eigenvalues --   -1.05650  -1.04623  -1.03523  -1.02758  -1.01873
 Alpha  occ. eigenvalues --   -0.93549  -0.91185  -0.89972  -0.89671  -0.89433
 Alpha  occ. eigenvalues --   -0.88741  -0.88490  -0.87290  -0.87243  -0.86685
 Alpha  occ. eigenvalues --   -0.85450  -0.85226  -0.84472  -0.84086  -0.83175
 Alpha  occ. eigenvalues --   -0.82557  -0.82158  -0.81476  -0.81023  -0.80371
 Alpha  occ. eigenvalues --   -0.80359  -0.78190  -0.77678  -0.77407  -0.76772
 Alpha  occ. eigenvalues --   -0.75649  -0.75405  -0.75014  -0.74951  -0.74366
 Alpha  occ. eigenvalues --   -0.73506  -0.72944  -0.71285  -0.70336  -0.68856
 Alpha  occ. eigenvalues --   -0.68563  -0.68380  -0.67172  -0.66836  -0.66125
 Alpha  occ. eigenvalues --   -0.65776  -0.65327  -0.64256  -0.63917  -0.63818
 Alpha  occ. eigenvalues --   -0.62792  -0.62255  -0.61671  -0.61025  -0.60132
 Alpha  occ. eigenvalues --   -0.59729  -0.58980  -0.58810  -0.58268  -0.57694
 Alpha  occ. eigenvalues --   -0.57458  -0.56760  -0.56259  -0.55685  -0.55361
 Alpha  occ. eigenvalues --   -0.54977  -0.54805  -0.54418  -0.54312  -0.53839
 Alpha  occ. eigenvalues --   -0.53581  -0.53469  -0.53232  -0.53066  -0.52890
 Alpha  occ. eigenvalues --   -0.52744  -0.52303  -0.52136  -0.51765  -0.51722
 Alpha  occ. eigenvalues --   -0.51440  -0.51279  -0.51193  -0.51134  -0.50999
 Alpha  occ. eigenvalues --   -0.50788  -0.50480  -0.50295  -0.50231  -0.49893
 Alpha  occ. eigenvalues --   -0.49473  -0.49288  -0.49071  -0.48826  -0.48780
 Alpha  occ. eigenvalues --   -0.48590  -0.48388  -0.48234  -0.47684  -0.47631
 Alpha  occ. eigenvalues --   -0.47242  -0.47151  -0.47069  -0.46784  -0.46689
 Alpha  occ. eigenvalues --   -0.46606  -0.46367  -0.46195  -0.45868  -0.45762
 Alpha  occ. eigenvalues --   -0.45712  -0.45551  -0.45108  -0.44797  -0.44760
 Alpha  occ. eigenvalues --   -0.44530  -0.44505  -0.44267  -0.44133  -0.43692
 Alpha  occ. eigenvalues --   -0.43637  -0.43508  -0.43327  -0.43162  -0.42961
 Alpha  occ. eigenvalues --   -0.42801  -0.42554  -0.42467  -0.42341  -0.41937
 Alpha  occ. eigenvalues --   -0.41802  -0.41575  -0.41530  -0.41379  -0.41206
 Alpha  occ. eigenvalues --   -0.40750  -0.40603  -0.40377  -0.40203  -0.39906
 Alpha  occ. eigenvalues --   -0.39677  -0.39287  -0.39249  -0.38877  -0.38607
 Alpha  occ. eigenvalues --   -0.38431  -0.38370  -0.38092  -0.37381  -0.37022
 Alpha  occ. eigenvalues --   -0.36946  -0.36789  -0.36564  -0.36308  -0.36171
 Alpha  occ. eigenvalues --   -0.35890  -0.35734  -0.35517  -0.34271  -0.34101
 Alpha  occ. eigenvalues --   -0.34030  -0.33956  -0.32325  -0.31201  -0.31009
 Alpha  occ. eigenvalues --   -0.30160  -0.29840  -0.29642  -0.29232  -0.23731
 Alpha  occ. eigenvalues --   -0.20991
 Alpha virt. eigenvalues --   -0.08604  -0.01346   0.00560   0.02535   0.02964
 Alpha virt. eigenvalues --    0.03208   0.05036   0.05115   0.06128   0.07065
 Alpha virt. eigenvalues --    0.07707   0.08059   0.08752   0.09259   0.09271

 Mulliken charges:
               1
     1  Mg   0.825322
     2  C    0.122209
     3  C   -0.098674
     4  C   -0.022286
     5  C   -0.083813
     6  N   -0.228171
     7  C   -0.107570
     8  C   -0.021543
     9  C   -0.074679
    10  C    0.049535
    11  C    0.080795
    12  C    0.073796
    13  C    0.081623
    14  C    0.206864
    15  O   -0.283717
    16  O   -0.386691
    17  N   -0.348488
    18  C    0.120772
    19  C   -0.154042
    20  C   -0.021423
    21  C    0.176356
    22  C    0.109426
    23  C    0.010058
    24  O   -0.216429
    25  C    0.063666
    26  N   -0.364659
    27  C   -0.054710
    28  C    0.014506
    29  C   -0.054618
    30  C    0.078215
    31  C    0.063853
    32  C    0.013984
    33  C    0.040181
    34  N   -0.345477
    35  C    0.109770
    36  C   -0.155230
    37  C   -0.033610
    38  C    0.020393
    39  C    0.125820
    40  C    0.046891
    41  O   -0.117421
    42  C   -0.039118
    43  C    0.193728
    44  O   -0.227453
    45  O   -0.368647
    46  C    0.177429
    47  C    0.292891
    48  C   -0.105338
    49  C   -0.229590
    50  C    0.100540
    51  C    0.037586
    52  C    0.078668
    53  C    0.021603
    54  C   -0.135343
    55  C    0.062301
    56  C    0.054371
    57  C   -0.027586
    58  C    0.093316
    59  C   -0.164450
    60  C    0.058225
    61  C    0.047250
    62  C    0.020876
    63  C    0.041142
    64  C   -0.153325
    65  C    0.035922
    66  C    0.040525
    67  H   -0.015205
    68  H   -0.017677
    69  H   -0.063625
    70  H    0.019292
    71  H    0.000952
    72  H    0.027237
    73  H    0.009198
    74  H    0.025418
    75  H   -0.002177
    76  H    0.032874
    77  H    0.029332
    78  H    0.055065
    79  H    0.005097
    80  H    0.037568
    81  H    0.040222
    82  H    0.005760
    83  H    0.046270
    84  H    0.048816
    85  H    0.020793
    86  H    0.019391
    87  H    0.032817
    88  H    0.011111
    89  H    0.024771
    90  H   -0.002530
    91  H   -0.003369
    92  H    0.025280
    93  H    0.009940
    94  H    0.015188
    95  H    0.025300
    96  H    0.037099
    97  H    0.015161
    98  H    0.057688
    99  H    0.045052
   100  H    0.034122
   101  H    0.042061
   102  H    0.040181
   103  H    0.033521
   104  H    0.007024
   105  H    0.008426
   106  H    0.032721
   107  H    0.033554
   108  H    0.008125
   109  H   -0.003286
   110  H    0.005620
   111  H    0.001553
   112  H   -0.004817
   113  H   -0.008154
   114  H   -0.016479
   115  H    0.002138
   116  H    0.015244
   117  H    0.016277
   118  H   -0.007916
   119  H   -0.019810
   120  H   -0.010400
   121  H    0.006661
   122  H    0.001254
   123  H   -0.006576
   124  H   -0.007048
   125  H   -0.007419
   126  H    0.005007
   127  H    0.008068
   128  H   -0.000497
   129  H    0.001289
   130  H   -0.003912
   131  H   -0.024464
   132  H   -0.005751
   133  H   -0.001305
   134  H    0.005083
   135  H    0.006713
   136  H    0.009877
   137  H   -0.012081
   138  H    0.010553
   139  H    0.015811
   140  H    0.004612
 Sum of Mulliken charges =  -0.00000

 Dipole moment (field-independent basis, Debye):
    X=              4.4132    Y=              4.0290    Z=             -2.4272  Tot=              6.4499
 Quadrupole moment (field-independent basis, Debye-Ang):
   XX=           -383.3577   YY=           -427.8140   ZZ=           -407.1498
   XY=            -30.0176   XZ=              3.5214   YZ=             -0.3887

 Normal termination of Gaussian 16 at Fri Apr 29 00:14:46 2022.
