 Gaussian 16, Revision A.03,
 Gaussian 16:  ES64L-G16RevA.03 25-Dec-2016

 ---------------------------------
 #p PBE1PBE/Def2SVP td=(nstates=5)
 ---------------------------------

 ------------------------------------------------------
 step_1801_chromophore_15 TDDFT with PBE1PBE functional
 ------------------------------------------------------
 Symbolic Z-matrix:
 Charge =  0 Multiplicity = 1

                         Standard orientation:
 ---------------------------------------------------------------------
 Center     Atomic      Atomic             Coordinates (Angstroms)
 Number     Number       Type             X           Y           Z
 ---------------------------------------------------------------------
      1         12           0       -4.976790    0.894103    0.056359
      2          6           0       -4.110115   -2.434494    0.573339
      3          6           0       -1.476394    1.584035   -0.268757
      4          6           0       -5.635843    4.172760   -0.106469
      5          6           0       -8.207736    0.235143    0.733744
      6          7           0       -3.026537   -0.281958    0.210381
      7          6           0       -3.009089   -1.657761    0.235815
      8          6           0       -1.673519   -2.159148   -0.283623
      9          6           0       -0.775806   -0.896233   -0.087292
     10          6           0       -1.814125    0.217562    0.064003
     11          6           0        0.331212   -0.862192    1.099391
     12          6           0       -1.633674   -2.715123   -1.741204
     13          6           0       -0.512954   -3.599712   -2.145101
     14          6           0        0.750886   -3.870521   -1.328475
     15          8           0        0.786488   -4.213525   -0.096139
     16          8           0        1.949280   -3.626358   -2.088652
     17          7           0       -3.692899    2.667856    0.025180
     18          6           0       -2.352372    2.714815   -0.268529
     19          6           0       -1.939975    4.086764   -0.410947
     20          6           0       -3.129039    4.869340   -0.324351
     21          6           0       -4.251728    3.922123   -0.126807
     22          6           0       -0.510677    4.504883   -0.549737
     23          6           0       -3.320075    6.442152   -0.459326
     24          8           0       -4.441089    6.940724   -0.299388
     25          6           0       -2.200296    7.421521   -0.749492
     26          7           0       -6.678261    1.983732    0.139271
     27          6           0       -6.760885    3.390372    0.074722
     28          6           0       -8.266192    3.804933    0.023013
     29          6           0       -9.043444    2.526089    0.407542
     30          6           0       -7.939488    1.500084    0.323387
     31          6           0       -8.552724    5.059233    0.857098
     32          6           0      -10.227853    2.244113   -0.612877
     33          6           0      -11.265327    1.370201   -0.077703
     34          7           0       -6.016658   -0.771486    0.585062
     35          6           0       -7.375441   -0.912566    0.817630
     36          6           0       -7.732449   -2.265275    1.067964
     37          6           0       -6.481433   -2.911781    0.934690
     38          6           0       -5.456897   -1.947545    0.677351
     39          6           0       -9.163523   -2.821294    1.369486
     40          6           0       -5.792767   -4.152190    1.159843
     41          8           0       -6.223680   -5.193656    1.513660
     42          6           0       -4.299742   -3.780995    1.018634
     43          6           0       -3.564610   -4.822494    0.320065
     44          8           0       -3.653574   -5.184620   -0.843609
     45          8           0       -2.919324   -5.544104    1.328230
     46          6           0       -2.195256   -6.803162    0.973061
     47          6           0        3.282177   -3.775772   -1.411138
     48          6           0        4.281584   -3.004686   -2.163714
     49          6           0        5.615890   -3.151957   -2.200007
     50          6           0        6.478488   -3.830998   -1.164004
     51          6           0        6.310367   -2.141309   -3.143075
     52          6           0        6.263899   -0.682524   -2.595703
     53          6           0        7.597306   -0.172596   -2.145823
     54          6           0        8.217261    1.010936   -2.951492
     55          6           0        8.972931    0.609849   -4.224695
     56          6           0        9.135721    1.907825   -2.047549
     57          6           0       10.183990    1.150084   -1.232977
     58          6           0       11.463866    2.002696   -0.940032
     59          6           0       11.381476    2.684676    0.439435
     60          6           0       11.598958    4.207998    0.388105
     61          6           0       12.374176    2.046885    1.596756
     62          6           0       12.009766    0.632315    2.046802
     63          6           0       10.752414    0.445285    2.949519
     64          6           0       11.153360   -0.131258    4.334946
     65          6           0        9.874015   -0.594522    5.121727
     66          6           0       11.977325    0.871349    5.210460
     67          1           0       -0.454115    1.779144   -0.598872
     68          1           0       -6.154867    5.131637   -0.170570
     69          1           0       -9.286896    0.077940    0.784154
     70          1           0       -1.395713   -2.915185    0.451595
     71          1           0       -0.367289   -0.645018   -1.066223
     72          1           0        0.084103   -1.750517    1.679504
     73          1           0        0.112740   -0.000626    1.731819
     74          1           0        1.402316   -0.805938    0.908245
     75          1           0       -1.568056   -1.893264   -2.454093
     76          1           0       -2.572861   -3.229455   -1.944937
     77          1           0       -0.183327   -3.146148   -3.080065
     78          1           0       -1.022148   -4.559038   -2.238189
     79          1           0       -0.350230    5.546077   -0.270432
     80          1           0       -0.375409    4.506526   -1.631020
     81          1           0        0.225299    3.979793    0.058690
     82          1           0       -1.348384    6.963190   -1.250313
     83          1           0       -1.779195    7.681032    0.221752
     84          1           0       -2.620850    8.246438   -1.325257
     85          1           0       -8.471971    4.034153   -1.021983
     86          1           0       -9.399747    2.438116    1.435041
     87          1           0       -7.812930    5.209222    1.642280
     88          1           0       -9.534845    5.041134    1.329029
     89          1           0       -8.563665    5.876300    0.135061
     90          1           0       -9.863031    1.876766   -1.571988
     91          1           0      -10.711356    3.145562   -0.990949
     92          1           0      -11.055143    0.364869   -0.443490
     93          1           0      -12.242571    1.691822   -0.438844
     94          1           0      -11.255134    1.343082    1.011189
     95          1           0       -9.428366   -2.625940    2.408820
     96          1           0       -9.154340   -3.892365    1.166307
     97          1           0       -9.960735   -2.357002    0.788983
     98          1           0       -3.923302   -3.803393    2.040818
     99          1           0       -1.973993   -7.385264    1.867806
    100          1           0       -1.305662   -6.386902    0.500693
    101          1           0       -2.704263   -7.448537    0.256614
    102          1           0        3.423419   -4.851030   -1.296701
    103          1           0        3.247032   -3.319734   -0.421510
    104          1           0        3.866174   -2.385332   -2.959503
    105          1           0        5.732414   -4.306775   -0.527086
    106          1           0        6.979346   -3.012768   -0.646547
    107          1           0        7.152061   -4.538965   -1.646711
    108          1           0        5.825243   -2.204984   -4.117464
    109          1           0        7.293351   -2.603135   -3.239237
    110          1           0        5.692381   -0.568519   -1.674799
    111          1           0        5.785091   -0.104531   -3.385828
    112          1           0        8.304909   -0.997062   -2.233610
    113          1           0        7.534439    0.175087   -1.114921
    114          1           0        7.401057    1.660426   -3.268930
    115          1           0        8.416303   -0.259657   -4.574323
    116          1           0       10.012741    0.335995   -4.049257
    117          1           0        8.820662    1.495182   -4.840829
    118          1           0        8.519773    2.536410   -1.405611
    119          1           0        9.729653    2.553518   -2.694771
    120          1           0       10.562594    0.298137   -1.796951
    121          1           0        9.749742    0.767701   -0.309749
    122          1           0       11.691115    2.796666   -1.650382
    123          1           0       12.228002    1.226054   -0.914281
    124          1           0       10.370260    2.573141    0.831704
    125          1           0       12.289698    4.499269    1.178374
    126          1           0       10.682698    4.731228    0.661506
    127          1           0       12.027646    4.597799   -0.534888
    128          1           0       12.318534    2.631622    2.515174
    129          1           0       13.337969    2.050350    1.089120
    130          1           0       12.844420    0.085539    2.486594
    131          1           0       11.783686    0.071542    1.140368
    132          1           0       10.090469   -0.246639    2.429379
    133          1           0       10.212918    1.392013    2.955098
    134          1           0       11.790619   -1.013906    4.279107
    135          1           0        9.773198   -0.211689    6.136559
    136          1           0        9.700857   -1.660848    4.978135
    137          1           0        8.943467   -0.213173    4.703175
    138          1           0       13.046368    0.707197    5.077235
    139          1           0       11.639373    0.775681    6.242756
    140          1           0       11.819680    1.878586    4.824249
 ---------------------------------------------------------------------

 SCF Done:  E(RPBE1PBE) =  -3005.31503696     A.U. after   16 cycles

 Excitation energies and oscillator strengths:

 Excited State   1:      Singlet-A      1.8218 eV  680.57 nm  f=0.3432  <S**2>=0.000
     245 -> 248       -0.16637
     246 -> 247        0.69482
     246 <- 247       -0.11000
 This state for optimization and/or second-order correction.
 Total Energy, E(TD-HF/TD-DFT) =  -3005.24808804
 Copying the excited state density for this state as the 1-particle RhoCI density.

 Excited State   2:      Singlet-A      2.1880 eV  566.64 nm  f=0.1433  <S**2>=0.000
     245 -> 247        0.65795
     246 -> 248        0.24592

 Excited State   3:      Singlet-A      2.9743 eV  416.86 nm  f=0.0027  <S**2>=0.000
     242 -> 247        0.22760
     243 -> 247        0.63591
     244 -> 247       -0.15889

 Excited State   4:      Singlet-A      3.0127 eV  411.54 nm  f=0.0028  <S**2>=0.000
     241 -> 247        0.21968
     242 -> 247        0.61308
     243 -> 247       -0.20510

 Excited State   5:      Singlet-A      3.1007 eV  399.86 nm  f=0.0000  <S**2>=0.000
     240 -> 247        0.64721
     240 -> 249       -0.17501
     241 -> 247        0.18301

 The electronic state is 1-A.
 Alpha  occ. eigenvalues --  -46.91454 -19.25737 -19.24378 -19.21032 -19.20037
 Alpha  occ. eigenvalues --  -19.19187 -19.18513 -14.41404 -14.40646 -14.39014
 Alpha  occ. eigenvalues --  -14.38065 -10.38073 -10.35581 -10.32995 -10.30809
 Alpha  occ. eigenvalues --  -10.29643 -10.28799 -10.28497 -10.28456 -10.28371
 Alpha  occ. eigenvalues --  -10.28007 -10.27645 -10.26933 -10.26437 -10.26235
 Alpha  occ. eigenvalues --  -10.25712 -10.25644 -10.25628 -10.25604 -10.25327
 Alpha  occ. eigenvalues --  -10.25302 -10.25258 -10.25250 -10.25228 -10.25213
 Alpha  occ. eigenvalues --  -10.24761 -10.24549 -10.24478 -10.24192 -10.24093
 Alpha  occ. eigenvalues --  -10.23946 -10.23908 -10.23736 -10.23730 -10.23577
 Alpha  occ. eigenvalues --  -10.23554 -10.23495 -10.23437 -10.23346 -10.23093
 Alpha  occ. eigenvalues --  -10.23022 -10.22988 -10.22966 -10.22829 -10.22727
 Alpha  occ. eigenvalues --  -10.22619 -10.22598 -10.22504 -10.22409 -10.22325
 Alpha  occ. eigenvalues --  -10.22124 -10.22088 -10.21924 -10.21921 -10.21741
 Alpha  occ. eigenvalues --  -10.21627  -3.13645  -1.86486  -1.86008  -1.85880
 Alpha  occ. eigenvalues --   -1.09298  -1.07846  -1.06192  -1.04084  -1.01544
 Alpha  occ. eigenvalues --   -1.00486  -0.99278  -0.98379  -0.97243  -0.96459
 Alpha  occ. eigenvalues --   -0.88078  -0.85307  -0.84163  -0.83785  -0.83761
 Alpha  occ. eigenvalues --   -0.82806  -0.82731  -0.81446  -0.81335  -0.80935
 Alpha  occ. eigenvalues --   -0.79910  -0.79489  -0.78644  -0.78445  -0.77568
 Alpha  occ. eigenvalues --   -0.76733  -0.76243  -0.75639  -0.75310  -0.74718
 Alpha  occ. eigenvalues --   -0.74487  -0.72360  -0.71924  -0.71787  -0.70927
 Alpha  occ. eigenvalues --   -0.70008  -0.69467  -0.69393  -0.69073  -0.68508
 Alpha  occ. eigenvalues --   -0.67928  -0.67337  -0.65693  -0.64669  -0.63406
 Alpha  occ. eigenvalues --   -0.62878  -0.62648  -0.61381  -0.61133  -0.60281
 Alpha  occ. eigenvalues --   -0.60264  -0.59784  -0.58784  -0.58561  -0.57964
 Alpha  occ. eigenvalues --   -0.57301  -0.56430  -0.55861  -0.55680  -0.54546
 Alpha  occ. eigenvalues --   -0.54144  -0.53583  -0.53459  -0.52840  -0.52258
 Alpha  occ. eigenvalues --   -0.52094  -0.51226  -0.50856  -0.50155  -0.49817
 Alpha  occ. eigenvalues --   -0.49621  -0.49338  -0.48967  -0.48665  -0.48245
 Alpha  occ. eigenvalues --   -0.48068  -0.48019  -0.47750  -0.47626  -0.47353
 Alpha  occ. eigenvalues --   -0.47094  -0.46760  -0.46578  -0.46342  -0.46223
 Alpha  occ. eigenvalues --   -0.46010  -0.45814  -0.45676  -0.45632  -0.45482
 Alpha  occ. eigenvalues --   -0.45307  -0.45177  -0.44984  -0.44770  -0.44452
 Alpha  occ. eigenvalues --   -0.44027  -0.43944  -0.43635  -0.43442  -0.43389
 Alpha  occ. eigenvalues --   -0.43243  -0.42963  -0.42818  -0.42210  -0.42137
 Alpha  occ. eigenvalues --   -0.41943  -0.41849  -0.41663  -0.41472  -0.41255
 Alpha  occ. eigenvalues --   -0.41180  -0.41077  -0.40882  -0.40672  -0.40447
 Alpha  occ. eigenvalues --   -0.40370  -0.40304  -0.39942  -0.39557  -0.39431
 Alpha  occ. eigenvalues --   -0.39342  -0.39139  -0.39107  -0.38822  -0.38513
 Alpha  occ. eigenvalues --   -0.38279  -0.38238  -0.38166  -0.37926  -0.37861
 Alpha  occ. eigenvalues --   -0.37601  -0.37361  -0.37251  -0.37159  -0.36764
 Alpha  occ. eigenvalues --   -0.36607  -0.36281  -0.36245  -0.36191  -0.36099
 Alpha  occ. eigenvalues --   -0.35684  -0.35308  -0.35124  -0.35054  -0.34656
 Alpha  occ. eigenvalues --   -0.34629  -0.34336  -0.34049  -0.33676  -0.33518
 Alpha  occ. eigenvalues --   -0.33305  -0.33236  -0.32900  -0.32199  -0.32059
 Alpha  occ. eigenvalues --   -0.31827  -0.31736  -0.31606  -0.31235  -0.31164
 Alpha  occ. eigenvalues --   -0.30740  -0.30664  -0.30505  -0.29372  -0.29128
 Alpha  occ. eigenvalues --   -0.28978  -0.28854  -0.27888  -0.26580  -0.25753
 Alpha  occ. eigenvalues --   -0.25544  -0.25202  -0.24993  -0.24916  -0.20626
 Alpha  occ. eigenvalues --   -0.18574
 Alpha virt. eigenvalues --   -0.11072  -0.04903  -0.03611  -0.01790  -0.01276
 Alpha virt. eigenvalues --   -0.00253   0.00479   0.00621   0.01994   0.03434
 Alpha virt. eigenvalues --    0.04063   0.04744   0.04892   0.05659   0.05873

 Mulliken charges:
               1
     1  Mg   0.974260
     2  C    0.097846
     3  C   -0.085396
     4  C   -0.025761
     5  C   -0.076847
     6  N   -0.332191
     7  C   -0.024293
     8  C   -0.093462
     9  C   -0.153841
    10  C    0.094958
    11  C    0.023997
    12  C    0.026444
    13  C    0.007124
    14  C    0.269587
    15  O   -0.314296
    16  O   -0.416730
    17  N   -0.454774
    18  C    0.141864
    19  C   -0.188194
    20  C   -0.066660
    21  C    0.196987
    22  C    0.047278
    23  C    0.060315
    24  O   -0.251869
    25  C   -0.008582
    26  N   -0.470145
    27  C   -0.013282
    28  C   -0.066868
    29  C   -0.145861
    30  C    0.126372
    31  C    0.004834
    32  C   -0.035810
    33  C   -0.039851
    34  N   -0.480173
    35  C    0.126510
    36  C   -0.155928
    37  C   -0.087165
    38  C    0.082948
    39  C    0.071996
    40  C    0.143240
    41  O   -0.166083
    42  C   -0.146300
    43  C    0.283024
    44  O   -0.265998
    45  O   -0.400430
    46  C    0.121270
    47  C    0.258255
    48  C   -0.121783
    49  C   -0.264346
    50  C    0.030198
    51  C   -0.030789
    52  C    0.018660
    53  C   -0.034941
    54  C   -0.216515
    55  C   -0.001573
    56  C    0.000166
    57  C   -0.095164
    58  C    0.038466
    59  C   -0.240740
    60  C    0.000472
    61  C   -0.020081
    62  C   -0.039507
    63  C   -0.015212
    64  C   -0.247679
    65  C   -0.022321
    66  C   -0.018657
    67  H    0.015212
    68  H    0.017603
    69  H   -0.023779
    70  H    0.059616
    71  H    0.039044
    72  H    0.053920
    73  H    0.037350
    74  H    0.051246
    75  H    0.031331
    76  H    0.065321
    77  H    0.060640
    78  H    0.086248
    79  H    0.033368
    80  H    0.065562
    81  H    0.064317
    82  H    0.032775
    83  H    0.072567
    84  H    0.074044
    85  H    0.057782
    86  H    0.056050
    87  H    0.060497
    88  H    0.039230
    89  H    0.051781
    90  H    0.030182
    91  H    0.030328
    92  H    0.052845
    93  H    0.039955
    94  H    0.042569
    95  H    0.054572
    96  H    0.065309
    97  H    0.042880
    98  H    0.096765
    99  H    0.066692
   100  H    0.058355
   101  H    0.063164
   102  H    0.065424
   103  H    0.060270
   104  H    0.036723
   105  H    0.037780
   106  H    0.061648
   107  H    0.060820
   108  H    0.040960
   109  H    0.028678
   110  H    0.038230
   111  H    0.032530
   112  H    0.027414
   113  H    0.025065
   114  H    0.022423
   115  H    0.033291
   116  H    0.042138
   117  H    0.044254
   118  H    0.025092
   119  H    0.014297
   120  H    0.021973
   121  H    0.039655
   122  H    0.032089
   123  H    0.026091
   124  H    0.031989
   125  H    0.020125
   126  H    0.032415
   127  H    0.034323
   128  H    0.033780
   129  H    0.034736
   130  H    0.028585
   131  H    0.011286
   132  H    0.027387
   133  H    0.030587
   134  H    0.042253
   135  H    0.032856
   136  H    0.037406
   137  H    0.015660
   138  H    0.037659
   139  H    0.042748
   140  H    0.033044
 Sum of Mulliken charges =  -0.00000

 Dipole moment (field-independent basis, Debye):
    X=              3.8675    Y=              3.5054    Z=             -2.3481  Tot=              5.7236
 Quadrupole moment (field-independent basis, Debye-Ang):
   XX=           -373.0906   YY=           -426.6311   ZZ=           -404.6580
   XY=            -28.2900   XZ=              2.8313   YZ=             -0.7770

 Normal termination of Gaussian 16 at Fri Apr 29 00:31:38 2022.
