 Gaussian 16, Revision A.03,
 Gaussian 16:  ES64L-G16RevA.03 25-Dec-2016

 --------------------------------
 #p wB97XD/Def2SVP td=(nstates=5)
 --------------------------------

 -----------------------------------------------------
 step_1801_chromophore_15 TDDFT with wB97XD functional
 -----------------------------------------------------
 Symbolic Z-matrix:
 Charge =  0 Multiplicity = 1

                         Standard orientation:
 ---------------------------------------------------------------------
 Center     Atomic      Atomic             Coordinates (Angstroms)
 Number     Number       Type             X           Y           Z
 ---------------------------------------------------------------------
      1         12           0       -4.976790    0.894103    0.056359
      2          6           0       -4.110115   -2.434494    0.573339
      3          6           0       -1.476394    1.584035   -0.268757
      4          6           0       -5.635843    4.172760   -0.106469
      5          6           0       -8.207736    0.235143    0.733744
      6          7           0       -3.026537   -0.281958    0.210381
      7          6           0       -3.009089   -1.657761    0.235815
      8          6           0       -1.673519   -2.159148   -0.283623
      9          6           0       -0.775806   -0.896233   -0.087292
     10          6           0       -1.814125    0.217562    0.064003
     11          6           0        0.331212   -0.862192    1.099391
     12          6           0       -1.633674   -2.715123   -1.741204
     13          6           0       -0.512954   -3.599712   -2.145101
     14          6           0        0.750886   -3.870521   -1.328475
     15          8           0        0.786488   -4.213525   -0.096139
     16          8           0        1.949280   -3.626358   -2.088652
     17          7           0       -3.692899    2.667856    0.025180
     18          6           0       -2.352372    2.714815   -0.268529
     19          6           0       -1.939975    4.086764   -0.410947
     20          6           0       -3.129039    4.869340   -0.324351
     21          6           0       -4.251728    3.922123   -0.126807
     22          6           0       -0.510677    4.504883   -0.549737
     23          6           0       -3.320075    6.442152   -0.459326
     24          8           0       -4.441089    6.940724   -0.299388
     25          6           0       -2.200296    7.421521   -0.749492
     26          7           0       -6.678261    1.983732    0.139271
     27          6           0       -6.760885    3.390372    0.074722
     28          6           0       -8.266192    3.804933    0.023013
     29          6           0       -9.043444    2.526089    0.407542
     30          6           0       -7.939488    1.500084    0.323387
     31          6           0       -8.552724    5.059233    0.857098
     32          6           0      -10.227853    2.244113   -0.612877
     33          6           0      -11.265327    1.370201   -0.077703
     34          7           0       -6.016658   -0.771486    0.585062
     35          6           0       -7.375441   -0.912566    0.817630
     36          6           0       -7.732449   -2.265275    1.067964
     37          6           0       -6.481433   -2.911781    0.934690
     38          6           0       -5.456897   -1.947545    0.677351
     39          6           0       -9.163523   -2.821294    1.369486
     40          6           0       -5.792767   -4.152190    1.159843
     41          8           0       -6.223680   -5.193656    1.513660
     42          6           0       -4.299742   -3.780995    1.018634
     43          6           0       -3.564610   -4.822494    0.320065
     44          8           0       -3.653574   -5.184620   -0.843609
     45          8           0       -2.919324   -5.544104    1.328230
     46          6           0       -2.195256   -6.803162    0.973061
     47          6           0        3.282177   -3.775772   -1.411138
     48          6           0        4.281584   -3.004686   -2.163714
     49          6           0        5.615890   -3.151957   -2.200007
     50          6           0        6.478488   -3.830998   -1.164004
     51          6           0        6.310367   -2.141309   -3.143075
     52          6           0        6.263899   -0.682524   -2.595703
     53          6           0        7.597306   -0.172596   -2.145823
     54          6           0        8.217261    1.010936   -2.951492
     55          6           0        8.972931    0.609849   -4.224695
     56          6           0        9.135721    1.907825   -2.047549
     57          6           0       10.183990    1.150084   -1.232977
     58          6           0       11.463866    2.002696   -0.940032
     59          6           0       11.381476    2.684676    0.439435
     60          6           0       11.598958    4.207998    0.388105
     61          6           0       12.374176    2.046885    1.596756
     62          6           0       12.009766    0.632315    2.046802
     63          6           0       10.752414    0.445285    2.949519
     64          6           0       11.153360   -0.131258    4.334946
     65          6           0        9.874015   -0.594522    5.121727
     66          6           0       11.977325    0.871349    5.210460
     67          1           0       -0.454115    1.779144   -0.598872
     68          1           0       -6.154867    5.131637   -0.170570
     69          1           0       -9.286896    0.077940    0.784154
     70          1           0       -1.395713   -2.915185    0.451595
     71          1           0       -0.367289   -0.645018   -1.066223
     72          1           0        0.084103   -1.750517    1.679504
     73          1           0        0.112740   -0.000626    1.731819
     74          1           0        1.402316   -0.805938    0.908245
     75          1           0       -1.568056   -1.893264   -2.454093
     76          1           0       -2.572861   -3.229455   -1.944937
     77          1           0       -0.183327   -3.146148   -3.080065
     78          1           0       -1.022148   -4.559038   -2.238189
     79          1           0       -0.350230    5.546077   -0.270432
     80          1           0       -0.375409    4.506526   -1.631020
     81          1           0        0.225299    3.979793    0.058690
     82          1           0       -1.348384    6.963190   -1.250313
     83          1           0       -1.779195    7.681032    0.221752
     84          1           0       -2.620850    8.246438   -1.325257
     85          1           0       -8.471971    4.034153   -1.021983
     86          1           0       -9.399747    2.438116    1.435041
     87          1           0       -7.812930    5.209222    1.642280
     88          1           0       -9.534845    5.041134    1.329029
     89          1           0       -8.563665    5.876300    0.135061
     90          1           0       -9.863031    1.876766   -1.571988
     91          1           0      -10.711356    3.145562   -0.990949
     92          1           0      -11.055143    0.364869   -0.443490
     93          1           0      -12.242571    1.691822   -0.438844
     94          1           0      -11.255134    1.343082    1.011189
     95          1           0       -9.428366   -2.625940    2.408820
     96          1           0       -9.154340   -3.892365    1.166307
     97          1           0       -9.960735   -2.357002    0.788983
     98          1           0       -3.923302   -3.803393    2.040818
     99          1           0       -1.973993   -7.385264    1.867806
    100          1           0       -1.305662   -6.386902    0.500693
    101          1           0       -2.704263   -7.448537    0.256614
    102          1           0        3.423419   -4.851030   -1.296701
    103          1           0        3.247032   -3.319734   -0.421510
    104          1           0        3.866174   -2.385332   -2.959503
    105          1           0        5.732414   -4.306775   -0.527086
    106          1           0        6.979346   -3.012768   -0.646547
    107          1           0        7.152061   -4.538965   -1.646711
    108          1           0        5.825243   -2.204984   -4.117464
    109          1           0        7.293351   -2.603135   -3.239237
    110          1           0        5.692381   -0.568519   -1.674799
    111          1           0        5.785091   -0.104531   -3.385828
    112          1           0        8.304909   -0.997062   -2.233610
    113          1           0        7.534439    0.175087   -1.114921
    114          1           0        7.401057    1.660426   -3.268930
    115          1           0        8.416303   -0.259657   -4.574323
    116          1           0       10.012741    0.335995   -4.049257
    117          1           0        8.820662    1.495182   -4.840829
    118          1           0        8.519773    2.536410   -1.405611
    119          1           0        9.729653    2.553518   -2.694771
    120          1           0       10.562594    0.298137   -1.796951
    121          1           0        9.749742    0.767701   -0.309749
    122          1           0       11.691115    2.796666   -1.650382
    123          1           0       12.228002    1.226054   -0.914281
    124          1           0       10.370260    2.573141    0.831704
    125          1           0       12.289698    4.499269    1.178374
    126          1           0       10.682698    4.731228    0.661506
    127          1           0       12.027646    4.597799   -0.534888
    128          1           0       12.318534    2.631622    2.515174
    129          1           0       13.337969    2.050350    1.089120
    130          1           0       12.844420    0.085539    2.486594
    131          1           0       11.783686    0.071542    1.140368
    132          1           0       10.090469   -0.246639    2.429379
    133          1           0       10.212918    1.392013    2.955098
    134          1           0       11.790619   -1.013906    4.279107
    135          1           0        9.773198   -0.211689    6.136559
    136          1           0        9.700857   -1.660848    4.978135
    137          1           0        8.943467   -0.213173    4.703175
    138          1           0       13.046368    0.707197    5.077235
    139          1           0       11.639373    0.775681    6.242756
    140          1           0       11.819680    1.878586    4.824249
 ---------------------------------------------------------------------

 SCF Done:  E(RwB97XD) =  -3007.82607127     A.U. after   19 cycles

 Excitation energies and oscillator strengths:

 Excited State   1:      Singlet-A      1.6631 eV  745.50 nm  f=0.3639  <S**2>=0.000
     245 -> 248       -0.17023
     246 -> 247        0.68662
     245 <- 248       -0.11029
 This state for optimization and/or second-order correction.
 Total Energy, E(TD-HF/TD-DFT) =  -3007.76495359
 Copying the excited state density for this state as the 1-particle RhoCI density.

 Excited State   2:      Singlet-A      2.1363 eV  580.38 nm  f=0.1420  <S**2>=0.000
     245 -> 247        0.64507
     246 -> 248        0.27037

 Excited State   3:      Singlet-A      3.3048 eV  375.16 nm  f=0.0039  <S**2>=0.000
     239 -> 247       -0.12855
     241 -> 247        0.45104
     242 -> 247       -0.25390
     244 -> 247       -0.42043
     246 -> 248       -0.12288

 Excited State   4:      Singlet-A      3.5129 eV  352.94 nm  f=0.2857  <S**2>=0.000
     241 -> 247       -0.19449
     244 -> 247       -0.37737
     245 -> 247       -0.18457
     246 -> 248        0.51092

 Excited State   5:      Singlet-A      3.6187 eV  342.62 nm  f=0.0183  <S**2>=0.000
     239 -> 247        0.24113
     239 -> 249       -0.20802
     240 -> 247        0.45221
     240 -> 248       -0.11018
     240 -> 249       -0.31264
     240 -> 251        0.11279
     242 -> 247       -0.13406

 The electronic state is 1-A.
 Alpha  occ. eigenvalues --  -46.94391 -19.30248 -19.28827 -19.25671 -19.24677
 Alpha  occ. eigenvalues --  -19.24308 -19.22974 -14.46604 -14.45626 -14.44138
 Alpha  occ. eigenvalues --  -14.42792 -10.44842 -10.42352 -10.40117 -10.37365
 Alpha  occ. eigenvalues --  -10.36138 -10.35417 -10.35344 -10.35046 -10.34496
 Alpha  occ. eigenvalues --  -10.34449 -10.34444 -10.33242 -10.32880 -10.32445
 Alpha  occ. eigenvalues --  -10.32242 -10.32053 -10.31922 -10.31879 -10.31634
 Alpha  occ. eigenvalues --  -10.31612 -10.31540 -10.31502 -10.31475 -10.31422
 Alpha  occ. eigenvalues --  -10.31209 -10.30856 -10.30801 -10.30742 -10.30560
 Alpha  occ. eigenvalues --  -10.30427 -10.30243 -10.30062 -10.29937 -10.29913
 Alpha  occ. eigenvalues --  -10.29861 -10.29859 -10.29816 -10.29659 -10.29496
 Alpha  occ. eigenvalues --  -10.29456 -10.29382 -10.29365 -10.29124 -10.29015
 Alpha  occ. eigenvalues --  -10.29010 -10.28935 -10.28816 -10.28778 -10.28735
 Alpha  occ. eigenvalues --  -10.28599 -10.28497 -10.28375 -10.28169 -10.28082
 Alpha  occ. eigenvalues --  -10.27788  -3.20435  -1.94026  -1.93548  -1.93418
 Alpha  occ. eigenvalues --   -1.16618  -1.15228  -1.13316  -1.11871  -1.08824
 Alpha  occ. eigenvalues --   -1.07830  -1.06628  -1.05507  -1.04845  -1.03909
 Alpha  occ. eigenvalues --   -0.95495  -0.92994  -0.91799  -0.91473  -0.91294
 Alpha  occ. eigenvalues --   -0.90512  -0.90435  -0.89255  -0.89030  -0.88656
 Alpha  occ. eigenvalues --   -0.87366  -0.87105  -0.86323  -0.85962  -0.85101
 Alpha  occ. eigenvalues --   -0.84407  -0.84119  -0.83359  -0.82954  -0.82330
 Alpha  occ. eigenvalues --   -0.82188  -0.80216  -0.79566  -0.79306  -0.78618
 Alpha  occ. eigenvalues --   -0.77573  -0.77194  -0.76933  -0.76789  -0.76205
 Alpha  occ. eigenvalues --   -0.75461  -0.74895  -0.73257  -0.72270  -0.70765
 Alpha  occ. eigenvalues --   -0.70488  -0.70289  -0.69059  -0.68835  -0.67973
 Alpha  occ. eigenvalues --   -0.67753  -0.67264  -0.66292  -0.65908  -0.65650
 Alpha  occ. eigenvalues --   -0.64751  -0.64101  -0.63526  -0.62998  -0.62176
 Alpha  occ. eigenvalues --   -0.61659  -0.60981  -0.60773  -0.60238  -0.59630
 Alpha  occ. eigenvalues --   -0.59446  -0.58695  -0.58256  -0.57623  -0.57250
 Alpha  occ. eigenvalues --   -0.56918  -0.56717  -0.56314  -0.56181  -0.55712
 Alpha  occ. eigenvalues --   -0.55481  -0.55350  -0.55195  -0.54995  -0.54829
 Alpha  occ. eigenvalues --   -0.54693  -0.54203  -0.54032  -0.53654  -0.53642
 Alpha  occ. eigenvalues --   -0.53362  -0.53208  -0.53145  -0.53020  -0.52904
 Alpha  occ. eigenvalues --   -0.52709  -0.52365  -0.52177  -0.52123  -0.51849
 Alpha  occ. eigenvalues --   -0.51430  -0.51203  -0.50961  -0.50722  -0.50713
 Alpha  occ. eigenvalues --   -0.50490  -0.50290  -0.50144  -0.49699  -0.49512
 Alpha  occ. eigenvalues --   -0.49196  -0.49061  -0.49002  -0.48678  -0.48547
 Alpha  occ. eigenvalues --   -0.48466  -0.48284  -0.48155  -0.47768  -0.47646
 Alpha  occ. eigenvalues --   -0.47589  -0.47460  -0.46997  -0.46713  -0.46652
 Alpha  occ. eigenvalues --   -0.46451  -0.46374  -0.46155  -0.46009  -0.45629
 Alpha  occ. eigenvalues --   -0.45529  -0.45402  -0.45225  -0.45056  -0.44868
 Alpha  occ. eigenvalues --   -0.44734  -0.44457  -0.44400  -0.44271  -0.43865
 Alpha  occ. eigenvalues --   -0.43749  -0.43545  -0.43413  -0.43317  -0.43108
 Alpha  occ. eigenvalues --   -0.42689  -0.42453  -0.42245  -0.42087  -0.41764
 Alpha  occ. eigenvalues --   -0.41575  -0.41203  -0.41104  -0.40733  -0.40506
 Alpha  occ. eigenvalues --   -0.40289  -0.40281  -0.39943  -0.39232  -0.38946
 Alpha  occ. eigenvalues --   -0.38855  -0.38768  -0.38686  -0.38157  -0.38084
 Alpha  occ. eigenvalues --   -0.37736  -0.37623  -0.37486  -0.36282  -0.36045
 Alpha  occ. eigenvalues --   -0.35924  -0.35853  -0.34543  -0.33229  -0.33181
 Alpha  occ. eigenvalues --   -0.32255  -0.31904  -0.31671  -0.31355  -0.25665
 Alpha  occ. eigenvalues --   -0.22825
 Alpha virt. eigenvalues --   -0.06947   0.00593   0.02605   0.05047   0.05338
 Alpha virt. eigenvalues --    0.05762   0.07291   0.07319   0.08588   0.09979
 Alpha virt. eigenvalues --    0.10277   0.11487   0.11671   0.12425   0.12613

 Mulliken charges:
               1
     1  Mg   0.963575
     2  C    0.101831
     3  C   -0.105982
     4  C   -0.042518
     5  C   -0.081384
     6  N   -0.296101
     7  C   -0.063567
     8  C   -0.064174
     9  C   -0.126287
    10  C    0.078857
    11  C    0.034961
    12  C    0.035427
    13  C    0.022324
    14  C    0.257412
    15  O   -0.310668
    16  O   -0.416210
    17  N   -0.425817
    18  C    0.138010
    19  C   -0.172023
    20  C   -0.061662
    21  C    0.198018
    22  C    0.057794
    23  C    0.055948
    24  O   -0.244827
    25  C    0.002079
    26  N   -0.442415
    27  C   -0.019986
    28  C   -0.041687
    29  C   -0.109421
    30  C    0.104428
    31  C    0.013161
    32  C   -0.027201
    33  C   -0.021724
    34  N   -0.437888
    35  C    0.117055
    36  C   -0.162463
    37  C   -0.081325
    38  C    0.057246
    39  C    0.084545
    40  C    0.125351
    41  O   -0.158587
    42  C   -0.104606
    43  C    0.254356
    44  O   -0.257325
    45  O   -0.398775
    46  C    0.136708
    47  C    0.265999
    48  C   -0.127204
    49  C   -0.252413
    50  C    0.047009
    51  C   -0.009689
    52  C    0.030406
    53  C   -0.015719
    54  C   -0.189058
    55  C    0.012092
    56  C    0.016427
    57  C   -0.072631
    58  C    0.052663
    59  C   -0.214968
    60  C    0.012039
    61  C    0.004923
    62  C   -0.022011
    63  C   -0.002692
    64  C   -0.217188
    65  C   -0.010911
    66  C   -0.006057
    67  H    0.011227
    68  H    0.009268
    69  H   -0.043460
    70  H    0.042945
    71  H    0.026185
    72  H    0.049285
    73  H    0.030590
    74  H    0.047473
    75  H    0.022157
    76  H    0.057458
    77  H    0.056187
    78  H    0.081441
    79  H    0.028152
    80  H    0.062282
    81  H    0.063100
    82  H    0.026813
    83  H    0.069402
    84  H    0.074289
    85  H    0.048175
    86  H    0.044660
    87  H    0.054665
    88  H    0.034952
    89  H    0.046625
    90  H    0.022573
    91  H    0.020886
    92  H    0.045911
    93  H    0.035416
    94  H    0.035509
    95  H    0.048088
    96  H    0.060631
    97  H    0.035763
    98  H    0.088756
    99  H    0.063563
   100  H    0.053971
   101  H    0.059421
   102  H    0.061892
   103  H    0.055088
   104  H    0.032643
   105  H    0.031155
   106  H    0.054207
   107  H    0.056318
   108  H    0.033808
   109  H    0.018657
   110  H    0.029478
   111  H    0.025911
   112  H    0.013726
   113  H    0.015866
   114  H    0.011120
   115  H    0.024097
   116  H    0.035912
   117  H    0.038662
   118  H    0.017339
   119  H    0.003202
   120  H    0.011742
   121  H    0.025554
   122  H    0.022980
   123  H    0.017306
   124  H    0.015139
   125  H    0.013697
   126  H    0.027276
   127  H    0.028819
   128  H    0.020434
   129  H    0.026281
   130  H    0.020315
   131  H   -0.001578
   132  H    0.019455
   133  H    0.020247
   134  H    0.032137
   135  H    0.027231
   136  H    0.032155
   137  H    0.008638
   138  H    0.032055
   139  H    0.036872
   140  H    0.024323
 Sum of Mulliken charges =  -0.00000

 Dipole moment (field-independent basis, Debye):
    X=              4.5676    Y=              4.3013    Z=             -2.4937  Tot=              6.7515
 Quadrupole moment (field-independent basis, Debye-Ang):
   XX=           -379.4598   YY=           -423.4187   ZZ=           -404.3896
   XY=            -30.7171   XZ=              3.7847   YZ=             -0.8561

 Normal termination of Gaussian 16 at Fri Apr 29 01:03:58 2022.
