 Gaussian 16, Revision A.03,
 Gaussian 16:  ES64L-G16RevA.03 25-Dec-2016

 --------------------
 #p ZINDO=(nstates=5)
 --------------------

 ------------------------------
 step_1801_chromophore_15 ZINDO
 ------------------------------
 Symbolic Z-matrix:
 Charge =  0 Multiplicity = 1

                         Standard orientation:
 ---------------------------------------------------------------------
 Center     Atomic      Atomic             Coordinates (Angstroms)
 Number     Number       Type             X           Y           Z
 ---------------------------------------------------------------------
      1         12           0       -4.976790    0.894103    0.056359
      2          6           0       -4.110115   -2.434494    0.573339
      3          6           0       -1.476394    1.584035   -0.268757
      4          6           0       -5.635843    4.172760   -0.106469
      5          6           0       -8.207736    0.235143    0.733744
      6          7           0       -3.026537   -0.281958    0.210381
      7          6           0       -3.009089   -1.657761    0.235815
      8          6           0       -1.673519   -2.159148   -0.283623
      9          6           0       -0.775806   -0.896233   -0.087292
     10          6           0       -1.814125    0.217562    0.064003
     11          6           0        0.331212   -0.862192    1.099391
     12          6           0       -1.633674   -2.715123   -1.741204
     13          6           0       -0.512954   -3.599712   -2.145101
     14          6           0        0.750886   -3.870521   -1.328475
     15          8           0        0.786488   -4.213525   -0.096139
     16          8           0        1.949280   -3.626358   -2.088652
     17          7           0       -3.692899    2.667856    0.025180
     18          6           0       -2.352372    2.714815   -0.268529
     19          6           0       -1.939975    4.086764   -0.410947
     20          6           0       -3.129039    4.869340   -0.324351
     21          6           0       -4.251728    3.922123   -0.126807
     22          6           0       -0.510677    4.504883   -0.549737
     23          6           0       -3.320075    6.442152   -0.459326
     24          8           0       -4.441089    6.940724   -0.299388
     25          6           0       -2.200296    7.421521   -0.749492
     26          7           0       -6.678261    1.983732    0.139271
     27          6           0       -6.760885    3.390372    0.074722
     28          6           0       -8.266192    3.804933    0.023013
     29          6           0       -9.043444    2.526089    0.407542
     30          6           0       -7.939488    1.500084    0.323387
     31          6           0       -8.552724    5.059233    0.857098
     32          6           0      -10.227853    2.244113   -0.612877
     33          6           0      -11.265327    1.370201   -0.077703
     34          7           0       -6.016658   -0.771486    0.585062
     35          6           0       -7.375441   -0.912566    0.817630
     36          6           0       -7.732449   -2.265275    1.067964
     37          6           0       -6.481433   -2.911781    0.934690
     38          6           0       -5.456897   -1.947545    0.677351
     39          6           0       -9.163523   -2.821294    1.369486
     40          6           0       -5.792767   -4.152190    1.159843
     41          8           0       -6.223680   -5.193656    1.513660
     42          6           0       -4.299742   -3.780995    1.018634
     43          6           0       -3.564610   -4.822494    0.320065
     44          8           0       -3.653574   -5.184620   -0.843609
     45          8           0       -2.919324   -5.544104    1.328230
     46          6           0       -2.195256   -6.803162    0.973061
     47          6           0        3.282177   -3.775772   -1.411138
     48          6           0        4.281584   -3.004686   -2.163714
     49          6           0        5.615890   -3.151957   -2.200007
     50          6           0        6.478488   -3.830998   -1.164004
     51          6           0        6.310367   -2.141309   -3.143075
     52          6           0        6.263899   -0.682524   -2.595703
     53          6           0        7.597306   -0.172596   -2.145823
     54          6           0        8.217261    1.010936   -2.951492
     55          6           0        8.972931    0.609849   -4.224695
     56          6           0        9.135721    1.907825   -2.047549
     57          6           0       10.183990    1.150084   -1.232977
     58          6           0       11.463866    2.002696   -0.940032
     59          6           0       11.381476    2.684676    0.439435
     60          6           0       11.598958    4.207998    0.388105
     61          6           0       12.374176    2.046885    1.596756
     62          6           0       12.009766    0.632315    2.046802
     63          6           0       10.752414    0.445285    2.949519
     64          6           0       11.153360   -0.131258    4.334946
     65          6           0        9.874015   -0.594522    5.121727
     66          6           0       11.977325    0.871349    5.210460
     67          1           0       -0.454115    1.779144   -0.598872
     68          1           0       -6.154867    5.131637   -0.170570
     69          1           0       -9.286896    0.077940    0.784154
     70          1           0       -1.395713   -2.915185    0.451595
     71          1           0       -0.367289   -0.645018   -1.066223
     72          1           0        0.084103   -1.750517    1.679504
     73          1           0        0.112740   -0.000626    1.731819
     74          1           0        1.402316   -0.805938    0.908245
     75          1           0       -1.568056   -1.893264   -2.454093
     76          1           0       -2.572861   -3.229455   -1.944937
     77          1           0       -0.183327   -3.146148   -3.080065
     78          1           0       -1.022148   -4.559038   -2.238189
     79          1           0       -0.350230    5.546077   -0.270432
     80          1           0       -0.375409    4.506526   -1.631020
     81          1           0        0.225299    3.979793    0.058690
     82          1           0       -1.348384    6.963190   -1.250313
     83          1           0       -1.779195    7.681032    0.221752
     84          1           0       -2.620850    8.246438   -1.325257
     85          1           0       -8.471971    4.034153   -1.021983
     86          1           0       -9.399747    2.438116    1.435041
     87          1           0       -7.812930    5.209222    1.642280
     88          1           0       -9.534845    5.041134    1.329029
     89          1           0       -8.563665    5.876300    0.135061
     90          1           0       -9.863031    1.876766   -1.571988
     91          1           0      -10.711356    3.145562   -0.990949
     92          1           0      -11.055143    0.364869   -0.443490
     93          1           0      -12.242571    1.691822   -0.438844
     94          1           0      -11.255134    1.343082    1.011189
     95          1           0       -9.428366   -2.625940    2.408820
     96          1           0       -9.154340   -3.892365    1.166307
     97          1           0       -9.960735   -2.357002    0.788983
     98          1           0       -3.923302   -3.803393    2.040818
     99          1           0       -1.973993   -7.385264    1.867806
    100          1           0       -1.305662   -6.386902    0.500693
    101          1           0       -2.704263   -7.448537    0.256614
    102          1           0        3.423419   -4.851030   -1.296701
    103          1           0        3.247032   -3.319734   -0.421510
    104          1           0        3.866174   -2.385332   -2.959503
    105          1           0        5.732414   -4.306775   -0.527086
    106          1           0        6.979346   -3.012768   -0.646547
    107          1           0        7.152061   -4.538965   -1.646711
    108          1           0        5.825243   -2.204984   -4.117464
    109          1           0        7.293351   -2.603135   -3.239237
    110          1           0        5.692381   -0.568519   -1.674799
    111          1           0        5.785091   -0.104531   -3.385828
    112          1           0        8.304909   -0.997062   -2.233610
    113          1           0        7.534439    0.175087   -1.114921
    114          1           0        7.401057    1.660426   -3.268930
    115          1           0        8.416303   -0.259657   -4.574323
    116          1           0       10.012741    0.335995   -4.049257
    117          1           0        8.820662    1.495182   -4.840829
    118          1           0        8.519773    2.536410   -1.405611
    119          1           0        9.729653    2.553518   -2.694771
    120          1           0       10.562594    0.298137   -1.796951
    121          1           0        9.749742    0.767701   -0.309749
    122          1           0       11.691115    2.796666   -1.650382
    123          1           0       12.228002    1.226054   -0.914281
    124          1           0       10.370260    2.573141    0.831704
    125          1           0       12.289698    4.499269    1.178374
    126          1           0       10.682698    4.731228    0.661506
    127          1           0       12.027646    4.597799   -0.534888
    128          1           0       12.318534    2.631622    2.515174
    129          1           0       13.337969    2.050350    1.089120
    130          1           0       12.844420    0.085539    2.486594
    131          1           0       11.783686    0.071542    1.140368
    132          1           0       10.090469   -0.246639    2.429379
    133          1           0       10.212918    1.392013    2.955098
    134          1           0       11.790619   -1.013906    4.279107
    135          1           0        9.773198   -0.211689    6.136559
    136          1           0        9.700857   -1.660848    4.978135
    137          1           0        8.943467   -0.213173    4.703175
    138          1           0       13.046368    0.707197    5.077235
    139          1           0       11.639373    0.775681    6.242756
    140          1           0       11.819680    1.878586    4.824249
 ---------------------------------------------------------------------

 SCF Done:  E(RZINDO/S) =  -474.226247002     A.U. after   19 cycles

 Excitation energies and oscillator strengths:

 Excited State   1:      Singlet-A      1.2982 eV  955.01 nm  f=0.5538  <S**2>=0.000
     175 ->178         0.16821
     176 ->177         0.66983
 This state for optimization and/or second-order correction.
 Total Energy, E(CIS/TDA) =  -474.178537400
 Copying the excited state density for this state as the 1-particle RhoCI density.

 Excited State   2:      Singlet-A      1.9057 eV  650.59 nm  f=0.0706  <S**2>=0.000
     175 ->177         0.56129
     176 ->178        -0.39511

 Excited State   3:      Singlet-A      2.9700 eV  417.45 nm  f=0.8562  <S**2>=0.000
     170 ->177         0.10110
     175 ->177         0.35082
     176 ->178         0.52871
     176 ->179        -0.17439
     176 ->181        -0.12209

 Excited State   4:      Singlet-A      3.0089 eV  412.06 nm  f=0.0007  <S**2>=0.000
     167 ->177        -0.11810
     167 ->179         0.21554
     167 ->181        -0.10033
     167 ->186         0.10725
     168 ->177        -0.25877
     168 ->179         0.43045
     168 ->181        -0.18368
     168 ->186         0.21796

 Excited State   5:      Singlet-A      3.0462 eV  407.01 nm  f=0.0469  <S**2>=0.000
     170 ->181         0.11286
     171 ->177         0.31528
     171 ->178        -0.15262
     171 ->179         0.20171
     171 ->181         0.29576
     171 ->183        -0.11919
     171 ->186         0.17729
     171 ->188         0.19609
     176 ->179        -0.12483

 The electronic state is 1-A.
 Alpha  occ. eigenvalues --   -1.85695  -1.81058  -1.79884  -1.72323  -1.70905
 Alpha  occ. eigenvalues --   -1.67010  -1.65713  -1.61131  -1.58950  -1.58114
 Alpha  occ. eigenvalues --   -1.55564  -1.51366  -1.49712  -1.48980  -1.48539
 Alpha  occ. eigenvalues --   -1.44168  -1.41317  -1.40848  -1.39838  -1.37600
 Alpha  occ. eigenvalues --   -1.35342  -1.32559  -1.31993  -1.30372  -1.29120
 Alpha  occ. eigenvalues --   -1.28194  -1.25082  -1.22278  -1.21076  -1.18884
 Alpha  occ. eigenvalues --   -1.17783  -1.17235  -1.15686  -1.14980  -1.13410
 Alpha  occ. eigenvalues --   -1.12370  -1.10836  -1.10245  -1.05205  -1.03308
 Alpha  occ. eigenvalues --   -1.02149  -1.01590  -0.98057  -0.97958  -0.97688
 Alpha  occ. eigenvalues --   -0.97098  -0.95141  -0.94309  -0.92733  -0.91094
 Alpha  occ. eigenvalues --   -0.90312  -0.90109  -0.87897  -0.87352  -0.85704
 Alpha  occ. eigenvalues --   -0.85285  -0.84325  -0.83439  -0.81551  -0.80066
 Alpha  occ. eigenvalues --   -0.79458  -0.78106  -0.77442  -0.76319  -0.75999
 Alpha  occ. eigenvalues --   -0.75209  -0.74453  -0.74051  -0.73897  -0.73353
 Alpha  occ. eigenvalues --   -0.73268  -0.72622  -0.72262  -0.71055  -0.70742
 Alpha  occ. eigenvalues --   -0.70568  -0.69544  -0.69202  -0.67948  -0.67445
 Alpha  occ. eigenvalues --   -0.67316  -0.66810  -0.66492  -0.66291  -0.66192
 Alpha  occ. eigenvalues --   -0.65896  -0.65726  -0.64678  -0.64331  -0.63928
 Alpha  occ. eigenvalues --   -0.63527  -0.63356  -0.62593  -0.62286  -0.61387
 Alpha  occ. eigenvalues --   -0.61287  -0.61100  -0.60249  -0.60173  -0.59734
 Alpha  occ. eigenvalues --   -0.58984  -0.58885  -0.58760  -0.57935  -0.57717
 Alpha  occ. eigenvalues --   -0.57455  -0.57159  -0.57037  -0.56637  -0.56437
 Alpha  occ. eigenvalues --   -0.55965  -0.55349  -0.55093  -0.54935  -0.54764
 Alpha  occ. eigenvalues --   -0.54109  -0.54016  -0.53691  -0.53610  -0.53097
 Alpha  occ. eigenvalues --   -0.52873  -0.52374  -0.51995  -0.51711  -0.51451
 Alpha  occ. eigenvalues --   -0.50996  -0.50856  -0.50625  -0.50162  -0.49875
 Alpha  occ. eigenvalues --   -0.49747  -0.49458  -0.49398  -0.49089  -0.48589
 Alpha  occ. eigenvalues --   -0.48419  -0.48388  -0.48025  -0.47836  -0.47571
 Alpha  occ. eigenvalues --   -0.47257  -0.47145  -0.46850  -0.46817  -0.46199
 Alpha  occ. eigenvalues --   -0.45966  -0.45771  -0.45635  -0.45293  -0.45184
 Alpha  occ. eigenvalues --   -0.44754  -0.44719  -0.44313  -0.44300  -0.44115
 Alpha  occ. eigenvalues --   -0.43850  -0.43400  -0.43084  -0.42283  -0.42021
 Alpha  occ. eigenvalues --   -0.41495  -0.41135  -0.40800  -0.39358  -0.38774
 Alpha  occ. eigenvalues --   -0.37694  -0.36724  -0.36101  -0.34088  -0.33661
 Alpha  occ. eigenvalues --   -0.33121  -0.32040  -0.32020  -0.31527  -0.26404
 Alpha  occ. eigenvalues --   -0.21798
 Alpha virt. eigenvalues --   -0.08321  -0.01869  -0.00402   0.00409   0.01930
 Alpha virt. eigenvalues --    0.02665   0.03073   0.03521   0.04252   0.04716
 Alpha virt. eigenvalues --    0.05760   0.06894   0.07533   0.07745   0.08162

 Mulliken charges:
               1
     1  Mg   0.423111
     2  C   -0.016660
     3  C   -0.092579
     4  C   -0.070842
     5  C   -0.074763
     6  N   -0.268152
     7  C    0.083642
     8  C    0.011403
     9  C   -0.002786
    10  C    0.168264
    11  C   -0.053810
    12  C   -0.006638
    13  C    0.014829
    14  C    0.459003
    15  O   -0.530563
    16  O   -0.292837
    17  N   -0.342077
    18  C    0.127922
    19  C    0.036916
    20  C   -0.048507
    21  C    0.172751
    22  C   -0.041542
    23  C    0.321168
    24  O   -0.519830
    25  C   -0.025695
    26  N   -0.292287
    27  C    0.149291
    28  C    0.014712
    29  C    0.000788
    30  C    0.098279
    31  C   -0.051727
    32  C   -0.025893
    33  C   -0.049665
    34  N   -0.302060
    35  C    0.067049
    36  C    0.000689
    37  C   -0.073632
    38  C    0.086157
    39  C   -0.037272
    40  C    0.340230
    41  O   -0.511521
    42  C    0.077407
    43  C    0.485939
    44  O   -0.526734
    45  O   -0.285684
    46  C    0.069678
    47  C    0.112533
    48  C   -0.078617
    49  C   -0.027200
    50  C   -0.042020
    51  C   -0.030245
    52  C   -0.024253
    53  C   -0.031843
    54  C   -0.019905
    55  C   -0.058993
    56  C   -0.035639
    57  C   -0.034414
    58  C   -0.036086
    59  C   -0.021185
    60  C   -0.061333
    61  C   -0.037628
    62  C   -0.044225
    63  C   -0.026968
    64  C   -0.009093
    65  C   -0.070759
    66  C   -0.061232
    67  H    0.029305
    68  H    0.042486
    69  H    0.016555
    70  H    0.038500
    71  H    0.026294
    72  H    0.030307
    73  H    0.016199
    74  H    0.036089
    75  H    0.017465
    76  H    0.037847
    77  H    0.032728
    78  H    0.061346
    79  H    0.018566
    80  H    0.039130
    81  H    0.039236
    82  H    0.023076
    83  H    0.046829
    84  H    0.051217
    85  H    0.037193
    86  H    0.042865
    87  H    0.029887
    88  H    0.017198
    89  H    0.021441
    90  H    0.018970
    91  H    0.010050
    92  H    0.020153
    93  H    0.015220
    94  H    0.021050
    95  H    0.029690
    96  H    0.032690
    97  H    0.024032
    98  H    0.058420
    99  H    0.039628
   100  H    0.039490
   101  H    0.049115
   102  H    0.054388
   103  H    0.051068
   104  H    0.029456
   105  H    0.024389
   106  H    0.036339
   107  H    0.036964
   108  H    0.020791
   109  H    0.018947
   110  H    0.021858
   111  H    0.021884
   112  H    0.019499
   113  H    0.015750
   114  H    0.010612
   115  H    0.016757
   116  H    0.029434
   117  H    0.024216
   118  H    0.016603
   119  H    0.012549
   120  H    0.013410
   121  H    0.023830
   122  H    0.031674
   123  H    0.017104
   124  H    0.016504
   125  H    0.010517
   126  H    0.016293
   127  H    0.022772
   128  H    0.024992
   129  H    0.022409
   130  H    0.018639
   131  H    0.006082
   132  H    0.012433
   133  H    0.026146
   134  H    0.024486
   135  H    0.026520
   136  H    0.019784
   137  H    0.006079
   138  H    0.018290
   139  H    0.026649
   140  H    0.017243
 Sum of Mulliken charges =  -0.00000

 Dipole moment (field-independent basis, Debye):
    X=              8.4086    Y=              7.5061    Z=             -3.7379  Tot=             11.8751
 N-N= 4.338507203693D+03 E-N= 0.000000000000D+00  KE=-9.351634983734D+03
 Leave Link  601 at Fri Apr 29 01:16:08 2022, MaxMem=  6710886400 cpu:               0.8 elap:               0.1
 (Enter /sw/apps/gaussian-16.0/g16/l9999.exe)
 1\1\GINC-BP1-COMPUTE165\SP\RZINDO CIS\STO-3G\C55H74Mg1N4O6\OF15641\29-
 Apr-2022\0\\#p ZINDO=(nstates=5)\\step_1801_chromophore_15 ZINDO\\0,1\
 Mg,0,46.763,34.538,28.126\C,0,45.285,33.043,30.897\C,0,47.246,37.448,3
 0.159\C,0,47.886,36.219,25.457\C,0,45.95,31.912,26.183\N,0,46.254,35.1
 85,30.255\C,0,45.826,34.285,31.204\C,0,46.164,34.807,32.589\C,0,46.339
 ,36.333,32.306\C,0,46.53,36.36,30.788\C,0,45.205,37.386,32.796\C,0,47.
 394,34.176,33.313\C,0,47.511,34.311,34.786\C,0,46.64,35.2,35.674\O,0,4

 Normal termination of Gaussian 16 at Fri Apr 29 01:16:08 2022.
