 Gaussian 16, Revision A.03,
 Gaussian 16:  ES64L-G16RevA.03 25-Dec-2016

 ------------------------------
 #p blyp/Def2SVP td=(nstates=5)
 ------------------------------

 --------------------------------------------------
 step_1201_chromophore_3 TDDFT with blyp functional
 --------------------------------------------------
 Symbolic Z-matrix:
 Charge =  0 Multiplicity = 1

                         Standard orientation:
 ---------------------------------------------------------------------
 Center     Atomic      Atomic             Coordinates (Angstroms)
 Number     Number       Type             X           Y           Z
 ---------------------------------------------------------------------
      1         12           0       -5.431360    0.841503   -0.184900
      2          6           0       -4.352065   -2.440663    0.134517
      3          6           0       -2.144484    1.853275   -0.108709
      4          6           0       -6.644409    3.921879   -0.400696
      5          6           0       -8.667465   -0.277896    0.640237
      6          7           0       -3.481954   -0.160896    0.024379
      7          6           0       -3.272727   -1.547004    0.020165
      8          6           0       -1.788567   -1.941858   -0.271074
      9          6           0       -1.078652   -0.539180   -0.264147
     10          6           0       -2.274038    0.481526   -0.111974
     11          6           0       -0.073260   -0.333532    0.887442
     12          6           0       -1.675862   -2.717164   -1.563083
     13          6           0       -0.429926   -3.502238   -1.860982
     14          6           0        0.784400   -3.296800   -0.911610
     15          8           0        1.007404   -3.949593    0.105200
     16          8           0        1.745735   -2.443953   -1.433724
     17          7           0       -4.501092    2.621554   -0.166773
     18          6           0       -3.170658    2.836618   -0.054806
     19          6           0       -3.018089    4.330420    0.007776
     20          6           0       -4.319899    4.937049    0.049937
     21          6           0       -5.226770    3.849515   -0.229061
     22          6           0       -1.678407    4.939760   -0.066518
     23          6           0       -4.716948    6.341136    0.169031
     24          8           0       -5.865318    6.803407    0.213064
     25          6           0       -3.601198    7.349908    0.312534
     26          7           0       -7.402534    1.658962   -0.089500
     27          6           0       -7.633073    2.980529   -0.257331
     28          6           0       -9.096106    3.387800   -0.159051
     29          6           0       -9.776917    1.934642    0.117220
     30          6           0       -8.533580    1.015495    0.212125
     31          6           0       -9.468994    4.436194    0.944998
     32          6           0      -10.739167    1.399847   -1.023691
     33          6           0      -12.025850    0.567260   -0.620046
     34          7           0       -6.358749   -1.017049    0.231810
     35          6           0       -7.657327   -1.308281    0.644290
     36          6           0       -7.771156   -2.692460    0.897954
     37          6           0       -6.493221   -3.233457    0.688486
     38          6           0       -5.669863   -2.125990    0.344879
     39          6           0       -8.975318   -3.452351    1.356797
     40          6           0       -5.708384   -4.423726    0.749545
     41          8           0       -6.114840   -5.541454    1.071868
     42          6           0       -4.286569   -3.994430    0.254452
     43          6           0       -3.447859   -4.475066    1.363691
     44          8           0       -3.595411   -4.422883    2.571645
     45          8           0       -2.298345   -5.088146    0.826227
     46          6           0       -1.369558   -5.805049    1.759327
     47          6           0        3.047600   -2.271743   -0.720832
     48          6           0        4.138514   -1.888329   -1.788839
     49          6           0        5.335155   -2.371154   -2.192471
     50          6           0        6.112376   -3.429423   -1.425467
     51          6           0        5.992032   -1.884321   -3.497467
     52          6           0        6.818473   -0.529415   -3.386422
     53          6           0        8.356452   -0.809179   -3.379983
     54          6           0        9.120563    0.028166   -2.287979
     55          6           0        8.977190   -0.666016   -0.903958
     56          6           0       10.588119    0.228504   -2.603976
     57          6           0       11.009706    1.755635   -2.368767
     58          6           0       12.511598    1.939194   -1.832245
     59          6           0       12.741513    2.395123   -0.330132
     60          6           0       13.397693    3.810095   -0.185381
     61          6           0       13.402284    1.325925    0.576006
     62          6           0       12.390414    0.905695    1.676961
     63          6           0       13.149913    0.220215    2.828463
     64          6           0       13.045556    1.031677    4.176356
     65          6           0       14.296754    0.732557    5.071748
     66          6           0       11.618926    0.882080    4.768637
     67          1           0       -1.094600    2.151455   -0.056385
     68          1           0       -7.118328    4.905378   -0.437983
     69          1           0       -9.659131   -0.517866    1.029854
     70          1           0       -1.481311   -2.517656    0.602058
     71          1           0       -0.461311   -0.381974   -1.148657
     72          1           0       -0.024836   -1.208640    1.535301
     73          1           0       -0.292454    0.563480    1.467161
     74          1           0        0.908686   -0.076494    0.491563
     75          1           0       -1.867550   -2.027978   -2.385120
     76          1           0       -2.455476   -3.471619   -1.669785
     77          1           0       -0.250961   -3.380020   -2.929970
     78          1           0       -0.554285   -4.584597   -1.874031
     79          1           0       -1.009389    4.102185   -0.264235
     80          1           0       -1.289981    5.357724    0.862394
     81          1           0       -1.623246    5.655572   -0.886934
     82          1           0       -4.033661    8.344817    0.414776
     83          1           0       -3.033404    7.313088   -0.617804
     84          1           0       -2.959561    7.098718    1.156959
     85          1           0       -9.395357    3.707229   -1.156967
     86          1           0      -10.312941    1.796275    1.056845
     87          1           0       -8.664816    4.639544    1.651322
     88          1           0      -10.399656    4.190904    1.456172
     89          1           0       -9.690350    5.299536    0.316628
     90          1           0      -10.172392    0.976013   -1.852718
     91          1           0      -11.199338    2.284274   -1.465221
     92          1           0      -12.500153    0.971009    0.274515
     93          1           0      -11.636075   -0.406706   -0.322866
     94          1           0      -12.739564    0.444722   -1.434793
     95          1           0       -8.723508   -4.202871    2.106463
     96          1           0       -9.360763   -4.026466    0.514727
     97          1           0       -9.710612   -2.776767    1.794089
     98          1           0       -4.053926   -4.325568   -0.758567
     99          1           0       -0.986027   -6.750561    1.376475
    100          1           0       -1.656693   -6.022380    2.788232
    101          1           0       -0.493599   -5.163961    1.851117
    102          1           0        3.223410   -3.254483   -0.281867
    103          1           0        2.885471   -1.516579    0.048000
    104          1           0        3.753643   -1.140810   -2.483081
    105          1           0        5.800712   -3.351111   -0.383405
    106          1           0        7.145219   -3.082134   -1.436728
    107          1           0        5.984002   -4.379187   -1.944364
    108          1           0        5.289852   -1.671369   -4.303599
    109          1           0        6.562766   -2.724127   -3.894112
    110          1           0        6.672733   -0.001062   -2.443767
    111          1           0        6.602094    0.247824   -4.119695
    112          1           0        8.787498   -0.669707   -4.370670
    113          1           0        8.551605   -1.865046   -3.190777
    114          1           0        8.571676    0.963305   -2.173049
    115          1           0        7.950686   -0.683103   -0.536421
    116          1           0        9.700542   -0.128428   -0.290044
    117          1           0        9.280314   -1.712285   -0.939046
    118          1           0       10.704025    0.080025   -3.677474
    119          1           0       11.157837   -0.535438   -2.075317
    120          1           0       10.428169    2.409256   -1.717236
    121          1           0       10.972882    2.291643   -3.316894
    122          1           0       13.044772    2.736332   -2.351519
    123          1           0       13.141123    1.084228   -2.076263
    124          1           0       11.759174    2.563468    0.110640
    125          1           0       14.421378    3.772246    0.188761
    126          1           0       12.804953    4.433636    0.483635
    127          1           0       13.461229    4.450333   -1.064445
    128          1           0       14.247845    1.773304    1.098505
    129          1           0       13.747954    0.428435    0.063917
    130          1           0       11.857515    0.012161    1.350893
    131          1           0       11.778900    1.768081    1.941510
    132          1           0       14.204695    0.093883    2.580736
    133          1           0       12.698113   -0.763936    2.953354
    134          1           0       13.089882    2.101580    3.976114
    135          1           0       15.107636    0.158261    4.623446
    136          1           0       13.956589    0.279098    6.002812
    137          1           0       14.785580    1.623869    5.466070
    138          1           0       11.724661    0.935874    5.852140
    139          1           0       11.317203   -0.160623    4.666131
    140          1           0       10.881870    1.631761    4.482384
 ---------------------------------------------------------------------

 SCF Done:  E(RB-LYP) =  -3007.37799941     A.U. after   22 cycles

 Excitation energies and oscillator strengths:

 Excited State   1:      Singlet-A      1.7880 eV  693.44 nm  f=0.0255  <S**2>=0.000
     243 -> 247        0.53416
     244 -> 247        0.32122
     245 -> 247        0.26191
     246 -> 247       -0.19866
 This state for optimization and/or second-order correction.
 Total Energy, E(TD-HF/TD-DFT) =  -3007.31229305
 Copying the excited state density for this state as the 1-particle RhoCI density.

 Excited State   2:      Singlet-A      1.8096 eV  685.13 nm  f=0.0276  <S**2>=0.000
     243 -> 247       -0.26701
     244 -> 247        0.62086
     246 -> 247        0.19291

 Excited State   3:      Singlet-A      1.8255 eV  679.19 nm  f=0.2836  <S**2>=0.000
     243 -> 247        0.25302
     245 -> 248        0.15050
     246 -> 247        0.63717
     246 <- 247       -0.14666

 Excited State   4:      Singlet-A      2.0314 eV  610.33 nm  f=0.0930  <S**2>=0.000
     243 -> 247       -0.27334
     245 -> 247        0.59644
     246 -> 248       -0.19891
     246 -> 249        0.10316

 Excited State   5:      Singlet-A      2.4693 eV  502.10 nm  f=0.0059  <S**2>=0.000
     242 -> 247        0.68101

 The electronic state is 1-A.
 Alpha  occ. eigenvalues --  -46.26650 -18.82094 -18.80559 -18.77648 -18.76189
 Alpha  occ. eigenvalues --  -18.75362 -18.75187 -14.03562 -14.02903 -14.01493
 Alpha  occ. eigenvalues --  -14.00480 -10.05078 -10.03372  -9.99460  -9.99092
 Alpha  occ. eigenvalues --   -9.99025  -9.97089  -9.96812  -9.96432  -9.96404
 Alpha  occ. eigenvalues --   -9.96031  -9.95854  -9.95833  -9.95413  -9.94528
 Alpha  occ. eigenvalues --   -9.94468  -9.94392  -9.94341  -9.94336  -9.94041
 Alpha  occ. eigenvalues --   -9.93999  -9.93992  -9.93779  -9.93563  -9.93520
 Alpha  occ. eigenvalues --   -9.93201  -9.93046  -9.93045  -9.92989  -9.92870
 Alpha  occ. eigenvalues --   -9.92714  -9.92693  -9.92620  -9.92539  -9.92522
 Alpha  occ. eigenvalues --   -9.92384  -9.92331  -9.92284  -9.92244  -9.92238
 Alpha  occ. eigenvalues --   -9.92046  -9.92017  -9.91913  -9.91867  -9.91815
 Alpha  occ. eigenvalues --   -9.91362  -9.91318  -9.91254  -9.91098  -9.91071
 Alpha  occ. eigenvalues --   -9.90944  -9.90918  -9.90905  -9.90823  -9.90737
 Alpha  occ. eigenvalues --   -9.90143  -2.91380  -1.71815  -1.71256  -1.71092
 Alpha  occ. eigenvalues --   -0.97333  -0.95713  -0.90639  -0.90344  -0.89601
 Alpha  occ. eigenvalues --   -0.87908  -0.86975  -0.86255  -0.85134  -0.84187
 Alpha  occ. eigenvalues --   -0.75735  -0.73685  -0.73404  -0.72485  -0.72167
 Alpha  occ. eigenvalues --   -0.72000  -0.71170  -0.71047  -0.70783  -0.70156
 Alpha  occ. eigenvalues --   -0.70140  -0.69360  -0.67782  -0.67265  -0.67042
 Alpha  occ. eigenvalues --   -0.66189  -0.65776  -0.65328  -0.64791  -0.64289
 Alpha  occ. eigenvalues --   -0.63930  -0.62833  -0.62616  -0.61382  -0.60698
 Alpha  occ. eigenvalues --   -0.60425  -0.60191  -0.59864  -0.59555  -0.58917
 Alpha  occ. eigenvalues --   -0.58409  -0.57937  -0.56618  -0.55861  -0.54523
 Alpha  occ. eigenvalues --   -0.54255  -0.53902  -0.53064  -0.52539  -0.51880
 Alpha  occ. eigenvalues --   -0.51494  -0.51410  -0.51239  -0.50374  -0.49995
 Alpha  occ. eigenvalues --   -0.49579  -0.49280  -0.48513  -0.47690  -0.46677
 Alpha  occ. eigenvalues --   -0.46370  -0.46203  -0.45757  -0.45161  -0.44738
 Alpha  occ. eigenvalues --   -0.44008  -0.43580  -0.43106  -0.42591  -0.42232
 Alpha  occ. eigenvalues --   -0.41598  -0.41372  -0.41257  -0.40991  -0.40868
 Alpha  occ. eigenvalues --   -0.40738  -0.40699  -0.40190  -0.39944  -0.39798
 Alpha  occ. eigenvalues --   -0.39786  -0.39547  -0.39360  -0.39139  -0.38900
 Alpha  occ. eigenvalues --   -0.38858  -0.38577  -0.38374  -0.38246  -0.38035
 Alpha  occ. eigenvalues --   -0.37842  -0.37744  -0.37635  -0.37372  -0.37308
 Alpha  occ. eigenvalues --   -0.37201  -0.36819  -0.36657  -0.36437  -0.36311
 Alpha  occ. eigenvalues --   -0.36095  -0.36083  -0.35941  -0.35752  -0.35448
 Alpha  occ. eigenvalues --   -0.35347  -0.35220  -0.35016  -0.34865  -0.34819
 Alpha  occ. eigenvalues --   -0.34533  -0.34101  -0.34038  -0.33846  -0.33766
 Alpha  occ. eigenvalues --   -0.33565  -0.33503  -0.33391  -0.33178  -0.33121
 Alpha  occ. eigenvalues --   -0.33069  -0.32859  -0.32558  -0.32401  -0.32169
 Alpha  occ. eigenvalues --   -0.32110  -0.31891  -0.31658  -0.31540  -0.31406
 Alpha  occ. eigenvalues --   -0.31108  -0.31005  -0.30978  -0.30871  -0.30780
 Alpha  occ. eigenvalues --   -0.30589  -0.30508  -0.30039  -0.29956  -0.29829
 Alpha  occ. eigenvalues --   -0.29558  -0.29385  -0.29265  -0.29234  -0.29064
 Alpha  occ. eigenvalues --   -0.28948  -0.28792  -0.28157  -0.28060  -0.27875
 Alpha  occ. eigenvalues --   -0.27552  -0.27143  -0.27001  -0.26733  -0.26552
 Alpha  occ. eigenvalues --   -0.26482  -0.26029  -0.25980  -0.25492  -0.25461
 Alpha  occ. eigenvalues --   -0.25343  -0.24569  -0.23869  -0.23531  -0.23396
 Alpha  occ. eigenvalues --   -0.23279  -0.22582  -0.22467  -0.21455  -0.21056
 Alpha  occ. eigenvalues --   -0.20857  -0.20302  -0.18428  -0.18382  -0.17409
 Alpha  occ. eigenvalues --   -0.16034
 Alpha virt. eigenvalues --   -0.11836  -0.06772  -0.06257  -0.04442  -0.04216
 Alpha virt. eigenvalues --   -0.02815  -0.02370  -0.02164  -0.01342   0.00611
 Alpha virt. eigenvalues --    0.01406   0.01985   0.02020   0.02632   0.03133

 Mulliken charges:
               1
     1  Mg   0.698460
     2  C   -0.082089
     3  C   -0.058215
     4  C   -0.008779
     5  C   -0.085598
     6  N   -0.233056
     7  C   -0.082215
     8  C    0.098496
     9  C   -0.021295
    10  C    0.032024
    11  C    0.104565
    12  C    0.122783
    13  C    0.170130
    14  C    0.085312
    15  O   -0.197060
    16  O   -0.300208
    17  N   -0.340048
    18  C    0.169604
    19  C   -0.160129
    20  C    0.083679
    21  C    0.112076
    22  C    0.181934
    23  C   -0.108179
    24  O   -0.173813
    25  C    0.137635
    26  N   -0.189493
    27  C   -0.037944
    28  C    0.055658
    29  C   -0.007675
    30  C    0.027121
    31  C    0.128608
    32  C    0.068849
    33  C    0.059556
    34  N   -0.228350
    35  C    0.115476
    36  C   -0.179050
    37  C    0.121005
    38  C    0.088370
    39  C    0.180413
    40  C   -0.081536
    41  O   -0.139087
    42  C    0.081995
    43  C    0.134101
    44  O   -0.157445
    45  O   -0.311297
    46  C    0.207969
    47  C    0.311411
    48  C   -0.067925
    49  C   -0.192274
    50  C    0.155960
    51  C    0.136557
    52  C    0.085087
    53  C    0.067925
    54  C   -0.097893
    55  C    0.073135
    56  C    0.152629
    57  C    0.066116
    58  C    0.097689
    59  C   -0.066717
    60  C    0.083024
    61  C    0.105815
    62  C    0.041301
    63  C    0.084618
    64  C   -0.094371
    65  C    0.106025
    66  C    0.116037
    67  H   -0.059759
    68  H   -0.049397
    69  H   -0.062533
    70  H   -0.002986
    71  H   -0.014360
    72  H    0.009666
    73  H   -0.011821
    74  H   -0.016749
    75  H   -0.026598
    76  H   -0.029409
    77  H   -0.021652
    78  H   -0.002429
    79  H   -0.034919
    80  H    0.003580
    81  H    0.006767
    82  H   -0.010822
    83  H   -0.004594
    84  H    0.006660
    85  H   -0.016322
    86  H   -0.026353
    87  H    0.019349
    88  H   -0.005707
    89  H    0.000927
    90  H   -0.017720
    91  H   -0.027796
    92  H   -0.006839
    93  H   -0.008396
    94  H    0.002721
    95  H    0.008637
    96  H    0.005260
    97  H   -0.014719
    98  H    0.015064
    99  H    0.005092
   100  H    0.015879
   101  H    0.013184
   102  H    0.000066
   103  H    0.007913
   104  H   -0.039079
   105  H   -0.005263
   106  H   -0.013229
   107  H    0.019076
   108  H   -0.028681
   109  H   -0.024570
   110  H   -0.024849
   111  H   -0.023184
   112  H   -0.037494
   113  H   -0.040193
   114  H   -0.029336
   115  H   -0.010549
   116  H   -0.000073
   117  H   -0.012296
   118  H   -0.037818
   119  H   -0.019772
   120  H   -0.025631
   121  H   -0.028998
   122  H   -0.056484
   123  H   -0.042183
   124  H   -0.033517
   125  H   -0.014072
   126  H   -0.020605
   127  H   -0.023715
   128  H   -0.034956
   129  H   -0.030096
   130  H   -0.020092
   131  H   -0.013807
   132  H   -0.032753
   133  H   -0.035546
   134  H   -0.036728
   135  H   -0.009792
   136  H   -0.029885
   137  H   -0.025150
   138  H   -0.035384
   139  H   -0.023532
   140  H    0.003948
 Sum of Mulliken charges =  -0.00000

 Dipole moment (field-independent basis, Debye):
    X=              4.0820    Y=              2.9994    Z=             -4.3725  Tot=              6.6916
 Quadrupole moment (field-independent basis, Debye-Ang):
   XX=           -375.8549   YY=           -444.1216   ZZ=           -404.9719
   XY=            -14.9237   XZ=             11.6586   YZ=             15.7688

 Normal termination of Gaussian 16 at Wed May  4 01:46:41 2022.
