 Gaussian 16, Revision A.03,
 Gaussian 16:  ES64L-G16RevA.03 25-Dec-2016

 -----------------------------------
 #p cam-b3lyp/Def2SVP td=(nstates=5)
 -----------------------------------

 -------------------------------------------------------
 step_1201_chromophore_3 TDDFT with cam-b3lyp functional
 -------------------------------------------------------
 Symbolic Z-matrix:
 Charge =  0 Multiplicity = 1

                         Standard orientation:
 ---------------------------------------------------------------------
 Center     Atomic      Atomic             Coordinates (Angstroms)
 Number     Number       Type             X           Y           Z
 ---------------------------------------------------------------------
      1         12           0       -5.431360    0.841503   -0.184900
      2          6           0       -4.352065   -2.440663    0.134517
      3          6           0       -2.144484    1.853275   -0.108709
      4          6           0       -6.644409    3.921879   -0.400696
      5          6           0       -8.667465   -0.277896    0.640237
      6          7           0       -3.481954   -0.160896    0.024379
      7          6           0       -3.272727   -1.547004    0.020165
      8          6           0       -1.788567   -1.941858   -0.271074
      9          6           0       -1.078652   -0.539180   -0.264147
     10          6           0       -2.274038    0.481526   -0.111974
     11          6           0       -0.073260   -0.333532    0.887442
     12          6           0       -1.675862   -2.717164   -1.563083
     13          6           0       -0.429926   -3.502238   -1.860982
     14          6           0        0.784400   -3.296800   -0.911610
     15          8           0        1.007404   -3.949593    0.105200
     16          8           0        1.745735   -2.443953   -1.433724
     17          7           0       -4.501092    2.621554   -0.166773
     18          6           0       -3.170658    2.836618   -0.054806
     19          6           0       -3.018089    4.330420    0.007776
     20          6           0       -4.319899    4.937049    0.049937
     21          6           0       -5.226770    3.849515   -0.229061
     22          6           0       -1.678407    4.939760   -0.066518
     23          6           0       -4.716948    6.341136    0.169031
     24          8           0       -5.865318    6.803407    0.213064
     25          6           0       -3.601198    7.349908    0.312534
     26          7           0       -7.402534    1.658962   -0.089500
     27          6           0       -7.633073    2.980529   -0.257331
     28          6           0       -9.096106    3.387800   -0.159051
     29          6           0       -9.776917    1.934642    0.117220
     30          6           0       -8.533580    1.015495    0.212125
     31          6           0       -9.468994    4.436194    0.944998
     32          6           0      -10.739167    1.399847   -1.023691
     33          6           0      -12.025850    0.567260   -0.620046
     34          7           0       -6.358749   -1.017049    0.231810
     35          6           0       -7.657327   -1.308281    0.644290
     36          6           0       -7.771156   -2.692460    0.897954
     37          6           0       -6.493221   -3.233457    0.688486
     38          6           0       -5.669863   -2.125990    0.344879
     39          6           0       -8.975318   -3.452351    1.356797
     40          6           0       -5.708384   -4.423726    0.749545
     41          8           0       -6.114840   -5.541454    1.071868
     42          6           0       -4.286569   -3.994430    0.254452
     43          6           0       -3.447859   -4.475066    1.363691
     44          8           0       -3.595411   -4.422883    2.571645
     45          8           0       -2.298345   -5.088146    0.826227
     46          6           0       -1.369558   -5.805049    1.759327
     47          6           0        3.047600   -2.271743   -0.720832
     48          6           0        4.138514   -1.888329   -1.788839
     49          6           0        5.335155   -2.371154   -2.192471
     50          6           0        6.112376   -3.429423   -1.425467
     51          6           0        5.992032   -1.884321   -3.497467
     52          6           0        6.818473   -0.529415   -3.386422
     53          6           0        8.356452   -0.809179   -3.379983
     54          6           0        9.120563    0.028166   -2.287979
     55          6           0        8.977190   -0.666016   -0.903958
     56          6           0       10.588119    0.228504   -2.603976
     57          6           0       11.009706    1.755635   -2.368767
     58          6           0       12.511598    1.939194   -1.832245
     59          6           0       12.741513    2.395123   -0.330132
     60          6           0       13.397693    3.810095   -0.185381
     61          6           0       13.402284    1.325925    0.576006
     62          6           0       12.390414    0.905695    1.676961
     63          6           0       13.149913    0.220215    2.828463
     64          6           0       13.045556    1.031677    4.176356
     65          6           0       14.296754    0.732557    5.071748
     66          6           0       11.618926    0.882080    4.768637
     67          1           0       -1.094600    2.151455   -0.056385
     68          1           0       -7.118328    4.905378   -0.437983
     69          1           0       -9.659131   -0.517866    1.029854
     70          1           0       -1.481311   -2.517656    0.602058
     71          1           0       -0.461311   -0.381974   -1.148657
     72          1           0       -0.024836   -1.208640    1.535301
     73          1           0       -0.292454    0.563480    1.467161
     74          1           0        0.908686   -0.076494    0.491563
     75          1           0       -1.867550   -2.027978   -2.385120
     76          1           0       -2.455476   -3.471619   -1.669785
     77          1           0       -0.250961   -3.380020   -2.929970
     78          1           0       -0.554285   -4.584597   -1.874031
     79          1           0       -1.009389    4.102185   -0.264235
     80          1           0       -1.289981    5.357724    0.862394
     81          1           0       -1.623246    5.655572   -0.886934
     82          1           0       -4.033661    8.344817    0.414776
     83          1           0       -3.033404    7.313088   -0.617804
     84          1           0       -2.959561    7.098718    1.156959
     85          1           0       -9.395357    3.707229   -1.156967
     86          1           0      -10.312941    1.796275    1.056845
     87          1           0       -8.664816    4.639544    1.651322
     88          1           0      -10.399656    4.190904    1.456172
     89          1           0       -9.690350    5.299536    0.316628
     90          1           0      -10.172392    0.976013   -1.852718
     91          1           0      -11.199338    2.284274   -1.465221
     92          1           0      -12.500153    0.971009    0.274515
     93          1           0      -11.636075   -0.406706   -0.322866
     94          1           0      -12.739564    0.444722   -1.434793
     95          1           0       -8.723508   -4.202871    2.106463
     96          1           0       -9.360763   -4.026466    0.514727
     97          1           0       -9.710612   -2.776767    1.794089
     98          1           0       -4.053926   -4.325568   -0.758567
     99          1           0       -0.986027   -6.750561    1.376475
    100          1           0       -1.656693   -6.022380    2.788232
    101          1           0       -0.493599   -5.163961    1.851117
    102          1           0        3.223410   -3.254483   -0.281867
    103          1           0        2.885471   -1.516579    0.048000
    104          1           0        3.753643   -1.140810   -2.483081
    105          1           0        5.800712   -3.351111   -0.383405
    106          1           0        7.145219   -3.082134   -1.436728
    107          1           0        5.984002   -4.379187   -1.944364
    108          1           0        5.289852   -1.671369   -4.303599
    109          1           0        6.562766   -2.724127   -3.894112
    110          1           0        6.672733   -0.001062   -2.443767
    111          1           0        6.602094    0.247824   -4.119695
    112          1           0        8.787498   -0.669707   -4.370670
    113          1           0        8.551605   -1.865046   -3.190777
    114          1           0        8.571676    0.963305   -2.173049
    115          1           0        7.950686   -0.683103   -0.536421
    116          1           0        9.700542   -0.128428   -0.290044
    117          1           0        9.280314   -1.712285   -0.939046
    118          1           0       10.704025    0.080025   -3.677474
    119          1           0       11.157837   -0.535438   -2.075317
    120          1           0       10.428169    2.409256   -1.717236
    121          1           0       10.972882    2.291643   -3.316894
    122          1           0       13.044772    2.736332   -2.351519
    123          1           0       13.141123    1.084228   -2.076263
    124          1           0       11.759174    2.563468    0.110640
    125          1           0       14.421378    3.772246    0.188761
    126          1           0       12.804953    4.433636    0.483635
    127          1           0       13.461229    4.450333   -1.064445
    128          1           0       14.247845    1.773304    1.098505
    129          1           0       13.747954    0.428435    0.063917
    130          1           0       11.857515    0.012161    1.350893
    131          1           0       11.778900    1.768081    1.941510
    132          1           0       14.204695    0.093883    2.580736
    133          1           0       12.698113   -0.763936    2.953354
    134          1           0       13.089882    2.101580    3.976114
    135          1           0       15.107636    0.158261    4.623446
    136          1           0       13.956589    0.279098    6.002812
    137          1           0       14.785580    1.623869    5.466070
    138          1           0       11.724661    0.935874    5.852140
    139          1           0       11.317203   -0.160623    4.666131
    140          1           0       10.881870    1.631761    4.482384
 ---------------------------------------------------------------------

 SCF Done:  E(RCAM-B3LYP) =  -3007.16246006     A.U. after   17 cycles

 Excitation energies and oscillator strengths:

 Excited State   1:      Singlet-A      1.6885 eV  734.29 nm  f=0.4019  <S**2>=0.000
     245 -> 248       -0.17223
     246 -> 247        0.68819
     245 <- 248       -0.10699
 This state for optimization and/or second-order correction.
 Total Energy, E(TD-HF/TD-DFT) =  -3007.10040898
 Copying the excited state density for this state as the 1-particle RhoCI density.

 Excited State   2:      Singlet-A      2.2277 eV  556.55 nm  f=0.1508  <S**2>=0.000
     245 -> 247        0.65260
     246 -> 248        0.25844

 Excited State   3:      Singlet-A      3.3073 eV  374.88 nm  f=0.0009  <S**2>=0.000
     242 -> 247        0.10613
     243 -> 247       -0.13910
     244 -> 247        0.66311

 Excited State   4:      Singlet-A      3.4041 eV  364.22 nm  f=0.0022  <S**2>=0.000
     242 -> 247        0.57199
     242 -> 249       -0.24595
     242 -> 250        0.22455
     243 -> 247        0.14950

 Excited State   5:      Singlet-A      3.4478 eV  359.60 nm  f=0.0017  <S**2>=0.000
     240 -> 249       -0.13942
     242 -> 247       -0.11834
     243 -> 247        0.61289
     244 -> 247        0.14253
     246 -> 248       -0.13626

 The electronic state is 1-A.
 Alpha  occ. eigenvalues --  -46.88160 -19.24896 -19.23451 -19.20616 -19.19337
 Alpha  occ. eigenvalues --  -19.18650 -19.18315 -14.42452 -14.41796 -14.40049
 Alpha  occ. eigenvalues --  -14.38828 -10.40441 -10.38898 -10.34743 -10.34297
 Alpha  occ. eigenvalues --  -10.33291 -10.31699 -10.31386 -10.30970 -10.30927
 Alpha  occ. eigenvalues --  -10.30486 -10.30111 -10.29817 -10.29535 -10.29265
 Alpha  occ. eigenvalues --  -10.28743 -10.28598 -10.28487 -10.28325 -10.28190
 Alpha  occ. eigenvalues --  -10.27983 -10.27977 -10.27964 -10.27802 -10.27404
 Alpha  occ. eigenvalues --  -10.27380 -10.27287 -10.27144 -10.26840 -10.26792
 Alpha  occ. eigenvalues --  -10.26716 -10.26705 -10.26519 -10.26333 -10.26233
 Alpha  occ. eigenvalues --  -10.26171 -10.26071 -10.26022 -10.25987 -10.25975
 Alpha  occ. eigenvalues --  -10.25950 -10.25760 -10.25680 -10.25551 -10.25463
 Alpha  occ. eigenvalues --  -10.25451 -10.25065 -10.24869 -10.24826 -10.24667
 Alpha  occ. eigenvalues --  -10.24603 -10.24534 -10.24528 -10.24465 -10.24419
 Alpha  occ. eigenvalues --  -10.24090  -3.16800  -1.91709  -1.91247  -1.91109
 Alpha  occ. eigenvalues --   -1.15733  -1.14278  -1.09093  -1.08660  -1.07364
 Alpha  occ. eigenvalues --   -1.05746  -1.04676  -1.03873  -1.02798  -1.01734
 Alpha  occ. eigenvalues --   -0.92884  -0.90532  -0.90228  -0.89242  -0.88914
 Alpha  occ. eigenvalues --   -0.88682  -0.87807  -0.87697  -0.87493  -0.86689
 Alpha  occ. eigenvalues --   -0.86640  -0.85743  -0.83975  -0.83469  -0.83194
 Alpha  occ. eigenvalues --   -0.82196  -0.81912  -0.81230  -0.80697  -0.80153
 Alpha  occ. eigenvalues --   -0.79709  -0.78666  -0.78264  -0.76818  -0.76029
 Alpha  occ. eigenvalues --   -0.75792  -0.75554  -0.75144  -0.74828  -0.74145
 Alpha  occ. eigenvalues --   -0.73455  -0.72968  -0.71513  -0.70674  -0.69081
 Alpha  occ. eigenvalues --   -0.68849  -0.68574  -0.67662  -0.66900  -0.65957
 Alpha  occ. eigenvalues --   -0.65706  -0.65650  -0.65390  -0.64312  -0.64015
 Alpha  occ. eigenvalues --   -0.63545  -0.62994  -0.62393  -0.61369  -0.60327
 Alpha  occ. eigenvalues --   -0.59947  -0.59804  -0.59183  -0.58443  -0.58186
 Alpha  occ. eigenvalues --   -0.57336  -0.56803  -0.56358  -0.55699  -0.55240
 Alpha  occ. eigenvalues --   -0.54725  -0.54402  -0.54015  -0.53857  -0.53695
 Alpha  occ. eigenvalues --   -0.53559  -0.53432  -0.53166  -0.52731  -0.52480
 Alpha  occ. eigenvalues --   -0.52364  -0.52240  -0.52096  -0.52025  -0.51592
 Alpha  occ. eigenvalues --   -0.51270  -0.51192  -0.50850  -0.50575  -0.50506
 Alpha  occ. eigenvalues --   -0.50288  -0.50117  -0.49932  -0.49822  -0.49698
 Alpha  occ. eigenvalues --   -0.49484  -0.49234  -0.49046  -0.48810  -0.48689
 Alpha  occ. eigenvalues --   -0.48421  -0.48314  -0.48085  -0.47889  -0.47690
 Alpha  occ. eigenvalues --   -0.47472  -0.47311  -0.47226  -0.46953  -0.46603
 Alpha  occ. eigenvalues --   -0.46434  -0.46259  -0.45820  -0.45507  -0.45482
 Alpha  occ. eigenvalues --   -0.45419  -0.45322  -0.45176  -0.45137  -0.44702
 Alpha  occ. eigenvalues --   -0.44696  -0.44521  -0.44107  -0.44051  -0.43869
 Alpha  occ. eigenvalues --   -0.43831  -0.43337  -0.43295  -0.43056  -0.42853
 Alpha  occ. eigenvalues --   -0.42675  -0.42365  -0.42201  -0.42179  -0.42070
 Alpha  occ. eigenvalues --   -0.41940  -0.41784  -0.41570  -0.41507  -0.41302
 Alpha  occ. eigenvalues --   -0.41169  -0.40699  -0.40537  -0.40308  -0.40270
 Alpha  occ. eigenvalues --   -0.40193  -0.40083  -0.39085  -0.38992  -0.38852
 Alpha  occ. eigenvalues --   -0.38489  -0.38191  -0.37795  -0.37507  -0.37410
 Alpha  occ. eigenvalues --   -0.37230  -0.37086  -0.36866  -0.36658  -0.36323
 Alpha  occ. eigenvalues --   -0.35954  -0.35050  -0.34955  -0.34594  -0.34419
 Alpha  occ. eigenvalues --   -0.34121  -0.33639  -0.33105  -0.31684  -0.30829
 Alpha  occ. eigenvalues --   -0.30719  -0.30466  -0.30135  -0.29548  -0.24224
 Alpha  occ. eigenvalues --   -0.21358
 Alpha virt. eigenvalues --   -0.09090  -0.01413   0.00121   0.02461   0.02680
 Alpha virt. eigenvalues --    0.03490   0.04810   0.05466   0.05764   0.06905
 Alpha virt. eigenvalues --    0.08128   0.08213   0.08902   0.09217   0.09423

 Mulliken charges:
               1
     1  Mg   0.831667
     2  C   -0.105639
     3  C   -0.076621
     4  C   -0.032460
     5  C   -0.086754
     6  N   -0.304109
     7  C   -0.034146
     8  C    0.036286
     9  C   -0.067124
    10  C    0.050326
    11  C    0.045787
    12  C    0.069930
    13  C    0.108759
    14  C    0.156649
    15  O   -0.238889
    16  O   -0.364857
    17  N   -0.428771
    18  C    0.181911
    19  C   -0.162078
    20  C    0.009751
    21  C    0.140763
    22  C    0.119950
    23  C   -0.025842
    24  O   -0.214969
    25  C    0.055127
    26  N   -0.264038
    27  C   -0.011794
    28  C   -0.001196
    29  C   -0.060541
    30  C    0.045098
    31  C    0.068413
    32  C    0.013822
    33  C    0.002517
    34  N   -0.317884
    35  C    0.115018
    36  C   -0.176336
    37  C    0.043031
    38  C    0.127060
    39  C    0.130125
    40  C    0.017609
    41  O   -0.178600
    42  C   -0.000383
    43  C    0.223557
    44  O   -0.195132
    45  O   -0.376686
    46  C    0.172879
    47  C    0.289884
    48  C   -0.096175
    49  C   -0.210599
    50  C    0.097664
    51  C    0.073731
    52  C    0.030758
    53  C    0.019911
    54  C   -0.153182
    55  C    0.024904
    56  C    0.092860
    57  C    0.012740
    58  C    0.047752
    59  C   -0.126709
    60  C    0.027244
    61  C    0.056118
    62  C   -0.012131
    63  C    0.033396
    64  C   -0.152083
    65  C    0.045115
    66  C    0.054812
    67  H   -0.026166
    68  H   -0.007902
    69  H   -0.027967
    70  H    0.030372
    71  H    0.021775
    72  H    0.034579
    73  H    0.015607
    74  H    0.005993
    75  H    0.004561
    76  H    0.000317
    77  H    0.015328
    78  H    0.030809
    79  H   -0.005641
    80  H    0.031505
    81  H    0.032889
    82  H    0.025664
    83  H    0.022187
    84  H    0.033639
    85  H    0.019040
    86  H    0.007275
    87  H    0.044231
    88  H    0.019208
    89  H    0.023985
    90  H    0.011278
    91  H   -0.000524
    92  H    0.015328
    93  H    0.011457
    94  H    0.027242
    95  H    0.036224
    96  H    0.031714
    97  H    0.008571
    98  H    0.059042
    99  H    0.027032
   100  H    0.041479
   101  H    0.034577
   102  H    0.030934
   103  H    0.032082
   104  H   -0.007281
   105  H    0.018240
   106  H    0.005965
   107  H    0.043208
   108  H    0.003566
   109  H    0.005317
   110  H    0.002335
   111  H    0.006518
   112  H   -0.008071
   113  H   -0.014293
   114  H    0.001053
   115  H    0.011300
   116  H    0.019923
   117  H    0.008324
   118  H   -0.006619
   119  H    0.007200
   120  H    0.000701
   121  H    0.000180
   122  H   -0.025168
   123  H   -0.014003
   124  H   -0.003224
   125  H    0.009060
   126  H    0.002991
   127  H    0.001343
   128  H   -0.007083
   129  H   -0.001886
   130  H    0.006363
   131  H    0.010963
   132  H   -0.005055
   133  H   -0.007417
   134  H   -0.005894
   135  H    0.014459
   136  H   -0.005703
   137  H    0.000183
   138  H   -0.009701
   139  H    0.000183
   140  H    0.027105
 Sum of Mulliken charges =  -0.00000

 Dipole moment (field-independent basis, Debye):
    X=              4.3927    Y=              3.5212    Z=             -4.5106  Tot=              7.2139
 Quadrupole moment (field-independent basis, Debye-Ang):
   XX=           -375.8561   YY=           -440.1614   ZZ=           -404.8340
   XY=            -16.3262   XZ=             12.7029   YZ=             16.2780

 Normal termination of Gaussian 16 at Wed May  4 00:49:16 2022.
