 Gaussian 16, Revision A.03,
 Gaussian 16:  ES64L-G16RevA.03 25-Dec-2016

 ---------------------------------
 #p PBE1PBE/Def2SVP td=(nstates=5)
 ---------------------------------

 -----------------------------------------------------
 step_1201_chromophore_3 TDDFT with PBE1PBE functional
 -----------------------------------------------------
 Symbolic Z-matrix:
 Charge =  0 Multiplicity = 1

                         Standard orientation:
 ---------------------------------------------------------------------
 Center     Atomic      Atomic             Coordinates (Angstroms)
 Number     Number       Type             X           Y           Z
 ---------------------------------------------------------------------
      1         12           0       -5.431360    0.841503   -0.184900
      2          6           0       -4.352065   -2.440663    0.134517
      3          6           0       -2.144484    1.853275   -0.108709
      4          6           0       -6.644409    3.921879   -0.400696
      5          6           0       -8.667465   -0.277896    0.640237
      6          7           0       -3.481954   -0.160896    0.024379
      7          6           0       -3.272727   -1.547004    0.020165
      8          6           0       -1.788567   -1.941858   -0.271074
      9          6           0       -1.078652   -0.539180   -0.264147
     10          6           0       -2.274038    0.481526   -0.111974
     11          6           0       -0.073260   -0.333532    0.887442
     12          6           0       -1.675862   -2.717164   -1.563083
     13          6           0       -0.429926   -3.502238   -1.860982
     14          6           0        0.784400   -3.296800   -0.911610
     15          8           0        1.007404   -3.949593    0.105200
     16          8           0        1.745735   -2.443953   -1.433724
     17          7           0       -4.501092    2.621554   -0.166773
     18          6           0       -3.170658    2.836618   -0.054806
     19          6           0       -3.018089    4.330420    0.007776
     20          6           0       -4.319899    4.937049    0.049937
     21          6           0       -5.226770    3.849515   -0.229061
     22          6           0       -1.678407    4.939760   -0.066518
     23          6           0       -4.716948    6.341136    0.169031
     24          8           0       -5.865318    6.803407    0.213064
     25          6           0       -3.601198    7.349908    0.312534
     26          7           0       -7.402534    1.658962   -0.089500
     27          6           0       -7.633073    2.980529   -0.257331
     28          6           0       -9.096106    3.387800   -0.159051
     29          6           0       -9.776917    1.934642    0.117220
     30          6           0       -8.533580    1.015495    0.212125
     31          6           0       -9.468994    4.436194    0.944998
     32          6           0      -10.739167    1.399847   -1.023691
     33          6           0      -12.025850    0.567260   -0.620046
     34          7           0       -6.358749   -1.017049    0.231810
     35          6           0       -7.657327   -1.308281    0.644290
     36          6           0       -7.771156   -2.692460    0.897954
     37          6           0       -6.493221   -3.233457    0.688486
     38          6           0       -5.669863   -2.125990    0.344879
     39          6           0       -8.975318   -3.452351    1.356797
     40          6           0       -5.708384   -4.423726    0.749545
     41          8           0       -6.114840   -5.541454    1.071868
     42          6           0       -4.286569   -3.994430    0.254452
     43          6           0       -3.447859   -4.475066    1.363691
     44          8           0       -3.595411   -4.422883    2.571645
     45          8           0       -2.298345   -5.088146    0.826227
     46          6           0       -1.369558   -5.805049    1.759327
     47          6           0        3.047600   -2.271743   -0.720832
     48          6           0        4.138514   -1.888329   -1.788839
     49          6           0        5.335155   -2.371154   -2.192471
     50          6           0        6.112376   -3.429423   -1.425467
     51          6           0        5.992032   -1.884321   -3.497467
     52          6           0        6.818473   -0.529415   -3.386422
     53          6           0        8.356452   -0.809179   -3.379983
     54          6           0        9.120563    0.028166   -2.287979
     55          6           0        8.977190   -0.666016   -0.903958
     56          6           0       10.588119    0.228504   -2.603976
     57          6           0       11.009706    1.755635   -2.368767
     58          6           0       12.511598    1.939194   -1.832245
     59          6           0       12.741513    2.395123   -0.330132
     60          6           0       13.397693    3.810095   -0.185381
     61          6           0       13.402284    1.325925    0.576006
     62          6           0       12.390414    0.905695    1.676961
     63          6           0       13.149913    0.220215    2.828463
     64          6           0       13.045556    1.031677    4.176356
     65          6           0       14.296754    0.732557    5.071748
     66          6           0       11.618926    0.882080    4.768637
     67          1           0       -1.094600    2.151455   -0.056385
     68          1           0       -7.118328    4.905378   -0.437983
     69          1           0       -9.659131   -0.517866    1.029854
     70          1           0       -1.481311   -2.517656    0.602058
     71          1           0       -0.461311   -0.381974   -1.148657
     72          1           0       -0.024836   -1.208640    1.535301
     73          1           0       -0.292454    0.563480    1.467161
     74          1           0        0.908686   -0.076494    0.491563
     75          1           0       -1.867550   -2.027978   -2.385120
     76          1           0       -2.455476   -3.471619   -1.669785
     77          1           0       -0.250961   -3.380020   -2.929970
     78          1           0       -0.554285   -4.584597   -1.874031
     79          1           0       -1.009389    4.102185   -0.264235
     80          1           0       -1.289981    5.357724    0.862394
     81          1           0       -1.623246    5.655572   -0.886934
     82          1           0       -4.033661    8.344817    0.414776
     83          1           0       -3.033404    7.313088   -0.617804
     84          1           0       -2.959561    7.098718    1.156959
     85          1           0       -9.395357    3.707229   -1.156967
     86          1           0      -10.312941    1.796275    1.056845
     87          1           0       -8.664816    4.639544    1.651322
     88          1           0      -10.399656    4.190904    1.456172
     89          1           0       -9.690350    5.299536    0.316628
     90          1           0      -10.172392    0.976013   -1.852718
     91          1           0      -11.199338    2.284274   -1.465221
     92          1           0      -12.500153    0.971009    0.274515
     93          1           0      -11.636075   -0.406706   -0.322866
     94          1           0      -12.739564    0.444722   -1.434793
     95          1           0       -8.723508   -4.202871    2.106463
     96          1           0       -9.360763   -4.026466    0.514727
     97          1           0       -9.710612   -2.776767    1.794089
     98          1           0       -4.053926   -4.325568   -0.758567
     99          1           0       -0.986027   -6.750561    1.376475
    100          1           0       -1.656693   -6.022380    2.788232
    101          1           0       -0.493599   -5.163961    1.851117
    102          1           0        3.223410   -3.254483   -0.281867
    103          1           0        2.885471   -1.516579    0.048000
    104          1           0        3.753643   -1.140810   -2.483081
    105          1           0        5.800712   -3.351111   -0.383405
    106          1           0        7.145219   -3.082134   -1.436728
    107          1           0        5.984002   -4.379187   -1.944364
    108          1           0        5.289852   -1.671369   -4.303599
    109          1           0        6.562766   -2.724127   -3.894112
    110          1           0        6.672733   -0.001062   -2.443767
    111          1           0        6.602094    0.247824   -4.119695
    112          1           0        8.787498   -0.669707   -4.370670
    113          1           0        8.551605   -1.865046   -3.190777
    114          1           0        8.571676    0.963305   -2.173049
    115          1           0        7.950686   -0.683103   -0.536421
    116          1           0        9.700542   -0.128428   -0.290044
    117          1           0        9.280314   -1.712285   -0.939046
    118          1           0       10.704025    0.080025   -3.677474
    119          1           0       11.157837   -0.535438   -2.075317
    120          1           0       10.428169    2.409256   -1.717236
    121          1           0       10.972882    2.291643   -3.316894
    122          1           0       13.044772    2.736332   -2.351519
    123          1           0       13.141123    1.084228   -2.076263
    124          1           0       11.759174    2.563468    0.110640
    125          1           0       14.421378    3.772246    0.188761
    126          1           0       12.804953    4.433636    0.483635
    127          1           0       13.461229    4.450333   -1.064445
    128          1           0       14.247845    1.773304    1.098505
    129          1           0       13.747954    0.428435    0.063917
    130          1           0       11.857515    0.012161    1.350893
    131          1           0       11.778900    1.768081    1.941510
    132          1           0       14.204695    0.093883    2.580736
    133          1           0       12.698113   -0.763936    2.953354
    134          1           0       13.089882    2.101580    3.976114
    135          1           0       15.107636    0.158261    4.623446
    136          1           0       13.956589    0.279098    6.002812
    137          1           0       14.785580    1.623869    5.466070
    138          1           0       11.724661    0.935874    5.852140
    139          1           0       11.317203   -0.160623    4.666131
    140          1           0       10.881870    1.631761    4.482384
 ---------------------------------------------------------------------

 SCF Done:  E(RPBE1PBE) =  -3005.34897480     A.U. after   15 cycles

 Excitation energies and oscillator strengths:

 Excited State   1:      Singlet-A      1.8543 eV  668.63 nm  f=0.3880  <S**2>=0.000
     245 -> 248       -0.16348
     246 -> 247        0.69597
     246 <- 247       -0.11597
 This state for optimization and/or second-order correction.
 Total Energy, E(TD-HF/TD-DFT) =  -3005.28083048
 Copying the excited state density for this state as the 1-particle RhoCI density.

 Excited State   2:      Singlet-A      2.2306 eV  555.84 nm  f=0.1414  <S**2>=0.000
     245 -> 247        0.66129
     246 -> 248        0.23280

 Excited State   3:      Singlet-A      2.8640 eV  432.90 nm  f=0.0003  <S**2>=0.000
     242 -> 247        0.36977
     243 -> 247        0.45126
     244 -> 247        0.34941

 Excited State   4:      Singlet-A      2.9374 eV  422.09 nm  f=0.0008  <S**2>=0.000
     241 -> 247        0.10788
     242 -> 247        0.47966
     243 -> 247       -0.45761

 Excited State   5:      Singlet-A      2.9869 eV  415.10 nm  f=0.0050  <S**2>=0.000
     242 -> 247       -0.28896
     243 -> 247       -0.21681
     244 -> 247        0.59023

 The electronic state is 1-A.
 Alpha  occ. eigenvalues --  -46.91562 -19.25593 -19.24115 -19.20884 -19.19533
 Alpha  occ. eigenvalues --  -19.18829 -19.18616 -14.42022 -14.41240 -14.39705
 Alpha  occ. eigenvalues --  -14.38506 -10.37508 -10.35891 -10.31794 -10.31499
 Alpha  occ. eigenvalues --  -10.30681 -10.29489 -10.29080 -10.28646 -10.28570
 Alpha  occ. eigenvalues --  -10.28141 -10.27872 -10.27345 -10.27071 -10.26881
 Alpha  occ. eigenvalues --  -10.26389 -10.26384 -10.26291 -10.26151 -10.25868
 Alpha  occ. eigenvalues --  -10.25867 -10.25681 -10.25620 -10.25446 -10.25087
 Alpha  occ. eigenvalues --  -10.24997 -10.24947 -10.24772 -10.24386 -10.24385
 Alpha  occ. eigenvalues --  -10.24338 -10.24221 -10.24100 -10.23826 -10.23772
 Alpha  occ. eigenvalues --  -10.23707 -10.23662 -10.23651 -10.23484 -10.23464
 Alpha  occ. eigenvalues --  -10.23446 -10.23436 -10.23410 -10.23115 -10.22908
 Alpha  occ. eigenvalues --  -10.22688 -10.22657 -10.22419 -10.22261 -10.22166
 Alpha  occ. eigenvalues --  -10.22055 -10.22017 -10.21998 -10.21942 -10.21929
 Alpha  occ. eigenvalues --  -10.21899  -3.13778  -1.86629  -1.86145  -1.86011
 Alpha  occ. eigenvalues --   -1.10523  -1.08992  -1.03755  -1.03450  -1.02232
 Alpha  occ. eigenvalues --   -1.00567  -0.99338  -0.98549  -0.97388  -0.96352
 Alpha  occ. eigenvalues --   -0.87261  -0.84733  -0.84349  -0.83333  -0.83240
 Alpha  occ. eigenvalues --   -0.82800  -0.82067  -0.81977  -0.81750  -0.81023
 Alpha  occ. eigenvalues --   -0.80783  -0.79988  -0.78175  -0.77760  -0.77451
 Alpha  occ. eigenvalues --   -0.76361  -0.76102  -0.75427  -0.74975  -0.74497
 Alpha  occ. eigenvalues --   -0.73839  -0.72936  -0.72532  -0.71123  -0.70204
 Alpha  occ. eigenvalues --   -0.69879  -0.69844  -0.69500  -0.68960  -0.68313
 Alpha  occ. eigenvalues --   -0.67768  -0.67407  -0.65939  -0.65006  -0.63455
 Alpha  occ. eigenvalues --   -0.63115  -0.62977  -0.62095  -0.61127  -0.60390
 Alpha  occ. eigenvalues --   -0.60124  -0.59928  -0.59877  -0.58894  -0.58140
 Alpha  occ. eigenvalues --   -0.57717  -0.57508  -0.56606  -0.55935  -0.54794
 Alpha  occ. eigenvalues --   -0.54468  -0.54357  -0.53666  -0.53082  -0.52675
 Alpha  occ. eigenvalues --   -0.51932  -0.51327  -0.50921  -0.50093  -0.49764
 Alpha  occ. eigenvalues --   -0.49325  -0.49004  -0.48504  -0.48295  -0.48150
 Alpha  occ. eigenvalues --   -0.48087  -0.47836  -0.47633  -0.47123  -0.47063
 Alpha  occ. eigenvalues --   -0.46918  -0.46720  -0.46631  -0.46536  -0.46222
 Alpha  occ. eigenvalues --   -0.45814  -0.45699  -0.45392  -0.45120  -0.45074
 Alpha  occ. eigenvalues --   -0.44860  -0.44679  -0.44528  -0.44403  -0.44225
 Alpha  occ. eigenvalues --   -0.44053  -0.43863  -0.43633  -0.43422  -0.43275
 Alpha  occ. eigenvalues --   -0.43031  -0.42957  -0.42671  -0.42515  -0.42255
 Alpha  occ. eigenvalues --   -0.42142  -0.41959  -0.41880  -0.41665  -0.41282
 Alpha  occ. eigenvalues --   -0.41169  -0.40995  -0.40564  -0.40178  -0.40143
 Alpha  occ. eigenvalues --   -0.40093  -0.40028  -0.39908  -0.39776  -0.39499
 Alpha  occ. eigenvalues --   -0.39332  -0.39285  -0.38898  -0.38826  -0.38624
 Alpha  occ. eigenvalues --   -0.38595  -0.38108  -0.38031  -0.37799  -0.37621
 Alpha  occ. eigenvalues --   -0.37508  -0.37145  -0.36949  -0.36927  -0.36899
 Alpha  occ. eigenvalues --   -0.36739  -0.36604  -0.36379  -0.36310  -0.36089
 Alpha  occ. eigenvalues --   -0.35974  -0.35634  -0.35428  -0.35233  -0.35094
 Alpha  occ. eigenvalues --   -0.35043  -0.34870  -0.33909  -0.33854  -0.33624
 Alpha  occ. eigenvalues --   -0.33386  -0.33157  -0.32598  -0.32426  -0.32317
 Alpha  occ. eigenvalues --   -0.32151  -0.32057  -0.31832  -0.31454  -0.31405
 Alpha  occ. eigenvalues --   -0.30811  -0.29984  -0.29884  -0.29621  -0.29436
 Alpha  occ. eigenvalues --   -0.29150  -0.28600  -0.28462  -0.27284  -0.26011
 Alpha  occ. eigenvalues --   -0.25912  -0.25391  -0.25359  -0.25228  -0.21151
 Alpha  occ. eigenvalues --   -0.18989
 Alpha virt. eigenvalues --   -0.11499  -0.04998  -0.04080  -0.01923  -0.01085
 Alpha virt. eigenvalues --   -0.00056   0.00278   0.00883   0.01410   0.03547
 Alpha virt. eigenvalues --    0.04059   0.04913   0.05071   0.05537   0.06154

 Mulliken charges:
               1
     1  Mg   0.982990
     2  C   -0.106324
     3  C   -0.076012
     4  C   -0.029219
     5  C   -0.072282
     6  N   -0.404997
     7  C    0.041194
     8  C   -0.046721
     9  C   -0.136399
    10  C    0.084017
    11  C   -0.009225
    12  C    0.016823
    13  C    0.044715
    14  C    0.217105
    15  O   -0.272820
    16  O   -0.393679
    17  N   -0.545764
    18  C    0.217268
    19  C   -0.196288
    20  C   -0.036224
    21  C    0.172794
    22  C    0.057450
    23  C    0.026191
    24  O   -0.253943
    25  C   -0.020818
    26  N   -0.374972
    27  C    0.025251
    28  C   -0.079119
    29  C   -0.132986
    30  C    0.082392
    31  C    0.009117
    32  C   -0.044249
    33  C   -0.071691
    34  N   -0.446613
    35  C    0.137279
    36  C   -0.200390
    37  C   -0.006071
    38  C    0.180409
    39  C    0.078351
    40  C    0.115691
    41  O   -0.223469
    42  C   -0.115322
    43  C    0.314896
    44  O   -0.231336
    45  O   -0.406287
    46  C    0.117312
    47  C    0.250296
    48  C   -0.107042
    49  C   -0.253090
    50  C    0.026184
    51  C    0.008077
    52  C   -0.030625
    53  C   -0.028071
    54  C   -0.239829
    55  C   -0.039436
    56  C    0.033525
    57  C   -0.052244
    58  C   -0.000971
    59  C   -0.212568
    60  C   -0.030583
    61  C    0.005376
    62  C   -0.078553
    63  C   -0.022638
    64  C   -0.241240
    65  C   -0.015257
    66  C   -0.006123
    67  H    0.005445
    68  H    0.024450
    69  H    0.004199
    70  H    0.071062
    71  H    0.057239
    72  H    0.060672
    73  H    0.043278
    74  H    0.034249
    75  H    0.036762
    76  H    0.037102
    77  H    0.046566
    78  H    0.061466
    79  H    0.024995
    80  H    0.058862
    81  H    0.060535
    82  H    0.053306
    83  H    0.050109
    84  H    0.060483
    85  H    0.055371
    86  H    0.043287
    87  H    0.071202
    88  H    0.046887
    89  H    0.051016
    90  H    0.043367
    91  H    0.034449
    92  H    0.042708
    93  H    0.040239
    94  H    0.054931
    95  H    0.063460
    96  H    0.059879
    97  H    0.035773
    98  H    0.095163
    99  H    0.049087
   100  H    0.062718
   101  H    0.058235
   102  H    0.056562
   103  H    0.058978
   104  H    0.022931
   105  H    0.045742
   106  H    0.039395
   107  H    0.070680
   108  H    0.035934
   109  H    0.037303
   110  H    0.035315
   111  H    0.038265
   112  H    0.024357
   113  H    0.017644
   114  H    0.038861
   115  H    0.039557
   116  H    0.054219
   117  H    0.035080
   118  H    0.027135
   119  H    0.038019
   120  H    0.031277
   121  H    0.033027
   122  H    0.008235
   123  H    0.017876
   124  H    0.035562
   125  H    0.035524
   126  H    0.030289
   127  H    0.027790
   128  H    0.026578
   129  H    0.029469
   130  H    0.041266
   131  H    0.040897
   132  H    0.026165
   133  H    0.025321
   134  H    0.033067
   135  H    0.040286
   136  H    0.021961
   137  H    0.027719
   138  H    0.019220
   139  H    0.027769
   140  H    0.052962
 Sum of Mulliken charges =  -0.00000

 Dipole moment (field-independent basis, Debye):
    X=              4.3147    Y=              3.4113    Z=             -4.5326  Tot=              7.1273
 Quadrupole moment (field-independent basis, Debye-Ang):
   XX=           -368.6227   YY=           -437.7673   ZZ=           -402.1955
   XY=            -16.0744   XZ=             12.6701   YZ=             16.1081

 Normal termination of Gaussian 16 at Wed May  4 01:05:25 2022.
