 Gaussian 16, Revision A.03,
 Gaussian 16:  ES64L-G16RevA.03 25-Dec-2016

 --------------------------------
 #p wB97XD/Def2SVP td=(nstates=5)
 --------------------------------

 ----------------------------------------------------
 step_1201_chromophore_3 TDDFT with wB97XD functional
 ----------------------------------------------------
 Symbolic Z-matrix:
 Charge =  0 Multiplicity = 1

                         Standard orientation:
 ---------------------------------------------------------------------
 Center     Atomic      Atomic             Coordinates (Angstroms)
 Number     Number       Type             X           Y           Z
 ---------------------------------------------------------------------
      1         12           0       -5.431360    0.841503   -0.184900
      2          6           0       -4.352065   -2.440663    0.134517
      3          6           0       -2.144484    1.853275   -0.108709
      4          6           0       -6.644409    3.921879   -0.400696
      5          6           0       -8.667465   -0.277896    0.640237
      6          7           0       -3.481954   -0.160896    0.024379
      7          6           0       -3.272727   -1.547004    0.020165
      8          6           0       -1.788567   -1.941858   -0.271074
      9          6           0       -1.078652   -0.539180   -0.264147
     10          6           0       -2.274038    0.481526   -0.111974
     11          6           0       -0.073260   -0.333532    0.887442
     12          6           0       -1.675862   -2.717164   -1.563083
     13          6           0       -0.429926   -3.502238   -1.860982
     14          6           0        0.784400   -3.296800   -0.911610
     15          8           0        1.007404   -3.949593    0.105200
     16          8           0        1.745735   -2.443953   -1.433724
     17          7           0       -4.501092    2.621554   -0.166773
     18          6           0       -3.170658    2.836618   -0.054806
     19          6           0       -3.018089    4.330420    0.007776
     20          6           0       -4.319899    4.937049    0.049937
     21          6           0       -5.226770    3.849515   -0.229061
     22          6           0       -1.678407    4.939760   -0.066518
     23          6           0       -4.716948    6.341136    0.169031
     24          8           0       -5.865318    6.803407    0.213064
     25          6           0       -3.601198    7.349908    0.312534
     26          7           0       -7.402534    1.658962   -0.089500
     27          6           0       -7.633073    2.980529   -0.257331
     28          6           0       -9.096106    3.387800   -0.159051
     29          6           0       -9.776917    1.934642    0.117220
     30          6           0       -8.533580    1.015495    0.212125
     31          6           0       -9.468994    4.436194    0.944998
     32          6           0      -10.739167    1.399847   -1.023691
     33          6           0      -12.025850    0.567260   -0.620046
     34          7           0       -6.358749   -1.017049    0.231810
     35          6           0       -7.657327   -1.308281    0.644290
     36          6           0       -7.771156   -2.692460    0.897954
     37          6           0       -6.493221   -3.233457    0.688486
     38          6           0       -5.669863   -2.125990    0.344879
     39          6           0       -8.975318   -3.452351    1.356797
     40          6           0       -5.708384   -4.423726    0.749545
     41          8           0       -6.114840   -5.541454    1.071868
     42          6           0       -4.286569   -3.994430    0.254452
     43          6           0       -3.447859   -4.475066    1.363691
     44          8           0       -3.595411   -4.422883    2.571645
     45          8           0       -2.298345   -5.088146    0.826227
     46          6           0       -1.369558   -5.805049    1.759327
     47          6           0        3.047600   -2.271743   -0.720832
     48          6           0        4.138514   -1.888329   -1.788839
     49          6           0        5.335155   -2.371154   -2.192471
     50          6           0        6.112376   -3.429423   -1.425467
     51          6           0        5.992032   -1.884321   -3.497467
     52          6           0        6.818473   -0.529415   -3.386422
     53          6           0        8.356452   -0.809179   -3.379983
     54          6           0        9.120563    0.028166   -2.287979
     55          6           0        8.977190   -0.666016   -0.903958
     56          6           0       10.588119    0.228504   -2.603976
     57          6           0       11.009706    1.755635   -2.368767
     58          6           0       12.511598    1.939194   -1.832245
     59          6           0       12.741513    2.395123   -0.330132
     60          6           0       13.397693    3.810095   -0.185381
     61          6           0       13.402284    1.325925    0.576006
     62          6           0       12.390414    0.905695    1.676961
     63          6           0       13.149913    0.220215    2.828463
     64          6           0       13.045556    1.031677    4.176356
     65          6           0       14.296754    0.732557    5.071748
     66          6           0       11.618926    0.882080    4.768637
     67          1           0       -1.094600    2.151455   -0.056385
     68          1           0       -7.118328    4.905378   -0.437983
     69          1           0       -9.659131   -0.517866    1.029854
     70          1           0       -1.481311   -2.517656    0.602058
     71          1           0       -0.461311   -0.381974   -1.148657
     72          1           0       -0.024836   -1.208640    1.535301
     73          1           0       -0.292454    0.563480    1.467161
     74          1           0        0.908686   -0.076494    0.491563
     75          1           0       -1.867550   -2.027978   -2.385120
     76          1           0       -2.455476   -3.471619   -1.669785
     77          1           0       -0.250961   -3.380020   -2.929970
     78          1           0       -0.554285   -4.584597   -1.874031
     79          1           0       -1.009389    4.102185   -0.264235
     80          1           0       -1.289981    5.357724    0.862394
     81          1           0       -1.623246    5.655572   -0.886934
     82          1           0       -4.033661    8.344817    0.414776
     83          1           0       -3.033404    7.313088   -0.617804
     84          1           0       -2.959561    7.098718    1.156959
     85          1           0       -9.395357    3.707229   -1.156967
     86          1           0      -10.312941    1.796275    1.056845
     87          1           0       -8.664816    4.639544    1.651322
     88          1           0      -10.399656    4.190904    1.456172
     89          1           0       -9.690350    5.299536    0.316628
     90          1           0      -10.172392    0.976013   -1.852718
     91          1           0      -11.199338    2.284274   -1.465221
     92          1           0      -12.500153    0.971009    0.274515
     93          1           0      -11.636075   -0.406706   -0.322866
     94          1           0      -12.739564    0.444722   -1.434793
     95          1           0       -8.723508   -4.202871    2.106463
     96          1           0       -9.360763   -4.026466    0.514727
     97          1           0       -9.710612   -2.776767    1.794089
     98          1           0       -4.053926   -4.325568   -0.758567
     99          1           0       -0.986027   -6.750561    1.376475
    100          1           0       -1.656693   -6.022380    2.788232
    101          1           0       -0.493599   -5.163961    1.851117
    102          1           0        3.223410   -3.254483   -0.281867
    103          1           0        2.885471   -1.516579    0.048000
    104          1           0        3.753643   -1.140810   -2.483081
    105          1           0        5.800712   -3.351111   -0.383405
    106          1           0        7.145219   -3.082134   -1.436728
    107          1           0        5.984002   -4.379187   -1.944364
    108          1           0        5.289852   -1.671369   -4.303599
    109          1           0        6.562766   -2.724127   -3.894112
    110          1           0        6.672733   -0.001062   -2.443767
    111          1           0        6.602094    0.247824   -4.119695
    112          1           0        8.787498   -0.669707   -4.370670
    113          1           0        8.551605   -1.865046   -3.190777
    114          1           0        8.571676    0.963305   -2.173049
    115          1           0        7.950686   -0.683103   -0.536421
    116          1           0        9.700542   -0.128428   -0.290044
    117          1           0        9.280314   -1.712285   -0.939046
    118          1           0       10.704025    0.080025   -3.677474
    119          1           0       11.157837   -0.535438   -2.075317
    120          1           0       10.428169    2.409256   -1.717236
    121          1           0       10.972882    2.291643   -3.316894
    122          1           0       13.044772    2.736332   -2.351519
    123          1           0       13.141123    1.084228   -2.076263
    124          1           0       11.759174    2.563468    0.110640
    125          1           0       14.421378    3.772246    0.188761
    126          1           0       12.804953    4.433636    0.483635
    127          1           0       13.461229    4.450333   -1.064445
    128          1           0       14.247845    1.773304    1.098505
    129          1           0       13.747954    0.428435    0.063917
    130          1           0       11.857515    0.012161    1.350893
    131          1           0       11.778900    1.768081    1.941510
    132          1           0       14.204695    0.093883    2.580736
    133          1           0       12.698113   -0.763936    2.953354
    134          1           0       13.089882    2.101580    3.976114
    135          1           0       15.107636    0.158261    4.623446
    136          1           0       13.956589    0.279098    6.002812
    137          1           0       14.785580    1.623869    5.466070
    138          1           0       11.724661    0.935874    5.852140
    139          1           0       11.317203   -0.160623    4.666131
    140          1           0       10.881870    1.631761    4.482384
 ---------------------------------------------------------------------

 SCF Done:  E(RwB97XD) =  -3007.86053732     A.U. after   20 cycles

 Excitation energies and oscillator strengths:

 Excited State   1:      Singlet-A      1.6284 eV  761.40 nm  f=0.4006  <S**2>=0.000
     245 -> 248        0.17800
     246 -> 247        0.68579
     245 <- 248        0.11616
 This state for optimization and/or second-order correction.
 Total Energy, E(TD-HF/TD-DFT) =  -3007.80069613
 Copying the excited state density for this state as the 1-particle RhoCI density.

 Excited State   2:      Singlet-A      2.1725 eV  570.69 nm  f=0.1459  <S**2>=0.000
     245 -> 247        0.65017
     246 -> 248       -0.26184

 Excited State   3:      Singlet-A      3.3359 eV  371.67 nm  f=0.0002  <S**2>=0.000
     242 -> 247        0.10159
     243 -> 247       -0.15062
     244 -> 247        0.65075

 Excited State   4:      Singlet-A      3.4446 eV  359.94 nm  f=0.0033  <S**2>=0.000
     242 -> 247        0.51782
     242 -> 249       -0.25640
     242 -> 250       -0.23559
     243 -> 247        0.26776

 Excited State   5:      Singlet-A      3.4741 eV  356.88 nm  f=0.0022  <S**2>=0.000
     240 -> 249       -0.15402
     242 -> 247       -0.23210
     243 -> 247        0.54985
     243 -> 249        0.13987
     244 -> 247        0.16497
     246 -> 248        0.13882

 The electronic state is 1-A.
 Alpha  occ. eigenvalues --  -46.94508 -19.30123 -19.28678 -19.25531 -19.24265
 Alpha  occ. eigenvalues --  -19.23689 -19.23378 -14.47071 -14.46398 -14.44679
 Alpha  occ. eigenvalues --  -14.43421 -10.44274 -10.42736 -10.38703 -10.38322
 Alpha  occ. eigenvalues --  -10.37202 -10.35745 -10.35427 -10.35050 -10.34987
 Alpha  occ. eigenvalues --  -10.34494 -10.34089 -10.33585 -10.33551 -10.33437
 Alpha  occ. eigenvalues --  -10.32788 -10.32647 -10.32554 -10.32378 -10.32209
 Alpha  occ. eigenvalues --  -10.32048 -10.31960 -10.31896 -10.31860 -10.31492
 Alpha  occ. eigenvalues --  -10.31369 -10.31341 -10.31239 -10.30784 -10.30761
 Alpha  occ. eigenvalues --  -10.30757 -10.30654 -10.30489 -10.30238 -10.30187
 Alpha  occ. eigenvalues --  -10.30173 -10.30020 -10.29929 -10.29864 -10.29853
 Alpha  occ. eigenvalues --  -10.29816 -10.29741 -10.29681 -10.29492 -10.29331
 Alpha  occ. eigenvalues --  -10.29321 -10.29016 -10.28777 -10.28715 -10.28531
 Alpha  occ. eigenvalues --  -10.28480 -10.28377 -10.28363 -10.28346 -10.28343
 Alpha  occ. eigenvalues --  -10.28127  -3.20569  -1.94172  -1.93687  -1.93550
 Alpha  occ. eigenvalues --   -1.17883  -1.16416  -1.11307  -1.10895  -1.09556
 Alpha  occ. eigenvalues --   -1.07948  -1.06687  -1.05901  -1.04813  -1.03772
 Alpha  occ. eigenvalues --   -0.94860  -0.92371  -0.92030  -0.91008  -0.90858
 Alpha  occ. eigenvalues --   -0.90469  -0.89757  -0.89566  -0.89423  -0.88593
 Alpha  occ. eigenvalues --   -0.88453  -0.87623  -0.85842  -0.85392  -0.85085
 Alpha  occ. eigenvalues --   -0.84026  -0.83820  -0.83118  -0.82623  -0.82122
 Alpha  occ. eigenvalues --   -0.81525  -0.80626  -0.80165  -0.78725  -0.77885
 Alpha  occ. eigenvalues --   -0.77572  -0.77474  -0.77089  -0.76651  -0.75977
 Alpha  occ. eigenvalues --   -0.75374  -0.74949  -0.73483  -0.72607  -0.71006
 Alpha  occ. eigenvalues --   -0.70736  -0.70558  -0.69679  -0.68768  -0.67884
 Alpha  occ. eigenvalues --   -0.67635  -0.67519  -0.67394  -0.66319  -0.65823
 Alpha  occ. eigenvalues --   -0.65366  -0.64977  -0.64231  -0.63367  -0.62271
 Alpha  occ. eigenvalues --   -0.61919  -0.61815  -0.61126  -0.60434  -0.60146
 Alpha  occ. eigenvalues --   -0.59324  -0.58729  -0.58344  -0.57569  -0.57175
 Alpha  occ. eigenvalues --   -0.56711  -0.56353  -0.55905  -0.55739  -0.55566
 Alpha  occ. eigenvalues --   -0.55481  -0.55281  -0.55106  -0.54657  -0.54408
 Alpha  occ. eigenvalues --   -0.54301  -0.54111  -0.54000  -0.53947  -0.53517
 Alpha  occ. eigenvalues --   -0.53160  -0.53063  -0.52774  -0.52453  -0.52430
 Alpha  occ. eigenvalues --   -0.52187  -0.52030  -0.51831  -0.51746  -0.51636
 Alpha  occ. eigenvalues --   -0.51368  -0.51189  -0.50966  -0.50768  -0.50614
 Alpha  occ. eigenvalues --   -0.50328  -0.50224  -0.49963  -0.49833  -0.49548
 Alpha  occ. eigenvalues --   -0.49375  -0.49262  -0.49152  -0.48884  -0.48499
 Alpha  occ. eigenvalues --   -0.48368  -0.48185  -0.47742  -0.47408  -0.47335
 Alpha  occ. eigenvalues --   -0.47319  -0.47231  -0.47085  -0.46995  -0.46616
 Alpha  occ. eigenvalues --   -0.46553  -0.46461  -0.46075  -0.45968  -0.45781
 Alpha  occ. eigenvalues --   -0.45765  -0.45217  -0.45203  -0.44937  -0.44742
 Alpha  occ. eigenvalues --   -0.44583  -0.44241  -0.44097  -0.44052  -0.43965
 Alpha  occ. eigenvalues --   -0.43864  -0.43676  -0.43552  -0.43432  -0.43195
 Alpha  occ. eigenvalues --   -0.43112  -0.42598  -0.42450  -0.42198  -0.42142
 Alpha  occ. eigenvalues --   -0.42108  -0.41957  -0.40943  -0.40879  -0.40684
 Alpha  occ. eigenvalues --   -0.40366  -0.40116  -0.39635  -0.39408  -0.39353
 Alpha  occ. eigenvalues --   -0.39178  -0.39090  -0.38863  -0.38499  -0.38238
 Alpha  occ. eigenvalues --   -0.37806  -0.36999  -0.36853  -0.36499  -0.36406
 Alpha  occ. eigenvalues --   -0.36114  -0.35469  -0.35313  -0.33894  -0.32814
 Alpha  occ. eigenvalues --   -0.32749  -0.32439  -0.32299  -0.31723  -0.26150
 Alpha  occ. eigenvalues --   -0.23160
 Alpha virt. eigenvalues --   -0.07452   0.00501   0.02161   0.04561   0.05635
 Alpha virt. eigenvalues --    0.05879   0.07055   0.07664   0.08097   0.09770
 Alpha virt. eigenvalues --    0.10673   0.11525   0.11912   0.12289   0.12908

 Mulliken charges:
               1
     1  Mg   0.971317
     2  C   -0.114791
     3  C   -0.093138
     4  C   -0.042516
     5  C   -0.089178
     6  N   -0.374096
     7  C    0.010278
     8  C   -0.009978
     9  C   -0.117807
    10  C    0.076254
    11  C    0.001144
    12  C    0.027546
    13  C    0.056221
    14  C    0.202467
    15  O   -0.268145
    16  O   -0.391603
    17  N   -0.513776
    18  C    0.205278
    19  C   -0.182653
    20  C   -0.031959
    21  C    0.164521
    22  C    0.069840
    23  C    0.022164
    24  O   -0.247190
    25  C   -0.006118
    26  N   -0.338744
    27  C    0.011296
    28  C   -0.054089
    29  C   -0.107459
    30  C    0.069887
    31  C    0.018733
    32  C   -0.033086
    33  C   -0.052160
    34  N   -0.406510
    35  C    0.127200
    36  C   -0.193234
    37  C   -0.002262
    38  C    0.163246
    39  C    0.088170
    40  C    0.096989
    41  O   -0.214317
    42  C   -0.075199
    43  C    0.290946
    44  O   -0.225910
    45  O   -0.404339
    46  C    0.133926
    47  C    0.266114
    48  C   -0.119846
    49  C   -0.238704
    50  C    0.047852
    51  C    0.026617
    52  C   -0.014413
    53  C   -0.015234
    54  C   -0.206699
    55  C   -0.020083
    56  C    0.048751
    57  C   -0.034712
    58  C    0.011687
    59  C   -0.181163
    60  C   -0.017825
    61  C    0.019070
    62  C   -0.059137
    63  C   -0.004055
    64  C   -0.213452
    65  C   -0.003321
    66  C    0.005066
    67  H   -0.002168
    68  H    0.018199
    69  H   -0.004694
    70  H    0.051580
    71  H    0.048804
    72  H    0.056795
    73  H    0.036825
    74  H    0.026845
    75  H    0.029710
    76  H    0.024852
    77  H    0.042811
    78  H    0.057085
    79  H    0.019160
    80  H    0.055045
    81  H    0.055240
    82  H    0.052426
    83  H    0.042921
    84  H    0.054357
    85  H    0.046164
    86  H    0.032202
    87  H    0.066122
    88  H    0.041810
    89  H    0.045409
    90  H    0.036332
    91  H    0.024118
    92  H    0.036514
    93  H    0.030815
    94  H    0.050686
    95  H    0.059704
    96  H    0.055103
    97  H    0.030177
    98  H    0.089102
    99  H    0.045391
   100  H    0.059379
   101  H    0.052444
   102  H    0.051258
   103  H    0.053854
   104  H    0.019082
   105  H    0.040235
   106  H    0.024702
   107  H    0.066451
   108  H    0.029917
   109  H    0.029443
   110  H    0.021675
   111  H    0.033096
   112  H    0.016542
   113  H    0.004775
   114  H    0.025126
   115  H    0.032225
   116  H    0.040802
   117  H    0.027348
   118  H    0.018656
   119  H    0.029039
   120  H    0.022193
   121  H    0.026308
   122  H   -0.000921
   123  H    0.009166
   124  H    0.017647
   125  H    0.029168
   126  H    0.024652
   127  H    0.021879
   128  H    0.014138
   129  H    0.021973
   130  H    0.031070
   131  H    0.030551
   132  H    0.015663
   133  H    0.016288
   134  H    0.020753
   135  H    0.035247
   136  H    0.015077
   137  H    0.022260
   138  H    0.012337
   139  H    0.020473
   140  H    0.048912
 Sum of Mulliken charges =  -0.00000

 Dipole moment (field-independent basis, Debye):
    X=              4.4331    Y=              3.5968    Z=             -4.5553  Tot=              7.3034
 Quadrupole moment (field-independent basis, Debye-Ang):
   XX=           -370.5583   YY=           -435.8264   ZZ=           -401.9023
   XY=            -16.5145   XZ=             12.8445   YZ=             16.2691

 Normal termination of Gaussian 16 at Wed May  4 01:32:58 2022.
