 Gaussian 16, Revision A.03,
 Gaussian 16:  ES64L-G16RevA.03 25-Dec-2016

 --------------------
 #p ZINDO=(nstates=5)
 --------------------

 -----------------------------
 step_1201_chromophore_3 ZINDO
 -----------------------------
 Symbolic Z-matrix:
 Charge =  0 Multiplicity = 1

                         Standard orientation:
 ---------------------------------------------------------------------
 Center     Atomic      Atomic             Coordinates (Angstroms)
 Number     Number       Type             X           Y           Z
 ---------------------------------------------------------------------
      1         12           0       -5.431360    0.841503   -0.184900
      2          6           0       -4.352065   -2.440663    0.134517
      3          6           0       -2.144484    1.853275   -0.108709
      4          6           0       -6.644409    3.921879   -0.400696
      5          6           0       -8.667465   -0.277896    0.640237
      6          7           0       -3.481954   -0.160896    0.024379
      7          6           0       -3.272727   -1.547004    0.020165
      8          6           0       -1.788567   -1.941858   -0.271074
      9          6           0       -1.078652   -0.539180   -0.264147
     10          6           0       -2.274038    0.481526   -0.111974
     11          6           0       -0.073260   -0.333532    0.887442
     12          6           0       -1.675862   -2.717164   -1.563083
     13          6           0       -0.429926   -3.502238   -1.860982
     14          6           0        0.784400   -3.296800   -0.911610
     15          8           0        1.007404   -3.949593    0.105200
     16          8           0        1.745735   -2.443953   -1.433724
     17          7           0       -4.501092    2.621554   -0.166773
     18          6           0       -3.170658    2.836618   -0.054806
     19          6           0       -3.018089    4.330420    0.007776
     20          6           0       -4.319899    4.937049    0.049937
     21          6           0       -5.226770    3.849515   -0.229061
     22          6           0       -1.678407    4.939760   -0.066518
     23          6           0       -4.716948    6.341136    0.169031
     24          8           0       -5.865318    6.803407    0.213064
     25          6           0       -3.601198    7.349908    0.312534
     26          7           0       -7.402534    1.658962   -0.089500
     27          6           0       -7.633073    2.980529   -0.257331
     28          6           0       -9.096106    3.387800   -0.159051
     29          6           0       -9.776917    1.934642    0.117220
     30          6           0       -8.533580    1.015495    0.212125
     31          6           0       -9.468994    4.436194    0.944998
     32          6           0      -10.739167    1.399847   -1.023691
     33          6           0      -12.025850    0.567260   -0.620046
     34          7           0       -6.358749   -1.017049    0.231810
     35          6           0       -7.657327   -1.308281    0.644290
     36          6           0       -7.771156   -2.692460    0.897954
     37          6           0       -6.493221   -3.233457    0.688486
     38          6           0       -5.669863   -2.125990    0.344879
     39          6           0       -8.975318   -3.452351    1.356797
     40          6           0       -5.708384   -4.423726    0.749545
     41          8           0       -6.114840   -5.541454    1.071868
     42          6           0       -4.286569   -3.994430    0.254452
     43          6           0       -3.447859   -4.475066    1.363691
     44          8           0       -3.595411   -4.422883    2.571645
     45          8           0       -2.298345   -5.088146    0.826227
     46          6           0       -1.369558   -5.805049    1.759327
     47          6           0        3.047600   -2.271743   -0.720832
     48          6           0        4.138514   -1.888329   -1.788839
     49          6           0        5.335155   -2.371154   -2.192471
     50          6           0        6.112376   -3.429423   -1.425467
     51          6           0        5.992032   -1.884321   -3.497467
     52          6           0        6.818473   -0.529415   -3.386422
     53          6           0        8.356452   -0.809179   -3.379983
     54          6           0        9.120563    0.028166   -2.287979
     55          6           0        8.977190   -0.666016   -0.903958
     56          6           0       10.588119    0.228504   -2.603976
     57          6           0       11.009706    1.755635   -2.368767
     58          6           0       12.511598    1.939194   -1.832245
     59          6           0       12.741513    2.395123   -0.330132
     60          6           0       13.397693    3.810095   -0.185381
     61          6           0       13.402284    1.325925    0.576006
     62          6           0       12.390414    0.905695    1.676961
     63          6           0       13.149913    0.220215    2.828463
     64          6           0       13.045556    1.031677    4.176356
     65          6           0       14.296754    0.732557    5.071748
     66          6           0       11.618926    0.882080    4.768637
     67          1           0       -1.094600    2.151455   -0.056385
     68          1           0       -7.118328    4.905378   -0.437983
     69          1           0       -9.659131   -0.517866    1.029854
     70          1           0       -1.481311   -2.517656    0.602058
     71          1           0       -0.461311   -0.381974   -1.148657
     72          1           0       -0.024836   -1.208640    1.535301
     73          1           0       -0.292454    0.563480    1.467161
     74          1           0        0.908686   -0.076494    0.491563
     75          1           0       -1.867550   -2.027978   -2.385120
     76          1           0       -2.455476   -3.471619   -1.669785
     77          1           0       -0.250961   -3.380020   -2.929970
     78          1           0       -0.554285   -4.584597   -1.874031
     79          1           0       -1.009389    4.102185   -0.264235
     80          1           0       -1.289981    5.357724    0.862394
     81          1           0       -1.623246    5.655572   -0.886934
     82          1           0       -4.033661    8.344817    0.414776
     83          1           0       -3.033404    7.313088   -0.617804
     84          1           0       -2.959561    7.098718    1.156959
     85          1           0       -9.395357    3.707229   -1.156967
     86          1           0      -10.312941    1.796275    1.056845
     87          1           0       -8.664816    4.639544    1.651322
     88          1           0      -10.399656    4.190904    1.456172
     89          1           0       -9.690350    5.299536    0.316628
     90          1           0      -10.172392    0.976013   -1.852718
     91          1           0      -11.199338    2.284274   -1.465221
     92          1           0      -12.500153    0.971009    0.274515
     93          1           0      -11.636075   -0.406706   -0.322866
     94          1           0      -12.739564    0.444722   -1.434793
     95          1           0       -8.723508   -4.202871    2.106463
     96          1           0       -9.360763   -4.026466    0.514727
     97          1           0       -9.710612   -2.776767    1.794089
     98          1           0       -4.053926   -4.325568   -0.758567
     99          1           0       -0.986027   -6.750561    1.376475
    100          1           0       -1.656693   -6.022380    2.788232
    101          1           0       -0.493599   -5.163961    1.851117
    102          1           0        3.223410   -3.254483   -0.281867
    103          1           0        2.885471   -1.516579    0.048000
    104          1           0        3.753643   -1.140810   -2.483081
    105          1           0        5.800712   -3.351111   -0.383405
    106          1           0        7.145219   -3.082134   -1.436728
    107          1           0        5.984002   -4.379187   -1.944364
    108          1           0        5.289852   -1.671369   -4.303599
    109          1           0        6.562766   -2.724127   -3.894112
    110          1           0        6.672733   -0.001062   -2.443767
    111          1           0        6.602094    0.247824   -4.119695
    112          1           0        8.787498   -0.669707   -4.370670
    113          1           0        8.551605   -1.865046   -3.190777
    114          1           0        8.571676    0.963305   -2.173049
    115          1           0        7.950686   -0.683103   -0.536421
    116          1           0        9.700542   -0.128428   -0.290044
    117          1           0        9.280314   -1.712285   -0.939046
    118          1           0       10.704025    0.080025   -3.677474
    119          1           0       11.157837   -0.535438   -2.075317
    120          1           0       10.428169    2.409256   -1.717236
    121          1           0       10.972882    2.291643   -3.316894
    122          1           0       13.044772    2.736332   -2.351519
    123          1           0       13.141123    1.084228   -2.076263
    124          1           0       11.759174    2.563468    0.110640
    125          1           0       14.421378    3.772246    0.188761
    126          1           0       12.804953    4.433636    0.483635
    127          1           0       13.461229    4.450333   -1.064445
    128          1           0       14.247845    1.773304    1.098505
    129          1           0       13.747954    0.428435    0.063917
    130          1           0       11.857515    0.012161    1.350893
    131          1           0       11.778900    1.768081    1.941510
    132          1           0       14.204695    0.093883    2.580736
    133          1           0       12.698113   -0.763936    2.953354
    134          1           0       13.089882    2.101580    3.976114
    135          1           0       15.107636    0.158261    4.623446
    136          1           0       13.956589    0.279098    6.002812
    137          1           0       14.785580    1.623869    5.466070
    138          1           0       11.724661    0.935874    5.852140
    139          1           0       11.317203   -0.160623    4.666131
    140          1           0       10.881870    1.631761    4.482384
 ---------------------------------------------------------------------

 SCF Done:  E(RZINDO/S) =  -473.998481307     A.U. after   19 cycles

 Excitation energies and oscillator strengths:

 Excited State   1:      Singlet-A      1.2222 eV 1014.43 nm  f=0.6349  <S**2>=0.000
     175 ->178        -0.18715
     176 ->177         0.66342
 This state for optimization and/or second-order correction.
 Total Energy, E(CIS/TDA) =  -473.953565882
 Copying the excited state density for this state as the 1-particle RhoCI density.

 Excited State   2:      Singlet-A      1.9377 eV  639.86 nm  f=0.0701  <S**2>=0.000
     175 ->177         0.56170
     176 ->178         0.40245

 Excited State   3:      Singlet-A      2.9169 eV  425.06 nm  f=0.0308  <S**2>=0.000
     168 ->177         0.27021
     168 ->178         0.11314
     168 ->179        -0.42161
     168 ->181         0.24393
     168 ->186        -0.19964
     168 ->196         0.10383
     170 ->177         0.11077

 Excited State   4:      Singlet-A      2.9299 eV  423.16 nm  f=0.0109  <S**2>=0.000
     170 ->177         0.35276
     170 ->178         0.16857
     170 ->179         0.29751
     170 ->181         0.32728
     170 ->186         0.18125
     170 ->187         0.14333
     170 ->202        -0.11926

 Excited State   5:      Singlet-A      3.0044 eV  412.67 nm  f=0.1801  <S**2>=0.000
     175 ->177        -0.15101
     176 ->178         0.27018
     176 ->179         0.58573

 The electronic state is 1-A.
 Alpha  occ. eigenvalues --   -1.85445  -1.80466  -1.78973  -1.71867  -1.69838
 Alpha  occ. eigenvalues --   -1.68829  -1.63616  -1.60908  -1.58666  -1.57493
 Alpha  occ. eigenvalues --   -1.52788  -1.50525  -1.48404  -1.47202  -1.45290
 Alpha  occ. eigenvalues --   -1.43810  -1.42580  -1.40770  -1.39353  -1.37101
 Alpha  occ. eigenvalues --   -1.36940  -1.33808  -1.33307  -1.32264  -1.28249
 Alpha  occ. eigenvalues --   -1.26104  -1.25220  -1.22451  -1.20207  -1.18070
 Alpha  occ. eigenvalues --   -1.17539  -1.16482  -1.15049  -1.14108  -1.12862
 Alpha  occ. eigenvalues --   -1.12196  -1.11218  -1.11029  -1.05106  -1.03499
 Alpha  occ. eigenvalues --   -1.02799  -1.01340  -0.99612  -0.97782  -0.96966
 Alpha  occ. eigenvalues --   -0.96258  -0.94528  -0.94172  -0.92808  -0.92731
 Alpha  occ. eigenvalues --   -0.91490  -0.90128  -0.89560  -0.89121  -0.86374
 Alpha  occ. eigenvalues --   -0.86075  -0.83949  -0.83228  -0.82066  -0.80565
 Alpha  occ. eigenvalues --   -0.79369  -0.78950  -0.77288  -0.76434  -0.75993
 Alpha  occ. eigenvalues --   -0.75366  -0.75210  -0.74807  -0.73719  -0.73158
 Alpha  occ. eigenvalues --   -0.73089  -0.72327  -0.71510  -0.71169  -0.70722
 Alpha  occ. eigenvalues --   -0.70543  -0.69572  -0.68836  -0.68192  -0.67602
 Alpha  occ. eigenvalues --   -0.67460  -0.67017  -0.66490  -0.65977  -0.65748
 Alpha  occ. eigenvalues --   -0.64852  -0.64616  -0.64204  -0.64022  -0.63570
 Alpha  occ. eigenvalues --   -0.62999  -0.62707  -0.61890  -0.61817  -0.61694
 Alpha  occ. eigenvalues --   -0.61326  -0.61067  -0.60979  -0.60468  -0.60320
 Alpha  occ. eigenvalues --   -0.59858  -0.59255  -0.58823  -0.58490  -0.58015
 Alpha  occ. eigenvalues --   -0.57987  -0.57334  -0.57295  -0.56824  -0.56502
 Alpha  occ. eigenvalues --   -0.56404  -0.56227  -0.55223  -0.55087  -0.54611
 Alpha  occ. eigenvalues --   -0.54436  -0.54270  -0.53820  -0.53021  -0.52914
 Alpha  occ. eigenvalues --   -0.52595  -0.52018  -0.51927  -0.51907  -0.51605
 Alpha  occ. eigenvalues --   -0.51266  -0.51030  -0.50952  -0.50695  -0.50509
 Alpha  occ. eigenvalues --   -0.49778  -0.49763  -0.49389  -0.49234  -0.49170
 Alpha  occ. eigenvalues --   -0.49078  -0.48646  -0.48510  -0.48263  -0.47909
 Alpha  occ. eigenvalues --   -0.47596  -0.47366  -0.47037  -0.46680  -0.46498
 Alpha  occ. eigenvalues --   -0.46063  -0.46029  -0.45552  -0.45376  -0.45167
 Alpha  occ. eigenvalues --   -0.45124  -0.44959  -0.44796  -0.44445  -0.44372
 Alpha  occ. eigenvalues --   -0.43917  -0.43861  -0.42960  -0.42459  -0.42145
 Alpha  occ. eigenvalues --   -0.41719  -0.41452  -0.40782  -0.39257  -0.39153
 Alpha  occ. eigenvalues --   -0.38023  -0.37213  -0.35287  -0.34943  -0.34377
 Alpha  occ. eigenvalues --   -0.33192  -0.33140  -0.32712  -0.32298  -0.26775
 Alpha  occ. eigenvalues --   -0.21847
 Alpha virt. eigenvalues --   -0.08861  -0.01920  -0.00656   0.01097   0.01350
 Alpha virt. eigenvalues --    0.02446   0.02902   0.03267   0.04035   0.05018
 Alpha virt. eigenvalues --    0.06392   0.07091   0.07451   0.07686   0.08252

 Mulliken charges:
               1
     1  Mg   0.424107
     2  C   -0.048433
     3  C   -0.078060
     4  C   -0.062324
     5  C   -0.065860
     6  N   -0.295262
     7  C    0.111113
     8  C    0.012730
     9  C    0.003488
    10  C    0.134868
    11  C   -0.053906
    12  C   -0.006913
    13  C    0.008563
    14  C    0.467771
    15  O   -0.515242
    16  O   -0.288247
    17  N   -0.321562
    18  C    0.116142
    19  C    0.011308
    20  C   -0.040048
    21  C    0.122742
    22  C   -0.043461
    23  C    0.331942
    24  O   -0.534771
    25  C   -0.033800
    26  N   -0.262369
    27  C    0.144749
    28  C    0.004848
    29  C   -0.013937
    30  C    0.129253
    31  C   -0.049039
    32  C   -0.036804
    33  C   -0.056933
    34  N   -0.324050
    35  C    0.085017
    36  C    0.044428
    37  C   -0.066277
    38  C    0.135379
    39  C   -0.038474
    40  C    0.336161
    41  O   -0.525762
    42  C    0.056076
    43  C    0.494883
    44  O   -0.504645
    45  O   -0.295583
    46  C    0.069373
    47  C    0.109639
    48  C   -0.099240
    49  C    0.008145
    50  C   -0.046666
    51  C   -0.016260
    52  C   -0.036402
    53  C   -0.043208
    54  C   -0.014341
    55  C   -0.061088
    56  C   -0.024922
    57  C   -0.039877
    58  C   -0.051020
    59  C   -0.014902
    60  C   -0.059919
    61  C   -0.034015
    62  C   -0.048753
    63  C   -0.039167
    64  C   -0.013335
    65  C   -0.060814
    66  C   -0.058639
    67  H    0.026141
    68  H    0.041202
    69  H    0.027780
    70  H    0.049886
    71  H    0.033758
    72  H    0.033942
    73  H    0.020304
    74  H    0.015341
    75  H    0.020373
    76  H    0.022584
    77  H    0.032343
    78  H    0.040137
    79  H    0.018597
    80  H    0.034900
    81  H    0.033578
    82  H    0.036458
    83  H    0.033569
    84  H    0.036992
    85  H    0.039854
    86  H    0.036472
    87  H    0.039121
    88  H    0.022943
    89  H    0.021309
    90  H    0.029018
    91  H    0.003811
    92  H    0.023781
    93  H    0.014387
    94  H    0.028502
    95  H    0.036743
    96  H    0.036053
    97  H    0.021406
    98  H    0.063077
    99  H    0.034892
   100  H    0.053386
   101  H    0.035615
   102  H    0.053836
   103  H    0.052017
   104  H    0.014591
   105  H    0.027828
   106  H    0.024561
   107  H    0.043785
   108  H    0.017553
   109  H    0.024097
   110  H    0.021058
   111  H    0.025447
   112  H    0.014445
   113  H    0.015168
   114  H    0.020999
   115  H    0.020081
   116  H    0.018887
   117  H    0.015868
   118  H    0.016782
   119  H    0.032743
   120  H    0.028999
   121  H    0.016525
   122  H    0.012200
   123  H    0.017883
   124  H    0.016174
   125  H    0.018048
   126  H    0.013038
   127  H    0.016947
   128  H    0.019260
   129  H    0.024445
   130  H    0.019858
   131  H    0.036256
   132  H    0.018664
   133  H    0.017038
   134  H    0.014528
   135  H    0.026285
   136  H    0.014749
   137  H    0.012758
   138  H    0.007436
   139  H    0.020055
   140  H    0.032460
 Sum of Mulliken charges =  -0.00000

 Dipole moment (field-independent basis, Debye):
    X=              5.8086    Y=              4.7704    Z=             -6.3233  Tot=              9.8225
 N-N= 4.279424620832D+03 E-N= 0.000000000000D+00  KE=-9.232856665673D+03
 Leave Link  601 at Wed May  4 01:46:48 2022, MaxMem=  6710886400 cpu:               0.8 elap:               0.0
 (Enter /sw/apps/gaussian-16.0/g16/l9999.exe)
 1\1\GINC-BP1-COMPUTE065\SP\RZINDO CIS\STO-3G\C55H74Mg1N4O6\OF15641\04-
 May-2022\0\\#p ZINDO=(nstates=5)\\step_1201_chromophore_3 ZINDO\\0,1\M
 g,0,1.594,8.36,26.173\C,0,1.745,10.544,28.865\C,0,2.343,5.778,28.319\C
 ,0,1.5,6.433,23.474\C,0,1.725,11.169,24.052\N,0,2.029,8.179,28.324\C,0
 ,1.914,9.208,29.269\C,0,1.843,8.684,30.74\C,0,2.121,7.149,30.545\C,0,2
 .172,6.977,28.976\C,0,3.444,6.652,31.163\C,0,0.515,9.025,31.375\C,0,0.
 355,8.949,32.867\C,0,1.516,8.303,33.675\O,0,2.481,8.908,34.136\O,0,1.2

 Normal termination of Gaussian 16 at Wed May  4 01:46:48 2022.
