 Gaussian 16, Revision A.03,
 Gaussian 16:  ES64L-G16RevA.03 25-Dec-2016

 ------------------------------
 #p blyp/Def2SVP td=(nstates=5)
 ------------------------------

 --------------------------------------------------
 step_901_chromophore_21 TDDFT with blyp functional
 --------------------------------------------------
 Symbolic Z-matrix:
 Charge =  0 Multiplicity = 1

                         Standard orientation:
 ---------------------------------------------------------------------
 Center     Atomic      Atomic             Coordinates (Angstroms)
 Number     Number       Type             X           Y           Z
 ---------------------------------------------------------------------
      1         12           0        5.325978    1.191713    0.017971
      2          6           0        5.136684   -2.425725    0.093893
      3          6           0        2.011925    1.309694    0.004649
      4          6           0        5.724045    4.423769   -0.201885
      5          6           0        8.888074    0.702406   -0.278382
      6          7           0        3.726718   -0.458478    0.107391
      7          6           0        3.846754   -1.880089    0.191976
      8          6           0        2.539129   -2.560782    0.314398
      9          6           0        1.540851   -1.330233    0.117696
     10          6           0        2.463851   -0.048652    0.091911
     11          6           0        0.629631   -1.440579   -1.133247
     12          6           0        2.489943   -3.153393    1.754938
     13          6           0        1.078214   -3.623455    2.206597
     14          6           0        0.024834   -4.077909    1.195618
     15          8           0        0.272898   -5.049757    0.455208
     16          8           0       -1.117109   -3.337398    1.272242
     17          7           0        4.025409    2.643103   -0.093583
     18          6           0        2.658875    2.553251   -0.059166
     19          6           0        2.063942    3.894231   -0.094800
     20          6           0        3.184980    4.854469   -0.153807
     21          6           0        4.376747    3.999600   -0.154577
     22          6           0        0.568194    4.062859    0.091314
     23          6           0        3.207857    6.325291   -0.208370
     24          8           0        4.244344    6.944132   -0.303087
     25          6           0        1.865422    7.047030   -0.191551
     26          7           0        7.123759    2.401215   -0.181649
     27          6           0        6.939245    3.714038   -0.261661
     28          6           0        8.328606    4.489598   -0.379202
     29          6           0        9.330527    3.288244   -0.041452
     30          6           0        8.472619    2.043457   -0.221920
     31          6           0        8.613476    5.197324   -1.608802
     32          6           0        9.740347    3.287218    1.464203
     33          6           0       11.247247    3.695433    1.653356
     34          7           0        6.728598   -0.462263   -0.080783
     35          6           0        8.108061   -0.444313   -0.174967
     36          6           0        8.574749   -1.760153   -0.122293
     37          6           0        7.438060   -2.556729    0.027938
     38          6           0        6.366349   -1.709708    0.072067
     39          6           0       10.041147   -2.322281   -0.169808
     40          6           0        7.026205   -3.944874    0.042369
     41          8           0        7.681791   -4.985449   -0.157501
     42          6           0        5.485627   -3.884825    0.303163
     43          6           0        4.780603   -4.689676   -0.753783
     44          8           0        4.741946   -4.535594   -1.947464
     45          8           0        4.147190   -5.786073   -0.239919
     46          6           0        3.167605   -6.360169   -1.219703
     47          6           0       -2.090168   -3.844206    0.374230
     48          6           0       -3.267848   -2.851353    0.163342
     49          6           0       -3.998294   -2.609741   -0.947974
     50          6           0       -4.076849   -3.503772   -2.194296
     51          6           0       -5.150034   -1.595823   -0.980791
     52          6           0       -6.520483   -2.185802   -0.588129
     53          6           0       -7.193758   -1.442912    0.596554
     54          6           0       -8.384200   -0.545637    0.171872
     55          6           0       -8.184992    0.980076    0.389367
     56          6           0       -9.705361   -0.977147    0.886552
     57          6           0      -10.969897   -0.656426    0.074146
     58          6           0      -12.137733   -0.319950    0.967943
     59          6           0      -12.368179    1.263813    1.064406
     60          6           0      -11.901298    1.950595    2.362496
     61          6           0      -13.901256    1.616866    0.943543
     62          6           0      -14.394162    1.652942   -0.448224
     63          6           0      -15.638492    0.724484   -0.768073
     64          6           0      -16.920448    1.584671   -1.074722
     65          6           0      -16.621714    2.615686   -2.171650
     66          6           0      -17.753840    2.003631    0.183530
     67          1           0        0.922600    1.374222   -0.034507
     68          1           0        5.982384    5.480620   -0.297002
     69          1           0        9.977265    0.620021   -0.290658
     70          1           0        2.404231   -3.223296   -0.540650
     71          1           0        0.834722   -1.133883    0.924931
     72          1           0        0.641684   -2.387424   -1.672391
     73          1           0        0.826522   -0.705656   -1.914087
     74          1           0       -0.402549   -1.188225   -0.887079
     75          1           0        2.754065   -2.349047    2.441762
     76          1           0        3.089551   -4.050684    1.903438
     77          1           0        0.617853   -2.856224    2.828871
     78          1           0        1.155926   -4.530660    2.805705
     79          1           0        0.155052    4.687131   -0.700535
     80          1           0        0.321892    4.573596    1.021714
     81          1           0       -0.043842    3.164385    0.174329
     82          1           0        1.359385    6.936004   -1.150652
     83          1           0        1.950737    8.119364   -0.016387
     84          1           0        1.220310    6.642102    0.588119
     85          1           0        8.405465    5.178235    0.462651
     86          1           0       10.175115    3.194204   -0.723888
     87          1           0        8.000660    4.803216   -2.419956
     88          1           0        9.676794    5.103671   -1.829694
     89          1           0        8.515870    6.276698   -1.486663
     90          1           0        9.674625    2.297392    1.914501
     91          1           0        9.169392    3.917805    2.145523
     92          1           0       11.555407    4.228330    0.753880
     93          1           0       11.966295    2.903045    1.861213
     94          1           0       11.220086    4.401623    2.483514
     95          1           0       10.053229   -3.356189    0.175742
     96          1           0       10.663274   -1.738673    0.510238
     97          1           0       10.412531   -2.308240   -1.194223
     98          1           0        5.196068   -4.301563    1.267801
     99          1           0        2.754554   -7.242360   -0.729609
    100          1           0        3.730930   -6.538328   -2.135815
    101          1           0        2.338531   -5.672034   -1.382678
    102          1           0       -2.427574   -4.857534    0.592182
    103          1           0       -1.611820   -3.823780   -0.604811
    104          1           0       -3.308607   -2.076604    0.929097
    105          1           0       -3.272922   -4.230039   -2.080703
    106          1           0       -4.000285   -2.814446   -3.034821
    107          1           0       -5.000215   -4.083421   -2.181923
    108          1           0       -5.310783   -1.136740   -1.956698
    109          1           0       -4.771070   -0.792087   -0.349002
    110          1           0       -6.494286   -3.261270   -0.411190
    111          1           0       -7.156916   -2.262973   -1.469748
    112          1           0       -6.447381   -0.751113    0.987114
    113          1           0       -7.475066   -2.167146    1.361382
    114          1           0       -8.357080   -0.588390   -0.916816
    115          1           0       -8.650823    1.401153    1.280656
    116          1           0       -8.542437    1.501842   -0.498750
    117          1           0       -7.125282    1.219698    0.480379
    118          1           0       -9.735589   -0.435159    1.831786
    119          1           0       -9.569912   -2.026698    1.146564
    120          1           0      -11.150269   -1.565284   -0.500588
    121          1           0      -10.900936    0.180709   -0.621063
    122          1           0      -11.833108   -0.794704    1.901434
    123          1           0      -13.008202   -0.777701    0.498666
    124          1           0      -11.781803    1.856693    0.362701
    125          1           0      -10.819164    2.076360    2.345830
    126          1           0      -12.214237    1.323164    3.197393
    127          1           0      -12.284733    2.970566    2.351429
    128          1           0      -14.188178    2.481794    1.542022
    129          1           0      -14.332520    0.732950    1.414841
    130          1           0      -13.672237    1.463926   -1.243348
    131          1           0      -14.722646    2.691436   -0.478270
    132          1           0      -15.846279    0.066994    0.076441
    133          1           0      -15.495896    0.061760   -1.621285
    134          1           0      -17.627725    0.951692   -1.609854
    135          1           0      -17.365035    2.391955   -2.937320
    136          1           0      -15.634829    2.472905   -2.612107
    137          1           0      -16.722633    3.681511   -1.965896
    138          1           0      -18.669448    1.418851    0.265678
    139          1           0      -18.044088    3.054763    0.210399
    140          1           0      -17.304733    1.754541    1.144651
 ---------------------------------------------------------------------

 SCF Done:  E(RB-LYP) =  -3007.36621613     A.U. after   21 cycles

 Excitation energies and oscillator strengths:

 Excited State   1:      Singlet-A      1.8190 eV  681.61 nm  f=0.0741  <S**2>=0.000
     244 -> 247        0.61146
     245 -> 247        0.13116
     246 -> 247       -0.31929
 This state for optimization and/or second-order correction.
 Total Energy, E(TD-HF/TD-DFT) =  -3007.29936965
 Copying the excited state density for this state as the 1-particle RhoCI density.

 Excited State   2:      Singlet-A      1.8245 eV  679.56 nm  f=0.2150  <S**2>=0.000
     244 -> 247        0.31237
     245 -> 247        0.10408
     245 -> 248       -0.16762
     246 -> 247        0.60733
     246 <- 247       -0.12678

 Excited State   3:      Singlet-A      2.0053 eV  618.29 nm  f=0.0981  <S**2>=0.000
     244 -> 247       -0.16325
     245 -> 247        0.63122
     246 -> 248        0.20778
     246 -> 249       -0.10210

 Excited State   4:      Singlet-A      2.0570 eV  602.75 nm  f=0.0031  <S**2>=0.000
     243 -> 247        0.69964

 Excited State   5:      Singlet-A      2.4122 eV  514.00 nm  f=0.0037  <S**2>=0.000
     241 -> 247       -0.37272
     242 -> 247        0.59222

 The electronic state is 1-A.
 Alpha  occ. eigenvalues --  -46.27194 -18.84741 -18.80105 -18.77950 -18.75821
 Alpha  occ. eigenvalues --  -18.75277 -18.75218 -14.03179 -14.02849 -14.01498
 Alpha  occ. eigenvalues --  -14.00230 -10.05343 -10.02378 -10.00032  -9.99164
 Alpha  occ. eigenvalues --   -9.98855  -9.97162  -9.96589  -9.96457  -9.96382
 Alpha  occ. eigenvalues --   -9.96348  -9.96249  -9.95940  -9.95441  -9.94804
 Alpha  occ. eigenvalues --   -9.94792  -9.94631  -9.94411  -9.93943  -9.93794
 Alpha  occ. eigenvalues --   -9.93789  -9.93745  -9.93654  -9.93609  -9.93599
 Alpha  occ. eigenvalues --   -9.93590  -9.93529  -9.93305  -9.92882  -9.92776
 Alpha  occ. eigenvalues --   -9.92738  -9.92724  -9.92582  -9.92422  -9.92340
 Alpha  occ. eigenvalues --   -9.92189  -9.92084  -9.92066  -9.92024  -9.92002
 Alpha  occ. eigenvalues --   -9.91983  -9.91877  -9.91829  -9.91634  -9.91487
 Alpha  occ. eigenvalues --   -9.91438  -9.91419  -9.91254  -9.91065  -9.90973
 Alpha  occ. eigenvalues --   -9.90955  -9.90811  -9.90706  -9.90690  -9.90505
 Alpha  occ. eigenvalues --   -9.89737  -2.91818  -1.72250  -1.71706  -1.71531
 Alpha  occ. eigenvalues --   -1.00382  -0.97078  -0.92542  -0.90961  -0.89576
 Alpha  occ. eigenvalues --   -0.87909  -0.87023  -0.85620  -0.85375  -0.84591
 Alpha  occ. eigenvalues --   -0.75675  -0.73992  -0.73312  -0.73081  -0.72300
 Alpha  occ. eigenvalues --   -0.72065  -0.71596  -0.70654  -0.70506  -0.70330
 Alpha  occ. eigenvalues --   -0.69533  -0.69328  -0.68386  -0.67952  -0.67363
 Alpha  occ. eigenvalues --   -0.66602  -0.66008  -0.65391  -0.64907  -0.64526
 Alpha  occ. eigenvalues --   -0.64106  -0.62877  -0.62304  -0.61756  -0.60760
 Alpha  occ. eigenvalues --   -0.60591  -0.60095  -0.59778  -0.59626  -0.59100
 Alpha  occ. eigenvalues --   -0.58762  -0.57785  -0.56557  -0.56132  -0.54364
 Alpha  occ. eigenvalues --   -0.53961  -0.53867  -0.53102  -0.52909  -0.51926
 Alpha  occ. eigenvalues --   -0.51607  -0.51152  -0.51056  -0.50615  -0.50188
 Alpha  occ. eigenvalues --   -0.49963  -0.49024  -0.47897  -0.47005  -0.46821
 Alpha  occ. eigenvalues --   -0.46511  -0.45996  -0.45797  -0.45196  -0.44461
 Alpha  occ. eigenvalues --   -0.44008  -0.43905  -0.43521  -0.43076  -0.42760
 Alpha  occ. eigenvalues --   -0.42066  -0.41945  -0.41697  -0.41327  -0.41238
 Alpha  occ. eigenvalues --   -0.41127  -0.40988  -0.40240  -0.40098  -0.40029
 Alpha  occ. eigenvalues --   -0.39798  -0.39747  -0.39660  -0.39588  -0.39458
 Alpha  occ. eigenvalues --   -0.39173  -0.38972  -0.38694  -0.38569  -0.38304
 Alpha  occ. eigenvalues --   -0.38115  -0.37729  -0.37605  -0.37480  -0.37425
 Alpha  occ. eigenvalues --   -0.37040  -0.36995  -0.36882  -0.36421  -0.36389
 Alpha  occ. eigenvalues --   -0.36302  -0.36110  -0.35967  -0.35674  -0.35545
 Alpha  occ. eigenvalues --   -0.35515  -0.35397  -0.35232  -0.34995  -0.34813
 Alpha  occ. eigenvalues --   -0.34601  -0.34518  -0.34016  -0.33924  -0.33777
 Alpha  occ. eigenvalues --   -0.33733  -0.33471  -0.33379  -0.33283  -0.33243
 Alpha  occ. eigenvalues --   -0.32988  -0.32784  -0.32686  -0.32461  -0.32428
 Alpha  occ. eigenvalues --   -0.32336  -0.32250  -0.32033  -0.31936  -0.31893
 Alpha  occ. eigenvalues --   -0.31493  -0.31378  -0.31175  -0.31026  -0.30631
 Alpha  occ. eigenvalues --   -0.30475  -0.30291  -0.30215  -0.30140  -0.29944
 Alpha  occ. eigenvalues --   -0.29457  -0.29438  -0.29260  -0.28984  -0.28726
 Alpha  occ. eigenvalues --   -0.28612  -0.28462  -0.28331  -0.27922  -0.27607
 Alpha  occ. eigenvalues --   -0.27407  -0.27275  -0.27114  -0.27056  -0.26964
 Alpha  occ. eigenvalues --   -0.26594  -0.26378  -0.26333  -0.25705  -0.25383
 Alpha  occ. eigenvalues --   -0.25011  -0.24306  -0.24123  -0.23533  -0.23309
 Alpha  occ. eigenvalues --   -0.22977  -0.22518  -0.22047  -0.21237  -0.21130
 Alpha  occ. eigenvalues --   -0.20679  -0.20210  -0.19128  -0.18316  -0.17247
 Alpha  occ. eigenvalues --   -0.16073
 Alpha virt. eigenvalues --   -0.11684  -0.06974  -0.06122  -0.04574  -0.04367
 Alpha virt. eigenvalues --   -0.02555  -0.01783  -0.01265  -0.00936   0.00032
 Alpha virt. eigenvalues --    0.01031   0.01508   0.02153   0.02643   0.02713

 Mulliken charges:
               1
     1  Mg   0.690916
     2  C   -0.029821
     3  C   -0.053053
     4  C   -0.021881
     5  C   -0.083892
     6  N   -0.205685
     7  C   -0.108813
     8  C    0.088384
     9  C   -0.023779
    10  C    0.017853
    11  C    0.090856
    12  C    0.146306
    13  C    0.119532
    14  C    0.070515
    15  O   -0.223791
    16  O   -0.232902
    17  N   -0.372368
    18  C    0.161616
    19  C   -0.105238
    20  C    0.053049
    21  C    0.151058
    22  C    0.142019
    23  C   -0.087457
    24  O   -0.142623
    25  C    0.112754
    26  N   -0.207865
    27  C   -0.022400
    28  C    0.008440
    29  C    0.025731
    30  C   -0.027529
    31  C    0.178872
    32  C    0.078780
    33  C    0.050324
    34  N   -0.193254
    35  C    0.150607
    36  C   -0.192253
    37  C    0.071473
    38  C    0.097683
    39  C    0.172772
    40  C   -0.016548
    41  O   -0.154100
    42  C    0.094948
    43  C    0.055224
    44  O   -0.173974
    45  O   -0.284096
    46  C    0.215579
    47  C    0.280033
    48  C   -0.082522
    49  C   -0.174278
    50  C    0.143566
    51  C    0.124630
    52  C    0.061978
    53  C    0.135911
    54  C   -0.082636
    55  C    0.086524
    56  C    0.095307
    57  C    0.077572
    58  C    0.129299
    59  C   -0.094156
    60  C    0.100329
    61  C    0.088974
    62  C    0.092939
    63  C    0.077684
    64  C   -0.081440
    65  C    0.099928
    66  C    0.100353
    67  H   -0.080425
    68  H   -0.045770
    69  H   -0.066927
    70  H    0.006979
    71  H   -0.018222
    72  H    0.007158
    73  H   -0.013992
    74  H   -0.010673
    75  H   -0.014855
    76  H    0.009365
    77  H   -0.020015
    78  H    0.003222
    79  H    0.000154
    80  H    0.009866
    81  H   -0.013042
    82  H    0.013350
    83  H   -0.011016
    84  H   -0.005748
    85  H   -0.027485
    86  H   -0.026134
    87  H   -0.000120
    88  H   -0.021627
    89  H   -0.007937
    90  H   -0.016647
    91  H   -0.013485
    92  H   -0.012063
    93  H    0.005221
    94  H   -0.012914
    95  H    0.004301
    96  H   -0.007948
    97  H    0.005934
    98  H    0.003535
    99  H    0.008762
   100  H    0.028078
   101  H    0.017110
   102  H    0.015001
   103  H    0.007170
   104  H   -0.034381
   105  H   -0.019347
   106  H    0.005429
   107  H    0.007091
   108  H   -0.034448
   109  H   -0.023695
   110  H   -0.033372
   111  H   -0.035381
   112  H   -0.042513
   113  H   -0.031513
   114  H   -0.039937
   115  H   -0.010186
   116  H   -0.012498
   117  H   -0.032157
   118  H   -0.028219
   119  H   -0.033980
   120  H   -0.040382
   121  H   -0.028467
   122  H   -0.025345
   123  H   -0.030381
   124  H   -0.034522
   125  H   -0.027864
   126  H   -0.013762
   127  H   -0.018928
   128  H   -0.033452
   129  H   -0.038530
   130  H   -0.021409
   131  H   -0.020730
   132  H   -0.034830
   133  H   -0.036230
   134  H   -0.039650
   135  H   -0.024489
   136  H   -0.014389
   137  H   -0.016060
   138  H   -0.022588
   139  H   -0.017119
   140  H   -0.021891
 Sum of Mulliken charges =  -0.00000

 Dipole moment (field-independent basis, Debye):
    X=             -5.8264    Y=              3.8203    Z=              2.2511  Tot=              7.3219
 Quadrupole moment (field-independent basis, Debye-Ang):
   XX=           -398.8194   YY=           -441.6959   ZZ=           -404.5261
   XY=             42.9705   XZ=             21.2902   YZ=             -5.7941

 Normal termination of Gaussian 16 at Thu May  5 14:18:14 2022.
