 Gaussian 16, Revision A.03,
 Gaussian 16:  ES64L-G16RevA.03 25-Dec-2016

 -----------------------------------
 #p cam-b3lyp/Def2SVP td=(nstates=5)
 -----------------------------------

 -------------------------------------------------------
 step_901_chromophore_21 TDDFT with cam-b3lyp functional
 -------------------------------------------------------
 Symbolic Z-matrix:
 Charge =  0 Multiplicity = 1

                         Standard orientation:
 ---------------------------------------------------------------------
 Center     Atomic      Atomic             Coordinates (Angstroms)
 Number     Number       Type             X           Y           Z
 ---------------------------------------------------------------------
      1         12           0        5.325978    1.191713    0.017971
      2          6           0        5.136684   -2.425725    0.093893
      3          6           0        2.011925    1.309694    0.004649
      4          6           0        5.724045    4.423769   -0.201885
      5          6           0        8.888074    0.702406   -0.278382
      6          7           0        3.726718   -0.458478    0.107391
      7          6           0        3.846754   -1.880089    0.191976
      8          6           0        2.539129   -2.560782    0.314398
      9          6           0        1.540851   -1.330233    0.117696
     10          6           0        2.463851   -0.048652    0.091911
     11          6           0        0.629631   -1.440579   -1.133247
     12          6           0        2.489943   -3.153393    1.754938
     13          6           0        1.078214   -3.623455    2.206597
     14          6           0        0.024834   -4.077909    1.195618
     15          8           0        0.272898   -5.049757    0.455208
     16          8           0       -1.117109   -3.337398    1.272242
     17          7           0        4.025409    2.643103   -0.093583
     18          6           0        2.658875    2.553251   -0.059166
     19          6           0        2.063942    3.894231   -0.094800
     20          6           0        3.184980    4.854469   -0.153807
     21          6           0        4.376747    3.999600   -0.154577
     22          6           0        0.568194    4.062859    0.091314
     23          6           0        3.207857    6.325291   -0.208370
     24          8           0        4.244344    6.944132   -0.303087
     25          6           0        1.865422    7.047030   -0.191551
     26          7           0        7.123759    2.401215   -0.181649
     27          6           0        6.939245    3.714038   -0.261661
     28          6           0        8.328606    4.489598   -0.379202
     29          6           0        9.330527    3.288244   -0.041452
     30          6           0        8.472619    2.043457   -0.221920
     31          6           0        8.613476    5.197324   -1.608802
     32          6           0        9.740347    3.287218    1.464203
     33          6           0       11.247247    3.695433    1.653356
     34          7           0        6.728598   -0.462263   -0.080783
     35          6           0        8.108061   -0.444313   -0.174967
     36          6           0        8.574749   -1.760153   -0.122293
     37          6           0        7.438060   -2.556729    0.027938
     38          6           0        6.366349   -1.709708    0.072067
     39          6           0       10.041147   -2.322281   -0.169808
     40          6           0        7.026205   -3.944874    0.042369
     41          8           0        7.681791   -4.985449   -0.157501
     42          6           0        5.485627   -3.884825    0.303163
     43          6           0        4.780603   -4.689676   -0.753783
     44          8           0        4.741946   -4.535594   -1.947464
     45          8           0        4.147190   -5.786073   -0.239919
     46          6           0        3.167605   -6.360169   -1.219703
     47          6           0       -2.090168   -3.844206    0.374230
     48          6           0       -3.267848   -2.851353    0.163342
     49          6           0       -3.998294   -2.609741   -0.947974
     50          6           0       -4.076849   -3.503772   -2.194296
     51          6           0       -5.150034   -1.595823   -0.980791
     52          6           0       -6.520483   -2.185802   -0.588129
     53          6           0       -7.193758   -1.442912    0.596554
     54          6           0       -8.384200   -0.545637    0.171872
     55          6           0       -8.184992    0.980076    0.389367
     56          6           0       -9.705361   -0.977147    0.886552
     57          6           0      -10.969897   -0.656426    0.074146
     58          6           0      -12.137733   -0.319950    0.967943
     59          6           0      -12.368179    1.263813    1.064406
     60          6           0      -11.901298    1.950595    2.362496
     61          6           0      -13.901256    1.616866    0.943543
     62          6           0      -14.394162    1.652942   -0.448224
     63          6           0      -15.638492    0.724484   -0.768073
     64          6           0      -16.920448    1.584671   -1.074722
     65          6           0      -16.621714    2.615686   -2.171650
     66          6           0      -17.753840    2.003631    0.183530
     67          1           0        0.922600    1.374222   -0.034507
     68          1           0        5.982384    5.480620   -0.297002
     69          1           0        9.977265    0.620021   -0.290658
     70          1           0        2.404231   -3.223296   -0.540650
     71          1           0        0.834722   -1.133883    0.924931
     72          1           0        0.641684   -2.387424   -1.672391
     73          1           0        0.826522   -0.705656   -1.914087
     74          1           0       -0.402549   -1.188225   -0.887079
     75          1           0        2.754065   -2.349047    2.441762
     76          1           0        3.089551   -4.050684    1.903438
     77          1           0        0.617853   -2.856224    2.828871
     78          1           0        1.155926   -4.530660    2.805705
     79          1           0        0.155052    4.687131   -0.700535
     80          1           0        0.321892    4.573596    1.021714
     81          1           0       -0.043842    3.164385    0.174329
     82          1           0        1.359385    6.936004   -1.150652
     83          1           0        1.950737    8.119364   -0.016387
     84          1           0        1.220310    6.642102    0.588119
     85          1           0        8.405465    5.178235    0.462651
     86          1           0       10.175115    3.194204   -0.723888
     87          1           0        8.000660    4.803216   -2.419956
     88          1           0        9.676794    5.103671   -1.829694
     89          1           0        8.515870    6.276698   -1.486663
     90          1           0        9.674625    2.297392    1.914501
     91          1           0        9.169392    3.917805    2.145523
     92          1           0       11.555407    4.228330    0.753880
     93          1           0       11.966295    2.903045    1.861213
     94          1           0       11.220086    4.401623    2.483514
     95          1           0       10.053229   -3.356189    0.175742
     96          1           0       10.663274   -1.738673    0.510238
     97          1           0       10.412531   -2.308240   -1.194223
     98          1           0        5.196068   -4.301563    1.267801
     99          1           0        2.754554   -7.242360   -0.729609
    100          1           0        3.730930   -6.538328   -2.135815
    101          1           0        2.338531   -5.672034   -1.382678
    102          1           0       -2.427574   -4.857534    0.592182
    103          1           0       -1.611820   -3.823780   -0.604811
    104          1           0       -3.308607   -2.076604    0.929097
    105          1           0       -3.272922   -4.230039   -2.080703
    106          1           0       -4.000285   -2.814446   -3.034821
    107          1           0       -5.000215   -4.083421   -2.181923
    108          1           0       -5.310783   -1.136740   -1.956698
    109          1           0       -4.771070   -0.792087   -0.349002
    110          1           0       -6.494286   -3.261270   -0.411190
    111          1           0       -7.156916   -2.262973   -1.469748
    112          1           0       -6.447381   -0.751113    0.987114
    113          1           0       -7.475066   -2.167146    1.361382
    114          1           0       -8.357080   -0.588390   -0.916816
    115          1           0       -8.650823    1.401153    1.280656
    116          1           0       -8.542437    1.501842   -0.498750
    117          1           0       -7.125282    1.219698    0.480379
    118          1           0       -9.735589   -0.435159    1.831786
    119          1           0       -9.569912   -2.026698    1.146564
    120          1           0      -11.150269   -1.565284   -0.500588
    121          1           0      -10.900936    0.180709   -0.621063
    122          1           0      -11.833108   -0.794704    1.901434
    123          1           0      -13.008202   -0.777701    0.498666
    124          1           0      -11.781803    1.856693    0.362701
    125          1           0      -10.819164    2.076360    2.345830
    126          1           0      -12.214237    1.323164    3.197393
    127          1           0      -12.284733    2.970566    2.351429
    128          1           0      -14.188178    2.481794    1.542022
    129          1           0      -14.332520    0.732950    1.414841
    130          1           0      -13.672237    1.463926   -1.243348
    131          1           0      -14.722646    2.691436   -0.478270
    132          1           0      -15.846279    0.066994    0.076441
    133          1           0      -15.495896    0.061760   -1.621285
    134          1           0      -17.627725    0.951692   -1.609854
    135          1           0      -17.365035    2.391955   -2.937320
    136          1           0      -15.634829    2.472905   -2.612107
    137          1           0      -16.722633    3.681511   -1.965896
    138          1           0      -18.669448    1.418851    0.265678
    139          1           0      -18.044088    3.054763    0.210399
    140          1           0      -17.304733    1.754541    1.144651
 ---------------------------------------------------------------------

 SCF Done:  E(RCAM-B3LYP) =  -3007.16266443     A.U. after   18 cycles

 Excitation energies and oscillator strengths:

 Excited State   1:      Singlet-A      1.7663 eV  701.93 nm  f=0.3706  <S**2>=0.000
     245 -> 248       -0.17770
     246 -> 247        0.68465
     245 <- 248       -0.10257
 This state for optimization and/or second-order correction.
 Total Energy, E(TD-HF/TD-DFT) =  -3007.09775295
 Copying the excited state density for this state as the 1-particle RhoCI density.

 Excited State   2:      Singlet-A      2.2251 eV  557.20 nm  f=0.1388  <S**2>=0.000
     245 -> 247        0.64980
     246 -> 248        0.26191

 Excited State   3:      Singlet-A      3.4054 eV  364.09 nm  f=0.0248  <S**2>=0.000
     242 -> 247       -0.24962
     244 -> 247        0.62724
     246 -> 248        0.11151

 Excited State   4:      Singlet-A      3.5328 eV  350.95 nm  f=0.1880  <S**2>=0.000
     240 -> 247       -0.19136
     242 -> 247       -0.35531
     244 -> 247       -0.26853
     245 -> 247       -0.13451
     246 -> 248        0.46114

 Excited State   5:      Singlet-A      3.5639 eV  347.89 nm  f=0.0136  <S**2>=0.000
     243 -> 247        0.54907
     243 -> 249       -0.26686
     243 -> 250        0.27925

 The electronic state is 1-A.
 Alpha  occ. eigenvalues --  -46.88729 -19.27701 -19.22835 -19.20938 -19.19504
 Alpha  occ. eigenvalues --  -19.18142 -19.18043 -14.42145 -14.41707 -14.40133
 Alpha  occ. eigenvalues --  -14.38312 -10.40719 -10.37580 -10.35628 -10.34182
 Alpha  occ. eigenvalues --  -10.32928 -10.32017 -10.31507 -10.31293 -10.31076
 Alpha  occ. eigenvalues --  -10.30869 -10.30676 -10.30228 -10.29822 -10.28981
 Alpha  occ. eigenvalues --  -10.28795 -10.28580 -10.28298 -10.28144 -10.28132
 Alpha  occ. eigenvalues --  -10.27985 -10.27825 -10.27797 -10.27731 -10.27722
 Alpha  occ. eigenvalues --  -10.27618 -10.27513 -10.27358 -10.26978 -10.26608
 Alpha  occ. eigenvalues --  -10.26536 -10.26461 -10.26389 -10.26311 -10.26224
 Alpha  occ. eigenvalues --  -10.26177 -10.26157 -10.25912 -10.25821 -10.25821
 Alpha  occ. eigenvalues --  -10.25768 -10.25324 -10.25266 -10.25243 -10.25215
 Alpha  occ. eigenvalues --  -10.25147 -10.25143 -10.24996 -10.24751 -10.24610
 Alpha  occ. eigenvalues --  -10.24603 -10.24468 -10.24367 -10.24298 -10.24189
 Alpha  occ. eigenvalues --  -10.23193  -3.17260  -1.92168  -1.91707  -1.91577
 Alpha  occ. eigenvalues --   -1.18845  -1.15512  -1.11422  -1.08901  -1.07531
 Alpha  occ. eigenvalues --   -1.05604  -1.04353  -1.03377  -1.03049  -1.02275
 Alpha  occ. eigenvalues --   -0.92612  -0.90927  -0.90126  -0.89877  -0.88922
 Alpha  occ. eigenvalues --   -0.88800  -0.88330  -0.87510  -0.87231  -0.86999
 Alpha  occ. eigenvalues --   -0.85863  -0.85541  -0.84677  -0.84098  -0.83433
 Alpha  occ. eigenvalues --   -0.82692  -0.82350  -0.81443  -0.80876  -0.80361
 Alpha  occ. eigenvalues --   -0.79835  -0.78935  -0.77851  -0.77106  -0.76170
 Alpha  occ. eigenvalues --   -0.76008  -0.75334  -0.75023  -0.74896  -0.74297
 Alpha  occ. eigenvalues --   -0.73983  -0.72738  -0.71468  -0.70944  -0.69280
 Alpha  occ. eigenvalues --   -0.68583  -0.68234  -0.67548  -0.67368  -0.66139
 Alpha  occ. eigenvalues --   -0.65629  -0.65410  -0.65047  -0.64688  -0.64033
 Alpha  occ. eigenvalues --   -0.63983  -0.63006  -0.61695  -0.60926  -0.60458
 Alpha  occ. eigenvalues --   -0.60051  -0.59390  -0.59274  -0.58509  -0.57874
 Alpha  occ. eigenvalues --   -0.57376  -0.57289  -0.56920  -0.56316  -0.56021
 Alpha  occ. eigenvalues --   -0.55265  -0.54853  -0.54729  -0.54408  -0.53935
 Alpha  occ. eigenvalues --   -0.53863  -0.53736  -0.53101  -0.52914  -0.52799
 Alpha  occ. eigenvalues --   -0.52674  -0.52588  -0.52198  -0.52098  -0.52040
 Alpha  occ. eigenvalues --   -0.51680  -0.51613  -0.51452  -0.51001  -0.50956
 Alpha  occ. eigenvalues --   -0.50649  -0.50243  -0.50183  -0.49864  -0.49680
 Alpha  occ. eigenvalues --   -0.49633  -0.49209  -0.49140  -0.48879  -0.48754
 Alpha  occ. eigenvalues --   -0.48494  -0.48367  -0.48016  -0.47921  -0.47658
 Alpha  occ. eigenvalues --   -0.47585  -0.47431  -0.47297  -0.47266  -0.46901
 Alpha  occ. eigenvalues --   -0.46368  -0.46265  -0.46129  -0.45798  -0.45485
 Alpha  occ. eigenvalues --   -0.45453  -0.45198  -0.45139  -0.44924  -0.44877
 Alpha  occ. eigenvalues --   -0.44681  -0.44594  -0.44240  -0.44210  -0.44050
 Alpha  occ. eigenvalues --   -0.43958  -0.43935  -0.43776  -0.43564  -0.43479
 Alpha  occ. eigenvalues --   -0.43268  -0.43020  -0.42968  -0.42170  -0.42018
 Alpha  occ. eigenvalues --   -0.41767  -0.41743  -0.41516  -0.41396  -0.41242
 Alpha  occ. eigenvalues --   -0.40657  -0.40644  -0.40520  -0.40349  -0.40068
 Alpha  occ. eigenvalues --   -0.39624  -0.39598  -0.39224  -0.38862  -0.38527
 Alpha  occ. eigenvalues --   -0.38476  -0.38335  -0.38188  -0.37896  -0.37834
 Alpha  occ. eigenvalues --   -0.37588  -0.37128  -0.36981  -0.36387  -0.36066
 Alpha  occ. eigenvalues --   -0.35992  -0.35071  -0.34824  -0.34691  -0.33829
 Alpha  occ. eigenvalues --   -0.33706  -0.33599  -0.32874  -0.31830  -0.31279
 Alpha  occ. eigenvalues --   -0.30964  -0.30726  -0.30026  -0.29141  -0.23976
 Alpha  occ. eigenvalues --   -0.21452
 Alpha virt. eigenvalues --   -0.08809  -0.01686   0.00206   0.02490   0.03255
 Alpha virt. eigenvalues --    0.03453   0.04928   0.05699   0.06416   0.06757
 Alpha virt. eigenvalues --    0.07806   0.08143   0.08704   0.08908   0.09047

 Mulliken charges:
               1
     1  Mg   0.824117
     2  C   -0.042630
     3  C   -0.076975
     4  C   -0.047163
     5  C   -0.083483
     6  N   -0.272326
     7  C   -0.064968
     8  C    0.022221
     9  C   -0.071314
    10  C    0.047409
    11  C    0.032844
    12  C    0.098871
    13  C    0.055192
    14  C    0.145729
    15  O   -0.263707
    16  O   -0.295035
    17  N   -0.467185
    18  C    0.175657
    19  C   -0.105980
    20  C   -0.013767
    21  C    0.178540
    22  C    0.084008
    23  C   -0.008094
    24  O   -0.181644
    25  C    0.035060
    26  N   -0.277538
    27  C    0.001747
    28  C   -0.042684
    29  C   -0.031550
    30  C   -0.014361
    31  C    0.113312
    32  C    0.024079
    33  C   -0.007278
    34  N   -0.281503
    35  C    0.142028
    36  C   -0.187638
    37  C   -0.015857
    38  C    0.128721
    39  C    0.125275
    40  C    0.083731
    41  O   -0.195713
    42  C    0.002592
    43  C    0.150693
    44  O   -0.211505
    45  O   -0.346764
    46  C    0.177358
    47  C    0.246905
    48  C   -0.101706
    49  C   -0.195095
    50  C    0.083302
    51  C    0.066610
    52  C    0.005675
    53  C    0.079225
    54  C   -0.136028
    55  C    0.034415
    56  C    0.042152
    57  C    0.024362
    58  C    0.071335
    59  C   -0.146145
    60  C    0.047631
    61  C    0.037844
    62  C    0.028333
    63  C    0.027754
    64  C   -0.141932
    65  C    0.036562
    66  C    0.040946
    67  H   -0.046137
    68  H   -0.004605
    69  H   -0.030596
    70  H    0.038195
    71  H    0.015871
    72  H    0.031107
    73  H    0.014234
    74  H    0.012310
    75  H    0.017151
    76  H    0.038054
    77  H    0.013567
    78  H    0.035629
    79  H    0.027687
    80  H    0.037587
    81  H    0.018663
    82  H    0.041936
    83  H    0.025630
    84  H    0.021455
    85  H    0.008592
    86  H    0.008930
    87  H    0.025885
    88  H    0.004712
    89  H    0.017275
    90  H    0.014577
    91  H    0.013240
    92  H    0.008336
    93  H    0.027482
    94  H    0.009975
    95  H    0.031096
    96  H    0.013469
    97  H    0.029865
    98  H    0.046931
    99  H    0.033254
   100  H    0.054113
   101  H    0.035862
   102  H    0.042901
   103  H    0.031907
   104  H   -0.001801
   105  H    0.004530
   106  H    0.028947
   107  H    0.030435
   108  H   -0.003248
   109  H    0.003428
   110  H   -0.003230
   111  H   -0.006012
   112  H   -0.013876
   113  H   -0.001167
   114  H   -0.008020
   115  H    0.009520
   116  H    0.010515
   117  H   -0.008091
   118  H   -0.002770
   119  H   -0.004651
   120  H   -0.009071
   121  H   -0.001932
   122  H    0.002637
   123  H   -0.001336
   124  H   -0.005510
   125  H   -0.006486
   126  H    0.009509
   127  H    0.005927
   128  H   -0.003711
   129  H   -0.010997
   130  H    0.006542
   131  H    0.008401
   132  H   -0.007303
   133  H   -0.006342
   134  H   -0.005615
   135  H    0.000896
   136  H    0.010295
   137  H    0.008140
   138  H    0.002214
   139  H    0.007088
   140  H    0.001337
 Sum of Mulliken charges =  -0.00000

 Dipole moment (field-independent basis, Debye):
    X=             -6.9987    Y=              5.0646    Z=              2.4010  Tot=              8.9664
 Quadrupole moment (field-independent basis, Debye-Ang):
   XX=           -407.2610   YY=           -437.0693   ZZ=           -404.5255
   XY=             47.1419   XZ=             22.1356   YZ=             -6.3141

 Normal termination of Gaussian 16 at Thu May  5 12:53:43 2022.
