 Gaussian 16, Revision A.03,
 Gaussian 16:  ES64L-G16RevA.03 25-Dec-2016

 ---------------------------------
 #p PBE1PBE/Def2SVP td=(nstates=5)
 ---------------------------------

 -----------------------------------------------------
 step_901_chromophore_21 TDDFT with PBE1PBE functional
 -----------------------------------------------------
 Symbolic Z-matrix:
 Charge =  0 Multiplicity = 1

                         Standard orientation:
 ---------------------------------------------------------------------
 Center     Atomic      Atomic             Coordinates (Angstroms)
 Number     Number       Type             X           Y           Z
 ---------------------------------------------------------------------
      1         12           0        5.325978    1.191713    0.017971
      2          6           0        5.136684   -2.425725    0.093893
      3          6           0        2.011925    1.309694    0.004649
      4          6           0        5.724045    4.423769   -0.201885
      5          6           0        8.888074    0.702406   -0.278382
      6          7           0        3.726718   -0.458478    0.107391
      7          6           0        3.846754   -1.880089    0.191976
      8          6           0        2.539129   -2.560782    0.314398
      9          6           0        1.540851   -1.330233    0.117696
     10          6           0        2.463851   -0.048652    0.091911
     11          6           0        0.629631   -1.440579   -1.133247
     12          6           0        2.489943   -3.153393    1.754938
     13          6           0        1.078214   -3.623455    2.206597
     14          6           0        0.024834   -4.077909    1.195618
     15          8           0        0.272898   -5.049757    0.455208
     16          8           0       -1.117109   -3.337398    1.272242
     17          7           0        4.025409    2.643103   -0.093583
     18          6           0        2.658875    2.553251   -0.059166
     19          6           0        2.063942    3.894231   -0.094800
     20          6           0        3.184980    4.854469   -0.153807
     21          6           0        4.376747    3.999600   -0.154577
     22          6           0        0.568194    4.062859    0.091314
     23          6           0        3.207857    6.325291   -0.208370
     24          8           0        4.244344    6.944132   -0.303087
     25          6           0        1.865422    7.047030   -0.191551
     26          7           0        7.123759    2.401215   -0.181649
     27          6           0        6.939245    3.714038   -0.261661
     28          6           0        8.328606    4.489598   -0.379202
     29          6           0        9.330527    3.288244   -0.041452
     30          6           0        8.472619    2.043457   -0.221920
     31          6           0        8.613476    5.197324   -1.608802
     32          6           0        9.740347    3.287218    1.464203
     33          6           0       11.247247    3.695433    1.653356
     34          7           0        6.728598   -0.462263   -0.080783
     35          6           0        8.108061   -0.444313   -0.174967
     36          6           0        8.574749   -1.760153   -0.122293
     37          6           0        7.438060   -2.556729    0.027938
     38          6           0        6.366349   -1.709708    0.072067
     39          6           0       10.041147   -2.322281   -0.169808
     40          6           0        7.026205   -3.944874    0.042369
     41          8           0        7.681791   -4.985449   -0.157501
     42          6           0        5.485627   -3.884825    0.303163
     43          6           0        4.780603   -4.689676   -0.753783
     44          8           0        4.741946   -4.535594   -1.947464
     45          8           0        4.147190   -5.786073   -0.239919
     46          6           0        3.167605   -6.360169   -1.219703
     47          6           0       -2.090168   -3.844206    0.374230
     48          6           0       -3.267848   -2.851353    0.163342
     49          6           0       -3.998294   -2.609741   -0.947974
     50          6           0       -4.076849   -3.503772   -2.194296
     51          6           0       -5.150034   -1.595823   -0.980791
     52          6           0       -6.520483   -2.185802   -0.588129
     53          6           0       -7.193758   -1.442912    0.596554
     54          6           0       -8.384200   -0.545637    0.171872
     55          6           0       -8.184992    0.980076    0.389367
     56          6           0       -9.705361   -0.977147    0.886552
     57          6           0      -10.969897   -0.656426    0.074146
     58          6           0      -12.137733   -0.319950    0.967943
     59          6           0      -12.368179    1.263813    1.064406
     60          6           0      -11.901298    1.950595    2.362496
     61          6           0      -13.901256    1.616866    0.943543
     62          6           0      -14.394162    1.652942   -0.448224
     63          6           0      -15.638492    0.724484   -0.768073
     64          6           0      -16.920448    1.584671   -1.074722
     65          6           0      -16.621714    2.615686   -2.171650
     66          6           0      -17.753840    2.003631    0.183530
     67          1           0        0.922600    1.374222   -0.034507
     68          1           0        5.982384    5.480620   -0.297002
     69          1           0        9.977265    0.620021   -0.290658
     70          1           0        2.404231   -3.223296   -0.540650
     71          1           0        0.834722   -1.133883    0.924931
     72          1           0        0.641684   -2.387424   -1.672391
     73          1           0        0.826522   -0.705656   -1.914087
     74          1           0       -0.402549   -1.188225   -0.887079
     75          1           0        2.754065   -2.349047    2.441762
     76          1           0        3.089551   -4.050684    1.903438
     77          1           0        0.617853   -2.856224    2.828871
     78          1           0        1.155926   -4.530660    2.805705
     79          1           0        0.155052    4.687131   -0.700535
     80          1           0        0.321892    4.573596    1.021714
     81          1           0       -0.043842    3.164385    0.174329
     82          1           0        1.359385    6.936004   -1.150652
     83          1           0        1.950737    8.119364   -0.016387
     84          1           0        1.220310    6.642102    0.588119
     85          1           0        8.405465    5.178235    0.462651
     86          1           0       10.175115    3.194204   -0.723888
     87          1           0        8.000660    4.803216   -2.419956
     88          1           0        9.676794    5.103671   -1.829694
     89          1           0        8.515870    6.276698   -1.486663
     90          1           0        9.674625    2.297392    1.914501
     91          1           0        9.169392    3.917805    2.145523
     92          1           0       11.555407    4.228330    0.753880
     93          1           0       11.966295    2.903045    1.861213
     94          1           0       11.220086    4.401623    2.483514
     95          1           0       10.053229   -3.356189    0.175742
     96          1           0       10.663274   -1.738673    0.510238
     97          1           0       10.412531   -2.308240   -1.194223
     98          1           0        5.196068   -4.301563    1.267801
     99          1           0        2.754554   -7.242360   -0.729609
    100          1           0        3.730930   -6.538328   -2.135815
    101          1           0        2.338531   -5.672034   -1.382678
    102          1           0       -2.427574   -4.857534    0.592182
    103          1           0       -1.611820   -3.823780   -0.604811
    104          1           0       -3.308607   -2.076604    0.929097
    105          1           0       -3.272922   -4.230039   -2.080703
    106          1           0       -4.000285   -2.814446   -3.034821
    107          1           0       -5.000215   -4.083421   -2.181923
    108          1           0       -5.310783   -1.136740   -1.956698
    109          1           0       -4.771070   -0.792087   -0.349002
    110          1           0       -6.494286   -3.261270   -0.411190
    111          1           0       -7.156916   -2.262973   -1.469748
    112          1           0       -6.447381   -0.751113    0.987114
    113          1           0       -7.475066   -2.167146    1.361382
    114          1           0       -8.357080   -0.588390   -0.916816
    115          1           0       -8.650823    1.401153    1.280656
    116          1           0       -8.542437    1.501842   -0.498750
    117          1           0       -7.125282    1.219698    0.480379
    118          1           0       -9.735589   -0.435159    1.831786
    119          1           0       -9.569912   -2.026698    1.146564
    120          1           0      -11.150269   -1.565284   -0.500588
    121          1           0      -10.900936    0.180709   -0.621063
    122          1           0      -11.833108   -0.794704    1.901434
    123          1           0      -13.008202   -0.777701    0.498666
    124          1           0      -11.781803    1.856693    0.362701
    125          1           0      -10.819164    2.076360    2.345830
    126          1           0      -12.214237    1.323164    3.197393
    127          1           0      -12.284733    2.970566    2.351429
    128          1           0      -14.188178    2.481794    1.542022
    129          1           0      -14.332520    0.732950    1.414841
    130          1           0      -13.672237    1.463926   -1.243348
    131          1           0      -14.722646    2.691436   -0.478270
    132          1           0      -15.846279    0.066994    0.076441
    133          1           0      -15.495896    0.061760   -1.621285
    134          1           0      -17.627725    0.951692   -1.609854
    135          1           0      -17.365035    2.391955   -2.937320
    136          1           0      -15.634829    2.472905   -2.612107
    137          1           0      -16.722633    3.681511   -1.965896
    138          1           0      -18.669448    1.418851    0.265678
    139          1           0      -18.044088    3.054763    0.210399
    140          1           0      -17.304733    1.754541    1.144651
 ---------------------------------------------------------------------

 SCF Done:  E(RPBE1PBE) =  -3005.35051022     A.U. after   16 cycles

 Excitation energies and oscillator strengths:

 Excited State   1:      Singlet-A      1.8869 eV  657.07 nm  f=0.3561  <S**2>=0.000
     245 -> 248       -0.17347
     246 -> 247        0.69069
     246 <- 247       -0.10062
 This state for optimization and/or second-order correction.
 Total Energy, E(TD-HF/TD-DFT) =  -3005.28116694
 Copying the excited state density for this state as the 1-particle RhoCI density.

 Excited State   2:      Singlet-A      2.2176 eV  559.09 nm  f=0.1340  <S**2>=0.000
     245 -> 247        0.66027
     246 -> 248        0.23569

 Excited State   3:      Singlet-A      2.9494 eV  420.38 nm  f=0.0001  <S**2>=0.000
     243 -> 247        0.43454
     243 -> 249       -0.11419
     244 -> 247        0.52409

 Excited State   4:      Singlet-A      3.0159 eV  411.10 nm  f=0.0055  <S**2>=0.000
     243 -> 247        0.52576
     244 -> 247       -0.45453

 Excited State   5:      Singlet-A      3.1091 eV  398.78 nm  f=0.0000  <S**2>=0.000
     240 -> 247        0.63067
     240 -> 248       -0.11343
     240 -> 249        0.14933
     241 -> 247        0.11932
     242 -> 247       -0.19747

 The electronic state is 1-A.
 Alpha  occ. eigenvalues --  -46.92120 -19.28357 -19.23580 -19.21244 -19.19426
 Alpha  occ. eigenvalues --  -19.18574 -19.18470 -14.41619 -14.41200 -14.39687
 Alpha  occ. eigenvalues --  -14.38134 -10.37793 -10.34712 -10.32453 -10.31586
 Alpha  occ. eigenvalues --  -10.30325 -10.29495 -10.28907 -10.28646 -10.28608
 Alpha  occ. eigenvalues --  -10.28602 -10.28293 -10.28117 -10.27146 -10.26719
 Alpha  occ. eigenvalues --  -10.26644 -10.26248 -10.25981 -10.25927 -10.25719
 Alpha  occ. eigenvalues --  -10.25686 -10.25642 -10.25550 -10.25309 -10.25308
 Alpha  occ. eigenvalues --  -10.25285 -10.25274 -10.25155 -10.24534 -10.24357
 Alpha  occ. eigenvalues --  -10.24289 -10.24089 -10.23950 -10.23836 -10.23795
 Alpha  occ. eigenvalues --  -10.23577 -10.23539 -10.23538 -10.23493 -10.23487
 Alpha  occ. eigenvalues --  -10.23469 -10.22950 -10.22852 -10.22792 -10.22695
 Alpha  occ. eigenvalues --  -10.22688 -10.22635 -10.22559 -10.22142 -10.22108
 Alpha  occ. eigenvalues --  -10.21984 -10.21963 -10.21745 -10.21738 -10.21681
 Alpha  occ. eigenvalues --  -10.21281  -3.14233  -1.87082  -1.86597  -1.86474
 Alpha  occ. eigenvalues --   -1.13684  -1.10375  -1.05883  -1.03745  -1.02513
 Alpha  occ. eigenvalues --   -1.00538  -0.99295  -0.97908  -0.97617  -0.96805
 Alpha  occ. eigenvalues --   -0.87132  -0.85037  -0.84291  -0.84036  -0.83230
 Alpha  occ. eigenvalues --   -0.82894  -0.82569  -0.81497  -0.81359  -0.81251
 Alpha  occ. eigenvalues --   -0.80254  -0.79918  -0.78859  -0.78382  -0.77799
 Alpha  occ. eigenvalues --   -0.76929  -0.76431  -0.75594  -0.75087  -0.74534
 Alpha  occ. eigenvalues --   -0.74210  -0.72995  -0.72185  -0.71507  -0.70323
 Alpha  occ. eigenvalues --   -0.70065  -0.69704  -0.69329  -0.69129  -0.68533
 Alpha  occ. eigenvalues --   -0.68167  -0.67244  -0.65800  -0.65330  -0.63547
 Alpha  occ. eigenvalues --   -0.62815  -0.62676  -0.62045  -0.61580  -0.60573
 Alpha  occ. eigenvalues --   -0.60070  -0.59595  -0.59496  -0.59267  -0.58637
 Alpha  occ. eigenvalues --   -0.58145  -0.57148  -0.55940  -0.55295  -0.55088
 Alpha  occ. eigenvalues --   -0.54486  -0.54048  -0.53842  -0.53122  -0.52423
 Alpha  occ. eigenvalues --   -0.51872  -0.51791  -0.51423  -0.50831  -0.50505
 Alpha  occ. eigenvalues --   -0.49864  -0.49424  -0.49190  -0.49011  -0.48379
 Alpha  occ. eigenvalues --   -0.48303  -0.48238  -0.47652  -0.47418  -0.47165
 Alpha  occ. eigenvalues --   -0.47117  -0.46835  -0.46683  -0.46652  -0.46596
 Alpha  occ. eigenvalues --   -0.46340  -0.46220  -0.46048  -0.45515  -0.45487
 Alpha  occ. eigenvalues --   -0.45279  -0.44815  -0.44517  -0.44433  -0.44379
 Alpha  occ. eigenvalues --   -0.44220  -0.43863  -0.43638  -0.43395  -0.43282
 Alpha  occ. eigenvalues --   -0.43069  -0.42990  -0.42706  -0.42596  -0.42290
 Alpha  occ. eigenvalues --   -0.42274  -0.42037  -0.41944  -0.41842  -0.41636
 Alpha  occ. eigenvalues --   -0.41115  -0.41005  -0.40786  -0.40520  -0.40306
 Alpha  occ. eigenvalues --   -0.40102  -0.39964  -0.39771  -0.39666  -0.39617
 Alpha  occ. eigenvalues --   -0.39441  -0.39276  -0.38971  -0.38930  -0.38826
 Alpha  occ. eigenvalues --   -0.38794  -0.38604  -0.38521  -0.38279  -0.38132
 Alpha  occ. eigenvalues --   -0.37990  -0.37794  -0.37658  -0.37021  -0.36889
 Alpha  occ. eigenvalues --   -0.36716  -0.36452  -0.36409  -0.36226  -0.36117
 Alpha  occ. eigenvalues --   -0.35572  -0.35425  -0.35360  -0.35107  -0.34935
 Alpha  occ. eigenvalues --   -0.34618  -0.34441  -0.34217  -0.33644  -0.33474
 Alpha  occ. eigenvalues --   -0.33331  -0.33264  -0.32973  -0.32711  -0.32631
 Alpha  occ. eigenvalues --   -0.32602  -0.32098  -0.31961  -0.31221  -0.31079
 Alpha  occ. eigenvalues --   -0.30813  -0.30050  -0.29743  -0.29505  -0.29172
 Alpha  occ. eigenvalues --   -0.29073  -0.28645  -0.27809  -0.26838  -0.26333
 Alpha  occ. eigenvalues --   -0.26233  -0.26171  -0.25169  -0.25032  -0.20901
 Alpha  occ. eigenvalues --   -0.19044
 Alpha virt. eigenvalues --   -0.11284  -0.05255  -0.03931  -0.01986  -0.01189
 Alpha virt. eigenvalues --    0.00427   0.00549   0.01800   0.01943   0.02740
 Alpha virt. eigenvalues --    0.03804   0.04452   0.05146   0.05611   0.05728

 Mulliken charges:
               1
     1  Mg   0.974316
     2  C   -0.037400
     3  C   -0.078801
     4  C   -0.038959
     5  C   -0.073141
     6  N   -0.372054
     7  C    0.015850
     8  C   -0.075639
     9  C   -0.140061
    10  C    0.092304
    11  C   -0.020403
    12  C    0.053295
    13  C   -0.019151
    14  C    0.210191
    15  O   -0.294579
    16  O   -0.327776
    17  N   -0.584452
    18  C    0.197398
    19  C   -0.134737
    20  C   -0.064052
    21  C    0.203456
    22  C    0.028289
    23  C    0.040986
    24  O   -0.223051
    25  C   -0.034897
    26  N   -0.380036
    27  C    0.037745
    28  C   -0.115304
    29  C   -0.117165
    30  C    0.030908
    31  C    0.055211
    32  C   -0.028574
    33  C   -0.078499
    34  N   -0.413817
    35  C    0.153168
    36  C   -0.193152
    37  C   -0.066006
    38  C    0.176852
    39  C    0.070149
    40  C    0.181911
    41  O   -0.238840
    42  C   -0.125715
    43  C    0.254001
    44  O   -0.246527
    45  O   -0.379649
    46  C    0.118554
    47  C    0.206070
    48  C   -0.109847
    49  C   -0.242332
    50  C    0.019047
    51  C    0.003364
    52  C   -0.051530
    53  C    0.023223
    54  C   -0.216486
    55  C   -0.024678
    56  C   -0.018876
    57  C   -0.035133
    58  C    0.011829
    59  C   -0.224984
    60  C   -0.017343
    61  C   -0.018418
    62  C   -0.035405
    63  C   -0.028831
    64  C   -0.236171
    65  C   -0.024234
    66  C   -0.016855
    67  H   -0.011005
    68  H    0.027958
    69  H    0.002119
    70  H    0.078466
    71  H    0.052793
    72  H    0.055461
    73  H    0.041981
    74  H    0.039862
    75  H    0.050643
    76  H    0.070435
    77  H    0.045548
    78  H    0.068585
    79  H    0.054111
    80  H    0.062776
    81  H    0.043090
    82  H    0.067907
    83  H    0.051905
    84  H    0.048112
    85  H    0.045243
    86  H    0.043859
    87  H    0.053649
    88  H    0.032295
    89  H    0.044763
    90  H    0.048950
    91  H    0.045168
    92  H    0.036966
    93  H    0.054219
    94  H    0.038672
    95  H    0.059322
    96  H    0.041475
    97  H    0.058919
    98  H    0.083351
    99  H    0.055514
   100  H    0.076108
   101  H    0.060527
   102  H    0.069221
   103  H    0.059794
   104  H    0.027782
   105  H    0.032791
   106  H    0.056498
   107  H    0.057721
   108  H    0.029673
   109  H    0.034260
   110  H    0.028883
   111  H    0.024781
   112  H    0.019631
   113  H    0.030335
   114  H    0.030128
   115  H    0.038362
   116  H    0.037283
   117  H    0.020024
   118  H    0.030742
   119  H    0.028037
   120  H    0.024964
   121  H    0.030044
   122  H    0.035205
   123  H    0.032550
   124  H    0.031235
   125  H    0.025239
   126  H    0.037602
   127  H    0.033945
   128  H    0.026306
   129  H    0.022980
   130  H    0.037618
   131  H    0.043259
   132  H    0.024562
   133  H    0.026141
   134  H    0.033510
   135  H    0.028997
   136  H    0.038807
   137  H    0.034996
   138  H    0.029273
   139  H    0.033978
   140  H    0.028540
 Sum of Mulliken charges =  -0.00000

 Dipole moment (field-independent basis, Debye):
    X=             -6.4591    Y=              4.5318    Z=              2.4234  Tot=              8.2541
 Quadrupole moment (field-independent basis, Debye-Ang):
   XX=           -395.7594   YY=           -435.3779   ZZ=           -402.0857
   XY=             45.9298   XZ=             22.5576   YZ=             -6.0457

 Normal termination of Gaussian 16 at Thu May  5 13:16:14 2022.
