 Gaussian 16, Revision A.03,
 Gaussian 16:  ES64L-G16RevA.03 25-Dec-2016

 --------------------------------
 #p wB97XD/Def2SVP td=(nstates=5)
 --------------------------------

 ----------------------------------------------------
 step_901_chromophore_21 TDDFT with wB97XD functional
 ----------------------------------------------------
 Symbolic Z-matrix:
 Charge =  0 Multiplicity = 1

                         Standard orientation:
 ---------------------------------------------------------------------
 Center     Atomic      Atomic             Coordinates (Angstroms)
 Number     Number       Type             X           Y           Z
 ---------------------------------------------------------------------
      1         12           0        5.325978    1.191713    0.017971
      2          6           0        5.136684   -2.425725    0.093893
      3          6           0        2.011925    1.309694    0.004649
      4          6           0        5.724045    4.423769   -0.201885
      5          6           0        8.888074    0.702406   -0.278382
      6          7           0        3.726718   -0.458478    0.107391
      7          6           0        3.846754   -1.880089    0.191976
      8          6           0        2.539129   -2.560782    0.314398
      9          6           0        1.540851   -1.330233    0.117696
     10          6           0        2.463851   -0.048652    0.091911
     11          6           0        0.629631   -1.440579   -1.133247
     12          6           0        2.489943   -3.153393    1.754938
     13          6           0        1.078214   -3.623455    2.206597
     14          6           0        0.024834   -4.077909    1.195618
     15          8           0        0.272898   -5.049757    0.455208
     16          8           0       -1.117109   -3.337398    1.272242
     17          7           0        4.025409    2.643103   -0.093583
     18          6           0        2.658875    2.553251   -0.059166
     19          6           0        2.063942    3.894231   -0.094800
     20          6           0        3.184980    4.854469   -0.153807
     21          6           0        4.376747    3.999600   -0.154577
     22          6           0        0.568194    4.062859    0.091314
     23          6           0        3.207857    6.325291   -0.208370
     24          8           0        4.244344    6.944132   -0.303087
     25          6           0        1.865422    7.047030   -0.191551
     26          7           0        7.123759    2.401215   -0.181649
     27          6           0        6.939245    3.714038   -0.261661
     28          6           0        8.328606    4.489598   -0.379202
     29          6           0        9.330527    3.288244   -0.041452
     30          6           0        8.472619    2.043457   -0.221920
     31          6           0        8.613476    5.197324   -1.608802
     32          6           0        9.740347    3.287218    1.464203
     33          6           0       11.247247    3.695433    1.653356
     34          7           0        6.728598   -0.462263   -0.080783
     35          6           0        8.108061   -0.444313   -0.174967
     36          6           0        8.574749   -1.760153   -0.122293
     37          6           0        7.438060   -2.556729    0.027938
     38          6           0        6.366349   -1.709708    0.072067
     39          6           0       10.041147   -2.322281   -0.169808
     40          6           0        7.026205   -3.944874    0.042369
     41          8           0        7.681791   -4.985449   -0.157501
     42          6           0        5.485627   -3.884825    0.303163
     43          6           0        4.780603   -4.689676   -0.753783
     44          8           0        4.741946   -4.535594   -1.947464
     45          8           0        4.147190   -5.786073   -0.239919
     46          6           0        3.167605   -6.360169   -1.219703
     47          6           0       -2.090168   -3.844206    0.374230
     48          6           0       -3.267848   -2.851353    0.163342
     49          6           0       -3.998294   -2.609741   -0.947974
     50          6           0       -4.076849   -3.503772   -2.194296
     51          6           0       -5.150034   -1.595823   -0.980791
     52          6           0       -6.520483   -2.185802   -0.588129
     53          6           0       -7.193758   -1.442912    0.596554
     54          6           0       -8.384200   -0.545637    0.171872
     55          6           0       -8.184992    0.980076    0.389367
     56          6           0       -9.705361   -0.977147    0.886552
     57          6           0      -10.969897   -0.656426    0.074146
     58          6           0      -12.137733   -0.319950    0.967943
     59          6           0      -12.368179    1.263813    1.064406
     60          6           0      -11.901298    1.950595    2.362496
     61          6           0      -13.901256    1.616866    0.943543
     62          6           0      -14.394162    1.652942   -0.448224
     63          6           0      -15.638492    0.724484   -0.768073
     64          6           0      -16.920448    1.584671   -1.074722
     65          6           0      -16.621714    2.615686   -2.171650
     66          6           0      -17.753840    2.003631    0.183530
     67          1           0        0.922600    1.374222   -0.034507
     68          1           0        5.982384    5.480620   -0.297002
     69          1           0        9.977265    0.620021   -0.290658
     70          1           0        2.404231   -3.223296   -0.540650
     71          1           0        0.834722   -1.133883    0.924931
     72          1           0        0.641684   -2.387424   -1.672391
     73          1           0        0.826522   -0.705656   -1.914087
     74          1           0       -0.402549   -1.188225   -0.887079
     75          1           0        2.754065   -2.349047    2.441762
     76          1           0        3.089551   -4.050684    1.903438
     77          1           0        0.617853   -2.856224    2.828871
     78          1           0        1.155926   -4.530660    2.805705
     79          1           0        0.155052    4.687131   -0.700535
     80          1           0        0.321892    4.573596    1.021714
     81          1           0       -0.043842    3.164385    0.174329
     82          1           0        1.359385    6.936004   -1.150652
     83          1           0        1.950737    8.119364   -0.016387
     84          1           0        1.220310    6.642102    0.588119
     85          1           0        8.405465    5.178235    0.462651
     86          1           0       10.175115    3.194204   -0.723888
     87          1           0        8.000660    4.803216   -2.419956
     88          1           0        9.676794    5.103671   -1.829694
     89          1           0        8.515870    6.276698   -1.486663
     90          1           0        9.674625    2.297392    1.914501
     91          1           0        9.169392    3.917805    2.145523
     92          1           0       11.555407    4.228330    0.753880
     93          1           0       11.966295    2.903045    1.861213
     94          1           0       11.220086    4.401623    2.483514
     95          1           0       10.053229   -3.356189    0.175742
     96          1           0       10.663274   -1.738673    0.510238
     97          1           0       10.412531   -2.308240   -1.194223
     98          1           0        5.196068   -4.301563    1.267801
     99          1           0        2.754554   -7.242360   -0.729609
    100          1           0        3.730930   -6.538328   -2.135815
    101          1           0        2.338531   -5.672034   -1.382678
    102          1           0       -2.427574   -4.857534    0.592182
    103          1           0       -1.611820   -3.823780   -0.604811
    104          1           0       -3.308607   -2.076604    0.929097
    105          1           0       -3.272922   -4.230039   -2.080703
    106          1           0       -4.000285   -2.814446   -3.034821
    107          1           0       -5.000215   -4.083421   -2.181923
    108          1           0       -5.310783   -1.136740   -1.956698
    109          1           0       -4.771070   -0.792087   -0.349002
    110          1           0       -6.494286   -3.261270   -0.411190
    111          1           0       -7.156916   -2.262973   -1.469748
    112          1           0       -6.447381   -0.751113    0.987114
    113          1           0       -7.475066   -2.167146    1.361382
    114          1           0       -8.357080   -0.588390   -0.916816
    115          1           0       -8.650823    1.401153    1.280656
    116          1           0       -8.542437    1.501842   -0.498750
    117          1           0       -7.125282    1.219698    0.480379
    118          1           0       -9.735589   -0.435159    1.831786
    119          1           0       -9.569912   -2.026698    1.146564
    120          1           0      -11.150269   -1.565284   -0.500588
    121          1           0      -10.900936    0.180709   -0.621063
    122          1           0      -11.833108   -0.794704    1.901434
    123          1           0      -13.008202   -0.777701    0.498666
    124          1           0      -11.781803    1.856693    0.362701
    125          1           0      -10.819164    2.076360    2.345830
    126          1           0      -12.214237    1.323164    3.197393
    127          1           0      -12.284733    2.970566    2.351429
    128          1           0      -14.188178    2.481794    1.542022
    129          1           0      -14.332520    0.732950    1.414841
    130          1           0      -13.672237    1.463926   -1.243348
    131          1           0      -14.722646    2.691436   -0.478270
    132          1           0      -15.846279    0.066994    0.076441
    133          1           0      -15.495896    0.061760   -1.621285
    134          1           0      -17.627725    0.951692   -1.609854
    135          1           0      -17.365035    2.391955   -2.937320
    136          1           0      -15.634829    2.472905   -2.612107
    137          1           0      -16.722633    3.681511   -1.965896
    138          1           0      -18.669448    1.418851    0.265678
    139          1           0      -18.044088    3.054763    0.210399
    140          1           0      -17.304733    1.754541    1.144651
 ---------------------------------------------------------------------

 SCF Done:  E(RwB97XD) =  -3007.86291796     A.U. after   19 cycles

 Excitation energies and oscillator strengths:

 Excited State   1:      Singlet-A      1.7304 eV  716.50 nm  f=0.3693  <S**2>=0.000
     245 -> 248       -0.18161
     246 -> 247        0.68258
     245 <- 248       -0.11018
 This state for optimization and/or second-order correction.
 Total Energy, E(TD-HF/TD-DFT) =  -3007.79932680
 Copying the excited state density for this state as the 1-particle RhoCI density.

 Excited State   2:      Singlet-A      2.1735 eV  570.43 nm  f=0.1351  <S**2>=0.000
     245 -> 247        0.64732
     246 -> 248        0.26391

 Excited State   3:      Singlet-A      3.4448 eV  359.92 nm  f=0.0533  <S**2>=0.000
     240 -> 247       -0.13138
     241 -> 247        0.20564
     242 -> 247       -0.30924
     244 -> 247        0.52041
     246 -> 248        0.20311

 Excited State   4:      Singlet-A      3.5535 eV  348.90 nm  f=0.1566  <S**2>=0.000
     239 -> 247        0.12450
     240 -> 247       -0.17668
     241 -> 247        0.14421
     242 -> 247       -0.21350
     244 -> 247       -0.40855
     245 -> 247       -0.11607
     246 -> 248        0.42083

 Excited State   5:      Singlet-A      3.5779 eV  346.53 nm  f=0.0166  <S**2>=0.000
     239 -> 247        0.55355
     239 -> 248       -0.17214
     239 -> 249        0.31722
     239 -> 250        0.14315
     246 -> 248       -0.12067

 The electronic state is 1-A.
 Alpha  occ. eigenvalues --  -46.95062 -19.32913 -19.28033 -19.25880 -19.24599
 Alpha  occ. eigenvalues --  -19.23039 -19.23034 -14.46760 -14.46301 -14.44801
 Alpha  occ. eigenvalues --  -14.42855 -10.44548 -10.41393 -10.39651 -10.38150
 Alpha  occ. eigenvalues --  -10.36823 -10.36110 -10.35668 -10.35448 -10.35182
 Alpha  occ. eigenvalues --  -10.35153 -10.34671 -10.34181 -10.33560 -10.33063
 Alpha  occ. eigenvalues --  -10.32859 -10.32799 -10.32285 -10.32170 -10.32031
 Alpha  occ. eigenvalues --  -10.31994 -10.31914 -10.31800 -10.31764 -10.31735
 Alpha  occ. eigenvalues --  -10.31651 -10.31543 -10.31249 -10.30944 -10.30575
 Alpha  occ. eigenvalues --  -10.30455 -10.30350 -10.30330 -10.30305 -10.30231
 Alpha  occ. eigenvalues --  -10.30192 -10.30035 -10.29866 -10.29833 -10.29785
 Alpha  occ. eigenvalues --  -10.29773 -10.29171 -10.29125 -10.29100 -10.29086
 Alpha  occ. eigenvalues --  -10.29080 -10.29065 -10.28932 -10.28608 -10.28520
 Alpha  occ. eigenvalues --  -10.28411 -10.28386 -10.28217 -10.28126 -10.28122
 Alpha  occ. eigenvalues --  -10.27127  -3.21038  -1.94637  -1.94154  -1.94021
 Alpha  occ. eigenvalues --   -1.21041  -1.17635  -1.13706  -1.11077  -1.09690
 Alpha  occ. eigenvalues --   -1.07775  -1.06334  -1.05442  -1.05042  -1.04334
 Alpha  occ. eigenvalues --   -0.94545  -0.92736  -0.91933  -0.91700  -0.90808
 Alpha  occ. eigenvalues --   -0.90586  -0.90262  -0.89538  -0.89027  -0.88918
 Alpha  occ. eigenvalues --   -0.87743  -0.87442  -0.86516  -0.85964  -0.85321
 Alpha  occ. eigenvalues --   -0.84585  -0.84318  -0.83346  -0.82759  -0.82213
 Alpha  occ. eigenvalues --   -0.81787  -0.80942  -0.79746  -0.78991  -0.78022
 Alpha  occ. eigenvalues --   -0.77784  -0.77251  -0.76895  -0.76808  -0.76190
 Alpha  occ. eigenvalues --   -0.75845  -0.74705  -0.73406  -0.72904  -0.71317
 Alpha  occ. eigenvalues --   -0.70476  -0.70116  -0.69548  -0.69240  -0.68110
 Alpha  occ. eigenvalues --   -0.67529  -0.67263  -0.66998  -0.66696  -0.65981
 Alpha  occ. eigenvalues --   -0.65856  -0.64842  -0.63553  -0.62992  -0.62433
 Alpha  occ. eigenvalues --   -0.61984  -0.61350  -0.61242  -0.60477  -0.59819
 Alpha  occ. eigenvalues --   -0.59276  -0.59222  -0.58883  -0.58333  -0.57959
 Alpha  occ. eigenvalues --   -0.57202  -0.56739  -0.56662  -0.56364  -0.55819
 Alpha  occ. eigenvalues --   -0.55730  -0.55634  -0.55087  -0.54850  -0.54777
 Alpha  occ. eigenvalues --   -0.54544  -0.54492  -0.54074  -0.53996  -0.53923
 Alpha  occ. eigenvalues --   -0.53569  -0.53543  -0.53359  -0.52962  -0.52856
 Alpha  occ. eigenvalues --   -0.52567  -0.52206  -0.52157  -0.51737  -0.51581
 Alpha  occ. eigenvalues --   -0.51558  -0.51105  -0.50994  -0.50860  -0.50668
 Alpha  occ. eigenvalues --   -0.50399  -0.50274  -0.49943  -0.49872  -0.49605
 Alpha  occ. eigenvalues --   -0.49509  -0.49361  -0.49219  -0.49137  -0.48795
 Alpha  occ. eigenvalues --   -0.48254  -0.48163  -0.48074  -0.47700  -0.47394
 Alpha  occ. eigenvalues --   -0.47336  -0.47102  -0.47001  -0.46801  -0.46787
 Alpha  occ. eigenvalues --   -0.46617  -0.46485  -0.46124  -0.46114  -0.45916
 Alpha  occ. eigenvalues --   -0.45910  -0.45810  -0.45695  -0.45529  -0.45387
 Alpha  occ. eigenvalues --   -0.45208  -0.44946  -0.44928  -0.44083  -0.43910
 Alpha  occ. eigenvalues --   -0.43709  -0.43582  -0.43425  -0.43271  -0.43139
 Alpha  occ. eigenvalues --   -0.42562  -0.42517  -0.42470  -0.42213  -0.41966
 Alpha  occ. eigenvalues --   -0.41509  -0.41480  -0.41146  -0.40724  -0.40527
 Alpha  occ. eigenvalues --   -0.40327  -0.40234  -0.40049  -0.39753  -0.39694
 Alpha  occ. eigenvalues --   -0.39488  -0.39137  -0.38979  -0.38237  -0.37973
 Alpha  occ. eigenvalues --   -0.37846  -0.37054  -0.36687  -0.36583  -0.35867
 Alpha  occ. eigenvalues --   -0.35772  -0.35554  -0.34801  -0.33837  -0.33528
 Alpha  occ. eigenvalues --   -0.33022  -0.32943  -0.31942  -0.31243  -0.25913
 Alpha  occ. eigenvalues --   -0.23277
 Alpha virt. eigenvalues --   -0.07155   0.00228   0.02226   0.04598   0.05661
 Alpha virt. eigenvalues --    0.06345   0.07142   0.08430   0.08892   0.08933
 Alpha virt. eigenvalues --    0.10459   0.11172   0.11898   0.12273   0.12500

 Mulliken charges:
               1
     1  Mg   0.964018
     2  C   -0.042960
     3  C   -0.093886
     4  C   -0.057866
     5  C   -0.089459
     6  N   -0.338874
     7  C   -0.019868
     8  C   -0.034559
     9  C   -0.117361
    10  C    0.077940
    11  C   -0.011161
    12  C    0.061190
    13  C   -0.001119
    14  C    0.195027
    15  O   -0.291168
    16  O   -0.325379
    17  N   -0.556128
    18  C    0.195109
    19  C   -0.123126
    20  C   -0.056294
    21  C    0.200089
    22  C    0.037410
    23  C    0.038790
    24  O   -0.214490
    25  C   -0.024190
    26  N   -0.347602
    27  C    0.024614
    28  C   -0.088820
    29  C   -0.086115
    30  C    0.012742
    31  C    0.061506
    32  C   -0.019308
    33  C   -0.060813
    34  N   -0.372167
    35  C    0.146044
    36  C   -0.197165
    37  C   -0.061364
    38  C    0.159060
    39  C    0.082722
    40  C    0.158483
    41  O   -0.230920
    42  C   -0.080120
    43  C    0.225049
    44  O   -0.241392
    45  O   -0.378031
    46  C    0.137786
    47  C    0.223452
    48  C   -0.122019
    49  C   -0.223615
    50  C    0.033620
    51  C    0.022606
    52  C   -0.039282
    53  C    0.040832
    54  C   -0.189828
    55  C   -0.010099
    56  C    0.003377
    57  C   -0.019835
    58  C    0.028462
    59  C   -0.199505
    60  C    0.000023
    61  C    0.004052
    62  C   -0.022282
    63  C   -0.013021
    64  C   -0.204743
    65  C   -0.014896
    66  C   -0.007483
    67  H   -0.020532
    68  H    0.023544
    69  H   -0.002837
    70  H    0.060027
    71  H    0.041072
    72  H    0.051693
    73  H    0.036493
    74  H    0.032513
    75  H    0.043202
    76  H    0.061753
    77  H    0.039719
    78  H    0.063119
    79  H    0.050508
    80  H    0.059807
    81  H    0.042469
    82  H    0.064211
    83  H    0.052183
    84  H    0.041576
    85  H    0.035034
    86  H    0.033761
    87  H    0.048470
    88  H    0.026757
    89  H    0.039873
    90  H    0.039413
    91  H    0.036636
    92  H    0.028103
    93  H    0.049165
    94  H    0.032142
    95  H    0.054348
    96  H    0.034175
    97  H    0.052715
    98  H    0.076642
    99  H    0.052548
   100  H    0.071409
   101  H    0.054147
   102  H    0.065512
   103  H    0.048000
   104  H    0.024308
   105  H    0.026503
   106  H    0.050682
   107  H    0.051939
   108  H    0.022578
   109  H    0.024253
   110  H    0.020318
   111  H    0.016726
   112  H    0.006690
   113  H    0.023565
   114  H    0.015966
   115  H    0.028774
   116  H    0.031764
   117  H    0.013064
   118  H    0.016051
   119  H    0.019615
   120  H    0.018418
   121  H    0.018065
   122  H    0.025310
   123  H    0.023146
   124  H    0.017575
   125  H    0.015495
   126  H    0.031023
   127  H    0.027592
   128  H    0.019489
   129  H    0.008150
   130  H    0.030156
   131  H    0.031909
   132  H    0.014597
   133  H    0.019213
   134  H    0.022892
   135  H    0.023933
   136  H    0.031064
   137  H    0.029763
   138  H    0.024028
   139  H    0.028748
   140  H    0.021577
 Sum of Mulliken charges =  -0.00000

 Dipole moment (field-independent basis, Debye):
    X=             -7.2276    Y=              5.2992    Z=              2.4268  Tot=              9.2849
 Quadrupole moment (field-independent basis, Debye-Ang):
   XX=           -403.6500   YY=           -432.5260   ZZ=           -401.7775
   XY=             48.0052   XZ=             22.5671   YZ=             -6.2686

 Normal termination of Gaussian 16 at Thu May  5 13:57:24 2022.
