 Gaussian 16, Revision A.03,
 Gaussian 16:  ES64L-G16RevA.03 25-Dec-2016

 --------------------
 #p ZINDO=(nstates=5)
 --------------------

 -----------------------------
 step_901_chromophore_21 ZINDO
 -----------------------------
 Symbolic Z-matrix:
 Charge =  0 Multiplicity = 1

                         Standard orientation:
 ---------------------------------------------------------------------
 Center     Atomic      Atomic             Coordinates (Angstroms)
 Number     Number       Type             X           Y           Z
 ---------------------------------------------------------------------
      1         12           0        5.325978    1.191713    0.017971
      2          6           0        5.136684   -2.425725    0.093893
      3          6           0        2.011925    1.309694    0.004649
      4          6           0        5.724045    4.423769   -0.201885
      5          6           0        8.888074    0.702406   -0.278382
      6          7           0        3.726718   -0.458478    0.107391
      7          6           0        3.846754   -1.880089    0.191976
      8          6           0        2.539129   -2.560782    0.314398
      9          6           0        1.540851   -1.330233    0.117696
     10          6           0        2.463851   -0.048652    0.091911
     11          6           0        0.629631   -1.440579   -1.133247
     12          6           0        2.489943   -3.153393    1.754938
     13          6           0        1.078214   -3.623455    2.206597
     14          6           0        0.024834   -4.077909    1.195618
     15          8           0        0.272898   -5.049757    0.455208
     16          8           0       -1.117109   -3.337398    1.272242
     17          7           0        4.025409    2.643103   -0.093583
     18          6           0        2.658875    2.553251   -0.059166
     19          6           0        2.063942    3.894231   -0.094800
     20          6           0        3.184980    4.854469   -0.153807
     21          6           0        4.376747    3.999600   -0.154577
     22          6           0        0.568194    4.062859    0.091314
     23          6           0        3.207857    6.325291   -0.208370
     24          8           0        4.244344    6.944132   -0.303087
     25          6           0        1.865422    7.047030   -0.191551
     26          7           0        7.123759    2.401215   -0.181649
     27          6           0        6.939245    3.714038   -0.261661
     28          6           0        8.328606    4.489598   -0.379202
     29          6           0        9.330527    3.288244   -0.041452
     30          6           0        8.472619    2.043457   -0.221920
     31          6           0        8.613476    5.197324   -1.608802
     32          6           0        9.740347    3.287218    1.464203
     33          6           0       11.247247    3.695433    1.653356
     34          7           0        6.728598   -0.462263   -0.080783
     35          6           0        8.108061   -0.444313   -0.174967
     36          6           0        8.574749   -1.760153   -0.122293
     37          6           0        7.438060   -2.556729    0.027938
     38          6           0        6.366349   -1.709708    0.072067
     39          6           0       10.041147   -2.322281   -0.169808
     40          6           0        7.026205   -3.944874    0.042369
     41          8           0        7.681791   -4.985449   -0.157501
     42          6           0        5.485627   -3.884825    0.303163
     43          6           0        4.780603   -4.689676   -0.753783
     44          8           0        4.741946   -4.535594   -1.947464
     45          8           0        4.147190   -5.786073   -0.239919
     46          6           0        3.167605   -6.360169   -1.219703
     47          6           0       -2.090168   -3.844206    0.374230
     48          6           0       -3.267848   -2.851353    0.163342
     49          6           0       -3.998294   -2.609741   -0.947974
     50          6           0       -4.076849   -3.503772   -2.194296
     51          6           0       -5.150034   -1.595823   -0.980791
     52          6           0       -6.520483   -2.185802   -0.588129
     53          6           0       -7.193758   -1.442912    0.596554
     54          6           0       -8.384200   -0.545637    0.171872
     55          6           0       -8.184992    0.980076    0.389367
     56          6           0       -9.705361   -0.977147    0.886552
     57          6           0      -10.969897   -0.656426    0.074146
     58          6           0      -12.137733   -0.319950    0.967943
     59          6           0      -12.368179    1.263813    1.064406
     60          6           0      -11.901298    1.950595    2.362496
     61          6           0      -13.901256    1.616866    0.943543
     62          6           0      -14.394162    1.652942   -0.448224
     63          6           0      -15.638492    0.724484   -0.768073
     64          6           0      -16.920448    1.584671   -1.074722
     65          6           0      -16.621714    2.615686   -2.171650
     66          6           0      -17.753840    2.003631    0.183530
     67          1           0        0.922600    1.374222   -0.034507
     68          1           0        5.982384    5.480620   -0.297002
     69          1           0        9.977265    0.620021   -0.290658
     70          1           0        2.404231   -3.223296   -0.540650
     71          1           0        0.834722   -1.133883    0.924931
     72          1           0        0.641684   -2.387424   -1.672391
     73          1           0        0.826522   -0.705656   -1.914087
     74          1           0       -0.402549   -1.188225   -0.887079
     75          1           0        2.754065   -2.349047    2.441762
     76          1           0        3.089551   -4.050684    1.903438
     77          1           0        0.617853   -2.856224    2.828871
     78          1           0        1.155926   -4.530660    2.805705
     79          1           0        0.155052    4.687131   -0.700535
     80          1           0        0.321892    4.573596    1.021714
     81          1           0       -0.043842    3.164385    0.174329
     82          1           0        1.359385    6.936004   -1.150652
     83          1           0        1.950737    8.119364   -0.016387
     84          1           0        1.220310    6.642102    0.588119
     85          1           0        8.405465    5.178235    0.462651
     86          1           0       10.175115    3.194204   -0.723888
     87          1           0        8.000660    4.803216   -2.419956
     88          1           0        9.676794    5.103671   -1.829694
     89          1           0        8.515870    6.276698   -1.486663
     90          1           0        9.674625    2.297392    1.914501
     91          1           0        9.169392    3.917805    2.145523
     92          1           0       11.555407    4.228330    0.753880
     93          1           0       11.966295    2.903045    1.861213
     94          1           0       11.220086    4.401623    2.483514
     95          1           0       10.053229   -3.356189    0.175742
     96          1           0       10.663274   -1.738673    0.510238
     97          1           0       10.412531   -2.308240   -1.194223
     98          1           0        5.196068   -4.301563    1.267801
     99          1           0        2.754554   -7.242360   -0.729609
    100          1           0        3.730930   -6.538328   -2.135815
    101          1           0        2.338531   -5.672034   -1.382678
    102          1           0       -2.427574   -4.857534    0.592182
    103          1           0       -1.611820   -3.823780   -0.604811
    104          1           0       -3.308607   -2.076604    0.929097
    105          1           0       -3.272922   -4.230039   -2.080703
    106          1           0       -4.000285   -2.814446   -3.034821
    107          1           0       -5.000215   -4.083421   -2.181923
    108          1           0       -5.310783   -1.136740   -1.956698
    109          1           0       -4.771070   -0.792087   -0.349002
    110          1           0       -6.494286   -3.261270   -0.411190
    111          1           0       -7.156916   -2.262973   -1.469748
    112          1           0       -6.447381   -0.751113    0.987114
    113          1           0       -7.475066   -2.167146    1.361382
    114          1           0       -8.357080   -0.588390   -0.916816
    115          1           0       -8.650823    1.401153    1.280656
    116          1           0       -8.542437    1.501842   -0.498750
    117          1           0       -7.125282    1.219698    0.480379
    118          1           0       -9.735589   -0.435159    1.831786
    119          1           0       -9.569912   -2.026698    1.146564
    120          1           0      -11.150269   -1.565284   -0.500588
    121          1           0      -10.900936    0.180709   -0.621063
    122          1           0      -11.833108   -0.794704    1.901434
    123          1           0      -13.008202   -0.777701    0.498666
    124          1           0      -11.781803    1.856693    0.362701
    125          1           0      -10.819164    2.076360    2.345830
    126          1           0      -12.214237    1.323164    3.197393
    127          1           0      -12.284733    2.970566    2.351429
    128          1           0      -14.188178    2.481794    1.542022
    129          1           0      -14.332520    0.732950    1.414841
    130          1           0      -13.672237    1.463926   -1.243348
    131          1           0      -14.722646    2.691436   -0.478270
    132          1           0      -15.846279    0.066994    0.076441
    133          1           0      -15.495896    0.061760   -1.621285
    134          1           0      -17.627725    0.951692   -1.609854
    135          1           0      -17.365035    2.391955   -2.937320
    136          1           0      -15.634829    2.472905   -2.612107
    137          1           0      -16.722633    3.681511   -1.965896
    138          1           0      -18.669448    1.418851    0.265678
    139          1           0      -18.044088    3.054763    0.210399
    140          1           0      -17.304733    1.754541    1.144651
 ---------------------------------------------------------------------

 SCF Done:  E(RZINDO/S) =  -474.292699297     A.U. after   19 cycles

 Excitation energies and oscillator strengths:

 Excited State   1:      Singlet-A      1.2878 eV  962.78 nm  f=0.5710  <S**2>=0.000
     175 ->178        -0.17171
     176 ->177         0.66884
 This state for optimization and/or second-order correction.
 Total Energy, E(CIS/TDA) =  -474.245374374
 Copying the excited state density for this state as the 1-particle RhoCI density.

 Excited State   2:      Singlet-A      1.9579 eV  633.24 nm  f=0.0683  <S**2>=0.000
     175 ->177         0.55954
     176 ->178         0.40078

 Excited State   3:      Singlet-A      2.9296 eV  423.21 nm  f=0.0019  <S**2>=0.000
     166 ->179        -0.10446
     167 ->177        -0.17802
     167 ->179         0.20927
     167 ->186         0.10192
     168 ->177         0.32110
     168 ->178        -0.14153
     168 ->179        -0.36067
     168 ->181         0.16433
     168 ->186        -0.17497

 Excited State   4:      Singlet-A      3.0261 eV  409.71 nm  f=1.1025  <S**2>=0.000
     170 ->177         0.10826
     175 ->177        -0.36464
     176 ->178         0.54139
     176 ->179         0.13856

 Excited State   5:      Singlet-A      3.0599 eV  405.19 nm  f=0.0082  <S**2>=0.000
     170 ->177        -0.14684
     170 ->179        -0.15463
     170 ->181        -0.24652
     170 ->186        -0.11990
     171 ->177         0.22357
     171 ->179         0.21485
     171 ->181         0.35008
     171 ->186         0.17123
     176 ->179        -0.17400

 The electronic state is 1-A.
 Alpha  occ. eigenvalues --   -1.85522  -1.80295  -1.79599  -1.75800  -1.73461
 Alpha  occ. eigenvalues --   -1.70774  -1.66059  -1.61220  -1.60612  -1.57713
 Alpha  occ. eigenvalues --   -1.55486  -1.51765  -1.49563  -1.46063  -1.45964
 Alpha  occ. eigenvalues --   -1.42553  -1.41615  -1.40117  -1.39726  -1.38748
 Alpha  occ. eigenvalues --   -1.35517  -1.32730  -1.31275  -1.30688  -1.29356
 Alpha  occ. eigenvalues --   -1.28759  -1.24993  -1.23318  -1.21537  -1.18812
 Alpha  occ. eigenvalues --   -1.17979  -1.16431  -1.15040  -1.14918  -1.12794
 Alpha  occ. eigenvalues --   -1.12067  -1.11364  -1.10314  -1.05255  -1.03827
 Alpha  occ. eigenvalues --   -1.02710  -1.01411  -0.99775  -0.97749  -0.96828
 Alpha  occ. eigenvalues --   -0.95582  -0.94467  -0.93592  -0.92766  -0.92108
 Alpha  occ. eigenvalues --   -0.91296  -0.91165  -0.88863  -0.88590  -0.86841
 Alpha  occ. eigenvalues --   -0.85434  -0.84452  -0.83125  -0.82183  -0.80484
 Alpha  occ. eigenvalues --   -0.79758  -0.78542  -0.77895  -0.76819  -0.76354
 Alpha  occ. eigenvalues --   -0.75832  -0.75597  -0.74867  -0.73959  -0.73581
 Alpha  occ. eigenvalues --   -0.72923  -0.72495  -0.72377  -0.71850  -0.70921
 Alpha  occ. eigenvalues --   -0.70676  -0.69568  -0.69048  -0.68857  -0.67735
 Alpha  occ. eigenvalues --   -0.67352  -0.66988  -0.66622  -0.66202  -0.66123
 Alpha  occ. eigenvalues --   -0.65785  -0.65111  -0.64811  -0.64081  -0.63720
 Alpha  occ. eigenvalues --   -0.63437  -0.62362  -0.62141  -0.61892  -0.61627
 Alpha  occ. eigenvalues --   -0.61556  -0.61419  -0.60591  -0.60517  -0.60279
 Alpha  occ. eigenvalues --   -0.60037  -0.59500  -0.59392  -0.58844  -0.58607
 Alpha  occ. eigenvalues --   -0.58170  -0.57566  -0.57455  -0.56916  -0.56273
 Alpha  occ. eigenvalues --   -0.55849  -0.55321  -0.55144  -0.54945  -0.54648
 Alpha  occ. eigenvalues --   -0.54471  -0.53955  -0.53591  -0.53242  -0.52991
 Alpha  occ. eigenvalues --   -0.52923  -0.52512  -0.51891  -0.51803  -0.51386
 Alpha  occ. eigenvalues --   -0.51265  -0.51182  -0.50866  -0.50481  -0.50402
 Alpha  occ. eigenvalues --   -0.49812  -0.49571  -0.49446  -0.49312  -0.49157
 Alpha  occ. eigenvalues --   -0.48898  -0.48303  -0.48125  -0.47982  -0.47702
 Alpha  occ. eigenvalues --   -0.47504  -0.47019  -0.46994  -0.46797  -0.46726
 Alpha  occ. eigenvalues --   -0.46151  -0.46117  -0.46075  -0.45618  -0.45388
 Alpha  occ. eigenvalues --   -0.45186  -0.44830  -0.44712  -0.43869  -0.43692
 Alpha  occ. eigenvalues --   -0.43526  -0.43500  -0.42855  -0.42492  -0.42223
 Alpha  occ. eigenvalues --   -0.41436  -0.41363  -0.40700  -0.39126  -0.38892
 Alpha  occ. eigenvalues --   -0.36736  -0.36477  -0.36179  -0.35236  -0.34070
 Alpha  occ. eigenvalues --   -0.33938  -0.33044  -0.32270  -0.31693  -0.26750
 Alpha  occ. eigenvalues --   -0.21989
 Alpha virt. eigenvalues --   -0.08683  -0.01983  -0.00827   0.00896   0.01581
 Alpha virt. eigenvalues --    0.02950   0.02999   0.03993   0.04189   0.04948
 Alpha virt. eigenvalues --    0.05887   0.06305   0.06514   0.07617   0.08120

 Mulliken charges:
               1
     1  Mg   0.429764
     2  C   -0.032034
     3  C   -0.091497
     4  C   -0.072320
     5  C   -0.050969
     6  N   -0.291377
     7  C    0.086677
     8  C    0.018145
     9  C    0.005317
    10  C    0.168178
    11  C   -0.053353
    12  C   -0.009477
    13  C   -0.005974
    14  C    0.469142
    15  O   -0.532586
    16  O   -0.247150
    17  N   -0.335663
    18  C    0.139734
    19  C    0.022897
    20  C   -0.039155
    21  C    0.147217
    22  C   -0.037510
    23  C    0.340592
    24  O   -0.510399
    25  C   -0.032314
    26  N   -0.265926
    27  C    0.160468
    28  C    0.009383
    29  C    0.005929
    30  C    0.081574
    31  C   -0.038970
    32  C   -0.030278
    33  C   -0.067446
    34  N   -0.319411
    35  C    0.080821
    36  C    0.003115
    37  C   -0.060586
    38  C    0.120414
    39  C   -0.046100
    40  C    0.329308
    41  O   -0.531277
    42  C    0.055784
    43  C    0.486116
    44  O   -0.524239
    45  O   -0.286620
    46  C    0.073973
    47  C    0.104322
    48  C   -0.096753
    49  C   -0.009649
    50  C   -0.049867
    51  C   -0.019185
    52  C   -0.030421
    53  C   -0.035761
    54  C   -0.021756
    55  C   -0.060500
    56  C   -0.030469
    57  C   -0.036219
    58  C   -0.035404
    59  C   -0.025458
    60  C   -0.061411
    61  C   -0.033985
    62  C   -0.033735
    63  C   -0.036227
    64  C   -0.011065
    65  C   -0.054178
    66  C   -0.056219
    67  H    0.014819
    68  H    0.044399
    69  H    0.024055
    70  H    0.061710
    71  H    0.028965
    72  H    0.031884
    73  H    0.017968
    74  H    0.014215
    75  H    0.029867
    76  H    0.039723
    77  H    0.022765
    78  H    0.042096
    79  H    0.028840
    80  H    0.028968
    81  H    0.030378
    82  H    0.039402
    83  H    0.035038
    84  H    0.029276
    85  H    0.028553
    86  H    0.036863
    87  H    0.029040
    88  H    0.015507
    89  H    0.021079
    90  H    0.021166
    91  H    0.027241
    92  H    0.016412
    93  H    0.028497
    94  H    0.014447
    95  H    0.032398
    96  H    0.020990
    97  H    0.033893
    98  H    0.057821
    99  H    0.029478
   100  H    0.059125
   101  H    0.042798
   102  H    0.060038
   103  H    0.043813
   104  H    0.024587
   105  H    0.021168
   106  H    0.036282
   107  H    0.033511
   108  H    0.019406
   109  H    0.017960
   110  H    0.015956
   111  H    0.016269
   112  H    0.018754
   113  H    0.022793
   114  H    0.022985
   115  H    0.021630
   116  H    0.015313
   117  H    0.010159
   118  H    0.019196
   119  H    0.020398
   120  H    0.012411
   121  H    0.024271
   122  H    0.030473
   123  H    0.021949
   124  H    0.023517
   125  H    0.009064
   126  H    0.023467
   127  H    0.020551
   128  H    0.026181
   129  H    0.012026
   130  H    0.024725
   131  H    0.017941
   132  H    0.015544
   133  H    0.018100
   134  H    0.008616
   135  H    0.010063
   136  H    0.019211
   137  H    0.021574
   138  H    0.014696
   139  H    0.020599
   140  H    0.017149
 Sum of Mulliken charges =  -0.00000

 Dipole moment (field-independent basis, Debye):
    X=            -10.3917    Y=              8.1835    Z=              4.6692  Tot=             14.0271
 N-N= 4.267655662810D+03 E-N= 0.000000000000D+00  KE=-9.209448260815D+03
 Leave Link  601 at Thu May  5 14:18:22 2022, MaxMem=  6710886400 cpu:               1.7 elap:               0.1
 (Enter /sw/apps/gaussian-16.0/g16/l9999.exe)
 1\1\GINC-BP1-COMPUTE132\SP\RZINDO CIS\STO-3G\C55H74Mg1N4O6\OF15641\05-
 May-2022\0\\#p ZINDO=(nstates=5)\\step_901_chromophore_21 ZINDO\\0,1\M
 g,0,15.863,52.528,25.366\C,0,17.862,51.243,28.101\C,0,13.579,53.5,27.5
 65\C,0,14.158,53.478,22.75\C,0,18.381,51.07,23.233\N,0,15.792,52.418,2
 7.662\C,0,16.733,51.906,28.608\C,0,16.312,52.119,30.01\C,0,14.843,52.7
 07,29.796\C,0,14.706,52.921,28.237\C,0,13.71,51.825,30.384\C,0,17.3,53
 .166,30.607\C,0,16.843,53.779,31.961\C,0,15.927,53.014,32.917\O,0,16.3

 Normal termination of Gaussian 16 at Thu May  5 14:18:22 2022.
