 Gaussian 16, Revision A.03,
 Gaussian 16:  ES64L-G16RevA.03 25-Dec-2016

 ------------------------------
 #p blyp/Def2SVP td=(nstates=5)
 ------------------------------

 ---------------------------------------------------
 step_1051_chromophore_18 TDDFT with blyp functional
 ---------------------------------------------------
 Symbolic Z-matrix:
 Charge =  0 Multiplicity = 1

                         Standard orientation:
 ---------------------------------------------------------------------
 Center     Atomic      Atomic             Coordinates (Angstroms)
 Number     Number       Type             X           Y           Z
 ---------------------------------------------------------------------
      1         12           0        5.608126    1.220604    0.335911
      2          6           0        4.899323   -2.296801    0.069763
      3          6           0        2.241841    1.613371    0.221329
      4          6           0        6.191072    4.373754   -0.343697
      5          6           0        8.948511    0.455945   -0.171556
      6          7           0        3.715381   -0.224827   -0.147419
      7          6           0        3.756143   -1.566335   -0.008365
      8          6           0        2.281662   -2.139246    0.003941
      9          6           0        1.420545   -0.808788   -0.098964
     10          6           0        2.492863    0.297173    0.091685
     11          6           0        0.498533   -0.684509   -1.348054
     12          6           0        2.111160   -2.851706    1.363849
     13          6           0        0.648235   -3.223147    1.589908
     14          6           0       -0.186507   -3.753215    0.449347
     15          8           0        0.256612   -4.472598   -0.413602
     16          8           0       -1.488553   -3.285812    0.492547
     17          7           0        4.447836    2.786648    0.016747
     18          6           0        3.057533    2.814808    0.084634
     19          6           0        2.585046    4.170914    0.069369
     20          6           0        3.718799    4.986549   -0.094148
     21          6           0        4.855715    4.056159   -0.139133
     22          6           0        1.037035    4.565395    0.366357
     23          6           0        3.846890    6.542604   -0.134593
     24          8           0        4.894379    7.207697   -0.206395
     25          6           0        2.621659    7.431187    0.042364
     26          7           0        7.393364    2.246826   -0.085254
     27          6           0        7.325820    3.575784   -0.290988
     28          6           0        8.705054    4.198632   -0.510444
     29          6           0        9.676796    2.953408   -0.236116
     30          6           0        8.643707    1.819360   -0.166374
     31          6           0        9.063910    5.034464   -1.880353
     32          6           0       10.538424    3.050294    1.106475
     33          6           0       10.231190    2.196941    2.320854
     34          7           0        6.787502   -0.552518    0.149910
     35          6           0        8.138121   -0.680881   -0.062993
     36          6           0        8.540834   -2.042609   -0.149074
     37          6           0        7.300459   -2.764347    0.035396
     38          6           0        6.284586   -1.805749    0.126065
     39          6           0        9.924145   -2.503461   -0.546888
     40          6           0        6.713182   -4.056061    0.172804
     41          8           0        7.263639   -5.152900    0.236225
     42          6           0        5.172257   -3.856499    0.190209
     43          6           0        4.647464   -4.656261   -0.897523
     44          8           0        4.750508   -4.390378   -2.083149
     45          8           0        3.983399   -5.767967   -0.406449
     46          6           0        3.525331   -6.716833   -1.421309
     47          6           0       -2.311407   -3.816981   -0.568074
     48          6           0       -3.687296   -3.187504   -0.408983
     49          6           0       -4.865314   -3.706148   -0.154894
     50          6           0       -5.353418   -5.154125    0.190343
     51          6           0       -6.063091   -2.781653   -0.074382
     52          6           0       -6.197075   -2.024203    1.233483
     53          6           0       -6.839369   -0.650912    1.046849
     54          6           0       -8.382863   -0.603660    1.124172
     55          6           0       -8.891803   -0.803815    2.579486
     56          6           0       -9.048944    0.605016    0.531704
     57          6           0      -10.128771    0.284912   -0.510659
     58          6           0      -11.403243   -0.090256    0.237095
     59          6           0      -12.480361    0.921413    0.073043
     60          6           0      -13.047396    1.279051    1.480947
     61          6           0      -13.565088    0.531025   -0.999819
     62          6           0      -14.493149    1.703850   -1.309875
     63          6           0      -15.961752    1.418467   -0.864949
     64          6           0      -16.884169    2.658679   -0.803976
     65          6           0      -17.217176    3.186849    0.614441
     66          6           0      -18.052062    2.482591   -1.769237
     67          1           0        1.163429    1.764295    0.306182
     68          1           0        6.438114    5.429646   -0.465152
     69          1           0       10.008759    0.198082   -0.117978
     70          1           0        2.241287   -2.894425   -0.780841
     71          1           0        0.776324   -0.712807    0.773996
     72          1           0        0.803685   -1.473732   -2.035605
     73          1           0        0.710950    0.269651   -1.830472
     74          1           0       -0.514551   -0.780108   -0.959614
     75          1           0        2.437819   -2.300752    2.245447
     76          1           0        2.631218   -3.796630    1.208803
     77          1           0        0.200416   -2.338808    2.042145
     78          1           0        0.642028   -4.015566    2.338619
     79          1           0        0.401751    3.728368    0.657611
     80          1           0        0.517728    4.993283   -0.491319
     81          1           0        0.922828    5.225939    1.225789
     82          1           0        1.961551    7.140175    0.859554
     83          1           0        2.091955    7.286730   -0.898120
     84          1           0        2.820268    8.502727    0.085782
     85          1           0        8.862521    4.879654    0.326642
     86          1           0       10.308487    2.774594   -1.106315
     87          1           0        8.263450    4.979592   -2.618692
     88          1           0        9.937418    4.600111   -2.366769
     89          1           0        9.359014    6.062063   -1.668817
     90          1           0       10.597294    4.079214    1.462331
     91          1           0       11.594629    2.885570    0.896201
     92          1           0        9.248262    1.756239    2.155461
     93          1           0       10.262993    2.759954    3.253675
     94          1           0       11.069740    1.503116    2.376604
     95          1           0       10.671456   -1.814216   -0.153913
     96          1           0        9.887679   -2.608703   -1.631315
     97          1           0       10.044937   -3.472699   -0.063358
     98          1           0        4.811879   -4.107103    1.188360
     99          1           0        4.275690   -6.974967   -2.168543
    100          1           0        2.662499   -6.368854   -1.989781
    101          1           0        3.135897   -7.592298   -0.900286
    102          1           0       -2.395203   -4.900601   -0.649874
    103          1           0       -1.988453   -3.416882   -1.529165
    104          1           0       -3.701375   -2.099226   -0.463537
    105          1           0       -5.921846   -5.589841   -0.631045
    106          1           0       -5.791777   -5.317462    1.174911
    107          1           0       -4.447581   -5.757524    0.262875
    108          1           0       -7.016066   -3.308921   -0.119991
    109          1           0       -6.115787   -2.202657   -0.995693
    110          1           0       -5.267021   -1.829270    1.765950
    111          1           0       -6.938079   -2.592445    1.795525
    112          1           0       -6.597607   -0.383401    0.018398
    113          1           0       -6.304256   -0.001999    1.740202
    114          1           0       -8.773743   -1.523562    0.689847
    115          1           0       -8.033233   -0.819470    3.250155
    116          1           0       -9.491508   -1.709709    2.668766
    117          1           0       -9.485252    0.009337    2.997584
    118          1           0       -8.314502    1.106058   -0.100103
    119          1           0       -9.369438    1.371401    1.237033
    120          1           0       -9.856620   -0.636205   -1.026118
    121          1           0      -10.335549    1.096219   -1.208708
    122          1           0      -11.211044   -0.356891    1.276788
    123          1           0      -11.874451   -1.023035   -0.071601
    124          1           0      -12.033698    1.850829   -0.278841
    125          1           0      -12.365318    2.072617    1.784072
    126          1           0      -13.103722    0.468053    2.207933
    127          1           0      -14.020536    1.755163    1.363168
    128          1           0      -14.208695   -0.311766   -0.747225
    129          1           0      -13.033647    0.132922   -1.864785
    130          1           0      -14.355256    2.065528   -2.329387
    131          1           0      -14.082299    2.512156   -0.704515
    132          1           0      -15.747840    1.046979    0.136583
    133          1           0      -16.292781    0.674118   -1.588417
    134          1           0      -16.323897    3.459318   -1.287527
    135          1           0      -16.569802    4.060350    0.686677
    136          1           0      -16.939649    2.421819    1.339896
    137          1           0      -18.256285    3.459319    0.796924
    138          1           0      -19.005426    2.462746   -1.240562
    139          1           0      -18.126967    1.486042   -2.204949
    140          1           0      -18.040699    3.260735   -2.532734
 ---------------------------------------------------------------------

 SCF Done:  E(RB-LYP) =  -3007.34659681     A.U. after   22 cycles

 Excitation energies and oscillator strengths:

 Excited State   1:      Singlet-A      1.8103 eV  684.87 nm  f=0.0405  <S**2>=0.000
     243 -> 247        0.11210
     244 -> 247        0.60720
     245 -> 247        0.21141
     246 -> 247        0.26382
 This state for optimization and/or second-order correction.
 Total Energy, E(TD-HF/TD-DFT) =  -3007.28006840
 Copying the excited state density for this state as the 1-particle RhoCI density.

 Excited State   2:      Singlet-A      1.8472 eV  671.21 nm  f=0.1467  <S**2>=0.000
     243 -> 247        0.43819
     244 -> 247       -0.29111
     245 -> 248        0.10765
     246 -> 247        0.46102

 Excited State   3:      Singlet-A      1.8660 eV  664.44 nm  f=0.1468  <S**2>=0.000
     243 -> 247        0.53516
     245 -> 248       -0.10666
     246 -> 247       -0.43885

 Excited State   4:      Singlet-A      1.9877 eV  623.77 nm  f=0.1203  <S**2>=0.000
     242 -> 247        0.10320
     244 -> 247       -0.19705
     245 -> 247        0.63272
     246 -> 248       -0.15059
     246 -> 249        0.11217
     245 <- 247       -0.10383

 Excited State   5:      Singlet-A      2.4277 eV  510.71 nm  f=0.0158  <S**2>=0.000
     242 -> 247        0.68839

 The electronic state is 1-A.
 Alpha  occ. eigenvalues --  -46.27782 -18.83089 -18.81242 -18.77894 -18.75932
 Alpha  occ. eigenvalues --  -18.75895 -18.75095 -14.03110 -14.02140 -14.01618
 Alpha  occ. eigenvalues --  -14.00436 -10.04737 -10.02923 -10.00718  -9.98991
 Alpha  occ. eigenvalues --   -9.98334  -9.96549  -9.96363  -9.96159  -9.96150
 Alpha  occ. eigenvalues --   -9.96032  -9.95775  -9.95734  -9.94893  -9.94740
 Alpha  occ. eigenvalues --   -9.94601  -9.94243  -9.94160  -9.94052  -9.93889
 Alpha  occ. eigenvalues --   -9.93678  -9.93672  -9.93642  -9.93636  -9.93574
 Alpha  occ. eigenvalues --   -9.93523  -9.93292  -9.93189  -9.92782  -9.92728
 Alpha  occ. eigenvalues --   -9.92656  -9.92553  -9.92485  -9.92332  -9.92260
 Alpha  occ. eigenvalues --   -9.92128  -9.91928  -9.91836  -9.91656  -9.91584
 Alpha  occ. eigenvalues --   -9.91577  -9.91549  -9.91482  -9.91459  -9.91316
 Alpha  occ. eigenvalues --   -9.91111  -9.91071  -9.91008  -9.90925  -9.90867
 Alpha  occ. eigenvalues --   -9.90826  -9.90741  -9.90729  -9.90676  -9.90366
 Alpha  occ. eigenvalues --   -9.89908  -2.92477  -1.72863  -1.72395  -1.72183
 Alpha  occ. eigenvalues --   -0.99050  -0.96584  -0.91556  -0.90840  -0.90537
 Alpha  occ. eigenvalues --   -0.88915  -0.87454  -0.86280  -0.85879  -0.85124
 Alpha  occ. eigenvalues --   -0.74845  -0.74504  -0.73626  -0.73100  -0.72344
 Alpha  occ. eigenvalues --   -0.72054  -0.71211  -0.71156  -0.70860  -0.70028
 Alpha  occ. eigenvalues --   -0.69625  -0.69221  -0.68387  -0.67405  -0.67118
 Alpha  occ. eigenvalues --   -0.66701  -0.65782  -0.65262  -0.64771  -0.64359
 Alpha  occ. eigenvalues --   -0.64049  -0.62710  -0.62465  -0.61658  -0.60773
 Alpha  occ. eigenvalues --   -0.60504  -0.60440  -0.60238  -0.59936  -0.59055
 Alpha  occ. eigenvalues --   -0.58523  -0.57980  -0.56746  -0.55741  -0.54696
 Alpha  occ. eigenvalues --   -0.54294  -0.53849  -0.52651  -0.52081  -0.51643
 Alpha  occ. eigenvalues --   -0.51457  -0.50824  -0.50785  -0.50191  -0.50097
 Alpha  occ. eigenvalues --   -0.49735  -0.49478  -0.48653  -0.47798  -0.46949
 Alpha  occ. eigenvalues --   -0.46674  -0.45834  -0.45398  -0.44650  -0.44609
 Alpha  occ. eigenvalues --   -0.44297  -0.43831  -0.43276  -0.42923  -0.42580
 Alpha  occ. eigenvalues --   -0.42383  -0.42173  -0.41801  -0.41589  -0.41193
 Alpha  occ. eigenvalues --   -0.40761  -0.40723  -0.40424  -0.40172  -0.40052
 Alpha  occ. eigenvalues --   -0.39607  -0.39487  -0.39318  -0.39227  -0.39020
 Alpha  occ. eigenvalues --   -0.38866  -0.38664  -0.38491  -0.38308  -0.38170
 Alpha  occ. eigenvalues --   -0.37814  -0.37771  -0.37457  -0.37241  -0.37193
 Alpha  occ. eigenvalues --   -0.37035  -0.36969  -0.36609  -0.36581  -0.36343
 Alpha  occ. eigenvalues --   -0.36090  -0.35892  -0.35838  -0.35584  -0.35399
 Alpha  occ. eigenvalues --   -0.35351  -0.35318  -0.35172  -0.35069  -0.34672
 Alpha  occ. eigenvalues --   -0.34636  -0.34498  -0.34122  -0.34031  -0.33709
 Alpha  occ. eigenvalues --   -0.33624  -0.33483  -0.33285  -0.33121  -0.32958
 Alpha  occ. eigenvalues --   -0.32819  -0.32736  -0.32638  -0.32516  -0.32339
 Alpha  occ. eigenvalues --   -0.32218  -0.32084  -0.31971  -0.31931  -0.31783
 Alpha  occ. eigenvalues --   -0.31584  -0.31141  -0.31025  -0.30799  -0.30695
 Alpha  occ. eigenvalues --   -0.30319  -0.30102  -0.30006  -0.29846  -0.29795
 Alpha  occ. eigenvalues --   -0.29521  -0.29428  -0.29171  -0.29035  -0.28941
 Alpha  occ. eigenvalues --   -0.28643  -0.28206  -0.27997  -0.27639  -0.27539
 Alpha  occ. eigenvalues --   -0.27292  -0.27257  -0.26610  -0.26590  -0.26330
 Alpha  occ. eigenvalues --   -0.26303  -0.26218  -0.26034  -0.25356  -0.25222
 Alpha  occ. eigenvalues --   -0.24982  -0.24353  -0.24150  -0.23904  -0.23726
 Alpha  occ. eigenvalues --   -0.23283  -0.22861  -0.22399  -0.21611  -0.21456
 Alpha  occ. eigenvalues --   -0.21208  -0.20076  -0.18592  -0.18453  -0.17087
 Alpha  occ. eigenvalues --   -0.16216
 Alpha virt. eigenvalues --   -0.11842  -0.06759  -0.05495  -0.04497  -0.03737
 Alpha virt. eigenvalues --   -0.03385  -0.02072  -0.01843  -0.01013   0.00485
 Alpha virt. eigenvalues --    0.01809   0.01974   0.02124   0.02446   0.03012

 Mulliken charges:
               1
     1  Mg   0.710863
     2  C    0.072800
     3  C   -0.024423
     4  C   -0.054761
     5  C   -0.060401
     6  N   -0.160718
     7  C   -0.110241
     8  C   -0.021197
     9  C    0.018848
    10  C   -0.056594
    11  C    0.153400
    12  C    0.100308
    13  C    0.130422
    14  C    0.070784
    15  O   -0.178379
    16  O   -0.265297
    17  N   -0.322504
    18  C    0.135170
    19  C   -0.102548
    20  C    0.028517
    21  C    0.116575
    22  C    0.124222
    23  C   -0.041597
    24  O   -0.174857
    25  C    0.130821
    26  N   -0.198157
    27  C    0.027224
    28  C    0.025404
    29  C    0.082987
    30  C   -0.060241
    31  C    0.111531
    32  C    0.050419
    33  C    0.078156
    34  N   -0.233861
    35  C    0.112296
    36  C   -0.184861
    37  C    0.107400
    38  C    0.015194
    39  C    0.185297
    40  C   -0.101578
    41  O   -0.137945
    42  C    0.082946
    43  C    0.133074
    44  O   -0.182955
    45  O   -0.274705
    46  C    0.229628
    47  C    0.345144
    48  C   -0.102808
    49  C   -0.126923
    50  C    0.134440
    51  C    0.095812
    52  C    0.099826
    53  C    0.109949
    54  C   -0.075569
    55  C    0.099890
    56  C    0.145984
    57  C    0.091870
    58  C    0.115942
    59  C   -0.101543
    60  C    0.096074
    61  C    0.116813
    62  C    0.038792
    63  C    0.098312
    64  C   -0.080023
    65  C    0.119977
    66  C    0.095072
    67  H   -0.077343
    68  H   -0.050464
    69  H   -0.076684
    70  H    0.010285
    71  H   -0.036011
    72  H    0.001915
    73  H   -0.006235
    74  H    0.002643
    75  H   -0.019612
    76  H    0.000268
    77  H   -0.013239
    78  H    0.000231
    79  H   -0.018304
    80  H    0.006561
    81  H    0.009447
    82  H    0.001887
    83  H   -0.003765
    84  H   -0.005999
    85  H   -0.017136
    86  H   -0.024304
    87  H    0.005275
    88  H   -0.014167
    89  H    0.002437
    90  H   -0.031396
    91  H   -0.033185
    92  H    0.022823
    93  H   -0.013967
    94  H   -0.008596
    95  H   -0.002760
    96  H    0.025943
    97  H    0.008892
    98  H    0.002466
    99  H    0.015682
   100  H    0.006502
   101  H    0.003929
   102  H   -0.002696
   103  H   -0.007006
   104  H   -0.040743
   105  H    0.008115
   106  H    0.010001
   107  H   -0.037682
   108  H   -0.047609
   109  H   -0.022605
   110  H   -0.021636
   111  H   -0.034375
   112  H   -0.041542
   113  H   -0.034277
   114  H   -0.041113
   115  H   -0.029091
   116  H   -0.011371
   117  H   -0.017316
   118  H   -0.057342
   119  H   -0.030768
   120  H   -0.038837
   121  H   -0.023658
   122  H   -0.056354
   123  H   -0.059046
   124  H   -0.042461
   125  H   -0.021829
   126  H   -0.002162
   127  H   -0.025438
   128  H   -0.042139
   129  H   -0.049053
   130  H   -0.036328
   131  H   -0.038907
   132  H   -0.028613
   133  H   -0.018947
   134  H   -0.034810
   135  H   -0.007980
   136  H   -0.013436
   137  H   -0.013152
   138  H   -0.032453
   139  H   -0.027438
   140  H   -0.005417
 Sum of Mulliken charges =  -0.00000

 Dipole moment (field-independent basis, Debye):
    X=             -3.9926    Y=              2.3614    Z=              2.7541  Tot=              5.3946
 Quadrupole moment (field-independent basis, Debye-Ang):
   XX=           -392.7771   YY=           -433.3800   ZZ=           -405.6055
   XY=             31.8858   XZ=             11.2760   YZ=             -1.5487

 Normal termination of Gaussian 16 at Wed Apr 27 03:32:11 2022.
