 Gaussian 16, Revision A.03,
 Gaussian 16:  ES64L-G16RevA.03 25-Dec-2016

 -----------------------------------
 #p cam-b3lyp/Def2SVP td=(nstates=5)
 -----------------------------------

 --------------------------------------------------------
 step_1051_chromophore_18 TDDFT with cam-b3lyp functional
 --------------------------------------------------------
 Symbolic Z-matrix:
 Charge =  0 Multiplicity = 1

                         Standard orientation:
 ---------------------------------------------------------------------
 Center     Atomic      Atomic             Coordinates (Angstroms)
 Number     Number       Type             X           Y           Z
 ---------------------------------------------------------------------
      1         12           0        5.608126    1.220604    0.335911
      2          6           0        4.899323   -2.296801    0.069763
      3          6           0        2.241841    1.613371    0.221329
      4          6           0        6.191072    4.373754   -0.343697
      5          6           0        8.948511    0.455945   -0.171556
      6          7           0        3.715381   -0.224827   -0.147419
      7          6           0        3.756143   -1.566335   -0.008365
      8          6           0        2.281662   -2.139246    0.003941
      9          6           0        1.420545   -0.808788   -0.098964
     10          6           0        2.492863    0.297173    0.091685
     11          6           0        0.498533   -0.684509   -1.348054
     12          6           0        2.111160   -2.851706    1.363849
     13          6           0        0.648235   -3.223147    1.589908
     14          6           0       -0.186507   -3.753215    0.449347
     15          8           0        0.256612   -4.472598   -0.413602
     16          8           0       -1.488553   -3.285812    0.492547
     17          7           0        4.447836    2.786648    0.016747
     18          6           0        3.057533    2.814808    0.084634
     19          6           0        2.585046    4.170914    0.069369
     20          6           0        3.718799    4.986549   -0.094148
     21          6           0        4.855715    4.056159   -0.139133
     22          6           0        1.037035    4.565395    0.366357
     23          6           0        3.846890    6.542604   -0.134593
     24          8           0        4.894379    7.207697   -0.206395
     25          6           0        2.621659    7.431187    0.042364
     26          7           0        7.393364    2.246826   -0.085254
     27          6           0        7.325820    3.575784   -0.290988
     28          6           0        8.705054    4.198632   -0.510444
     29          6           0        9.676796    2.953408   -0.236116
     30          6           0        8.643707    1.819360   -0.166374
     31          6           0        9.063910    5.034464   -1.880353
     32          6           0       10.538424    3.050294    1.106475
     33          6           0       10.231190    2.196941    2.320854
     34          7           0        6.787502   -0.552518    0.149910
     35          6           0        8.138121   -0.680881   -0.062993
     36          6           0        8.540834   -2.042609   -0.149074
     37          6           0        7.300459   -2.764347    0.035396
     38          6           0        6.284586   -1.805749    0.126065
     39          6           0        9.924145   -2.503461   -0.546888
     40          6           0        6.713182   -4.056061    0.172804
     41          8           0        7.263639   -5.152900    0.236225
     42          6           0        5.172257   -3.856499    0.190209
     43          6           0        4.647464   -4.656261   -0.897523
     44          8           0        4.750508   -4.390378   -2.083149
     45          8           0        3.983399   -5.767967   -0.406449
     46          6           0        3.525331   -6.716833   -1.421309
     47          6           0       -2.311407   -3.816981   -0.568074
     48          6           0       -3.687296   -3.187504   -0.408983
     49          6           0       -4.865314   -3.706148   -0.154894
     50          6           0       -5.353418   -5.154125    0.190343
     51          6           0       -6.063091   -2.781653   -0.074382
     52          6           0       -6.197075   -2.024203    1.233483
     53          6           0       -6.839369   -0.650912    1.046849
     54          6           0       -8.382863   -0.603660    1.124172
     55          6           0       -8.891803   -0.803815    2.579486
     56          6           0       -9.048944    0.605016    0.531704
     57          6           0      -10.128771    0.284912   -0.510659
     58          6           0      -11.403243   -0.090256    0.237095
     59          6           0      -12.480361    0.921413    0.073043
     60          6           0      -13.047396    1.279051    1.480947
     61          6           0      -13.565088    0.531025   -0.999819
     62          6           0      -14.493149    1.703850   -1.309875
     63          6           0      -15.961752    1.418467   -0.864949
     64          6           0      -16.884169    2.658679   -0.803976
     65          6           0      -17.217176    3.186849    0.614441
     66          6           0      -18.052062    2.482591   -1.769237
     67          1           0        1.163429    1.764295    0.306182
     68          1           0        6.438114    5.429646   -0.465152
     69          1           0       10.008759    0.198082   -0.117978
     70          1           0        2.241287   -2.894425   -0.780841
     71          1           0        0.776324   -0.712807    0.773996
     72          1           0        0.803685   -1.473732   -2.035605
     73          1           0        0.710950    0.269651   -1.830472
     74          1           0       -0.514551   -0.780108   -0.959614
     75          1           0        2.437819   -2.300752    2.245447
     76          1           0        2.631218   -3.796630    1.208803
     77          1           0        0.200416   -2.338808    2.042145
     78          1           0        0.642028   -4.015566    2.338619
     79          1           0        0.401751    3.728368    0.657611
     80          1           0        0.517728    4.993283   -0.491319
     81          1           0        0.922828    5.225939    1.225789
     82          1           0        1.961551    7.140175    0.859554
     83          1           0        2.091955    7.286730   -0.898120
     84          1           0        2.820268    8.502727    0.085782
     85          1           0        8.862521    4.879654    0.326642
     86          1           0       10.308487    2.774594   -1.106315
     87          1           0        8.263450    4.979592   -2.618692
     88          1           0        9.937418    4.600111   -2.366769
     89          1           0        9.359014    6.062063   -1.668817
     90          1           0       10.597294    4.079214    1.462331
     91          1           0       11.594629    2.885570    0.896201
     92          1           0        9.248262    1.756239    2.155461
     93          1           0       10.262993    2.759954    3.253675
     94          1           0       11.069740    1.503116    2.376604
     95          1           0       10.671456   -1.814216   -0.153913
     96          1           0        9.887679   -2.608703   -1.631315
     97          1           0       10.044937   -3.472699   -0.063358
     98          1           0        4.811879   -4.107103    1.188360
     99          1           0        4.275690   -6.974967   -2.168543
    100          1           0        2.662499   -6.368854   -1.989781
    101          1           0        3.135897   -7.592298   -0.900286
    102          1           0       -2.395203   -4.900601   -0.649874
    103          1           0       -1.988453   -3.416882   -1.529165
    104          1           0       -3.701375   -2.099226   -0.463537
    105          1           0       -5.921846   -5.589841   -0.631045
    106          1           0       -5.791777   -5.317462    1.174911
    107          1           0       -4.447581   -5.757524    0.262875
    108          1           0       -7.016066   -3.308921   -0.119991
    109          1           0       -6.115787   -2.202657   -0.995693
    110          1           0       -5.267021   -1.829270    1.765950
    111          1           0       -6.938079   -2.592445    1.795525
    112          1           0       -6.597607   -0.383401    0.018398
    113          1           0       -6.304256   -0.001999    1.740202
    114          1           0       -8.773743   -1.523562    0.689847
    115          1           0       -8.033233   -0.819470    3.250155
    116          1           0       -9.491508   -1.709709    2.668766
    117          1           0       -9.485252    0.009337    2.997584
    118          1           0       -8.314502    1.106058   -0.100103
    119          1           0       -9.369438    1.371401    1.237033
    120          1           0       -9.856620   -0.636205   -1.026118
    121          1           0      -10.335549    1.096219   -1.208708
    122          1           0      -11.211044   -0.356891    1.276788
    123          1           0      -11.874451   -1.023035   -0.071601
    124          1           0      -12.033698    1.850829   -0.278841
    125          1           0      -12.365318    2.072617    1.784072
    126          1           0      -13.103722    0.468053    2.207933
    127          1           0      -14.020536    1.755163    1.363168
    128          1           0      -14.208695   -0.311766   -0.747225
    129          1           0      -13.033647    0.132922   -1.864785
    130          1           0      -14.355256    2.065528   -2.329387
    131          1           0      -14.082299    2.512156   -0.704515
    132          1           0      -15.747840    1.046979    0.136583
    133          1           0      -16.292781    0.674118   -1.588417
    134          1           0      -16.323897    3.459318   -1.287527
    135          1           0      -16.569802    4.060350    0.686677
    136          1           0      -16.939649    2.421819    1.339896
    137          1           0      -18.256285    3.459319    0.796924
    138          1           0      -19.005426    2.462746   -1.240562
    139          1           0      -18.126967    1.486042   -2.204949
    140          1           0      -18.040699    3.260735   -2.532734
 ---------------------------------------------------------------------

 SCF Done:  E(RCAM-B3LYP) =  -3007.14612621     A.U. after   18 cycles

 Excitation energies and oscillator strengths:

 Excited State   1:      Singlet-A      1.7359 eV  714.24 nm  f=0.4066  <S**2>=0.000
     245 -> 248        0.16259
     246 -> 247        0.68667
 This state for optimization and/or second-order correction.
 Total Energy, E(TD-HF/TD-DFT) =  -3007.08233369
 Copying the excited state density for this state as the 1-particle RhoCI density.

 Excited State   2:      Singlet-A      2.1542 eV  575.54 nm  f=0.1968  <S**2>=0.000
     245 -> 247        0.66765
     246 -> 248       -0.20865

 Excited State   3:      Singlet-A      3.1826 eV  389.57 nm  f=0.0129  <S**2>=0.000
     244 -> 247        0.68246

 Excited State   4:      Singlet-A      3.4629 eV  358.03 nm  f=0.0021  <S**2>=0.000
     243 -> 247        0.60317
     243 -> 249       -0.21612
     243 -> 250        0.12038
     243 -> 251       -0.20189

 Excited State   5:      Singlet-A      3.5141 eV  352.82 nm  f=0.0007  <S**2>=0.000
     241 -> 247       -0.25562
     241 -> 248       -0.13033
     241 -> 249       -0.10083
     241 -> 250        0.10894
     241 -> 251        0.12006
     242 -> 247        0.48203
     242 -> 248        0.20151
     242 -> 249        0.15934
     242 -> 250       -0.16903
     242 -> 251       -0.18097

 The electronic state is 1-A.
 Alpha  occ. eigenvalues --  -46.89400 -19.25963 -19.24109 -19.20847 -19.19277
 Alpha  occ. eigenvalues --  -19.18952 -19.18143 -14.42093 -14.40758 -14.40190
 Alpha  occ. eigenvalues --  -14.38730 -10.39996 -10.38314 -10.36122 -10.34200
 Alpha  occ. eigenvalues --  -10.32356 -10.31069 -10.30621 -10.30453 -10.30395
 Alpha  occ. eigenvalues --  -10.30243 -10.30202 -10.30146 -10.29632 -10.28896
 Alpha  occ. eigenvalues --  -10.28783 -10.28304 -10.28244 -10.28192 -10.28171
 Alpha  occ. eigenvalues --  -10.28078 -10.27892 -10.27779 -10.27770 -10.27698
 Alpha  occ. eigenvalues --  -10.27455 -10.27389 -10.27053 -10.26674 -10.26492
 Alpha  occ. eigenvalues --  -10.26462 -10.26460 -10.26275 -10.26160 -10.25988
 Alpha  occ. eigenvalues --  -10.25987 -10.25870 -10.25833 -10.25830 -10.25272
 Alpha  occ. eigenvalues --  -10.25209 -10.25196 -10.25135 -10.25116 -10.24972
 Alpha  occ. eigenvalues --  -10.24810 -10.24773 -10.24755 -10.24607 -10.24546
 Alpha  occ. eigenvalues --  -10.24446 -10.24434 -10.24376 -10.24367 -10.23949
 Alpha  occ. eigenvalues --  -10.23538  -3.17995  -1.92854  -1.92463  -1.92298
 Alpha  occ. eigenvalues --   -1.17505  -1.15073  -1.09411  -1.09330  -1.08806
 Alpha  occ. eigenvalues --   -1.06782  -1.05259  -1.03972  -1.03451  -1.02602
 Alpha  occ. eigenvalues --   -0.91889  -0.91411  -0.90480  -0.89875  -0.89079
 Alpha  occ. eigenvalues --   -0.88822  -0.87782  -0.87757  -0.87424  -0.86675
 Alpha  occ. eigenvalues --   -0.86179  -0.85505  -0.84685  -0.83581  -0.83258
 Alpha  occ. eigenvalues --   -0.82782  -0.81757  -0.81205  -0.80785  -0.80268
 Alpha  occ. eigenvalues --   -0.79823  -0.78490  -0.78040  -0.77141  -0.76109
 Alpha  occ. eigenvalues --   -0.75840  -0.75834  -0.75552  -0.75293  -0.74307
 Alpha  occ. eigenvalues --   -0.73591  -0.73008  -0.71633  -0.70533  -0.69299
 Alpha  occ. eigenvalues --   -0.68936  -0.68466  -0.67137  -0.66469  -0.65778
 Alpha  occ. eigenvalues --   -0.65526  -0.65028  -0.64878  -0.64178  -0.64126
 Alpha  occ. eigenvalues --   -0.63504  -0.63415  -0.62539  -0.61427  -0.60640
 Alpha  occ. eigenvalues --   -0.60183  -0.59323  -0.58923  -0.58172  -0.57919
 Alpha  occ. eigenvalues --   -0.57747  -0.57264  -0.56456  -0.55999  -0.55615
 Alpha  occ. eigenvalues --   -0.55508  -0.55323  -0.54934  -0.54530  -0.54000
 Alpha  occ. eigenvalues --   -0.53870  -0.53525  -0.53118  -0.53039  -0.52647
 Alpha  occ. eigenvalues --   -0.52619  -0.52166  -0.52035  -0.51918  -0.51663
 Alpha  occ. eigenvalues --   -0.51399  -0.51000  -0.50891  -0.50707  -0.50538
 Alpha  occ. eigenvalues --   -0.50361  -0.50125  -0.49893  -0.49585  -0.49471
 Alpha  occ. eigenvalues --   -0.49358  -0.49124  -0.49043  -0.48876  -0.48695
 Alpha  occ. eigenvalues --   -0.48568  -0.48333  -0.48093  -0.48005  -0.47472
 Alpha  occ. eigenvalues --   -0.47451  -0.47254  -0.47168  -0.47142  -0.46700
 Alpha  occ. eigenvalues --   -0.46520  -0.46337  -0.45985  -0.45820  -0.45533
 Alpha  occ. eigenvalues --   -0.45396  -0.45245  -0.45013  -0.44753  -0.44641
 Alpha  occ. eigenvalues --   -0.44602  -0.44461  -0.44386  -0.44073  -0.43996
 Alpha  occ. eigenvalues --   -0.43822  -0.43671  -0.43586  -0.43527  -0.43357
 Alpha  occ. eigenvalues --   -0.43185  -0.42732  -0.42507  -0.42254  -0.41981
 Alpha  occ. eigenvalues --   -0.41728  -0.41600  -0.41568  -0.41420  -0.41159
 Alpha  occ. eigenvalues --   -0.41050  -0.40537  -0.40224  -0.40125  -0.40071
 Alpha  occ. eigenvalues --   -0.39632  -0.39298  -0.38962  -0.38670  -0.38543
 Alpha  occ. eigenvalues --   -0.38285  -0.38091  -0.37717  -0.37590  -0.37394
 Alpha  occ. eigenvalues --   -0.36930  -0.36867  -0.36715  -0.36020  -0.35955
 Alpha  occ. eigenvalues --   -0.35783  -0.35603  -0.35136  -0.34925  -0.34345
 Alpha  occ. eigenvalues --   -0.33827  -0.33615  -0.32900  -0.31978  -0.31398
 Alpha  occ. eigenvalues --   -0.31063  -0.30897  -0.30526  -0.29163  -0.23726
 Alpha  occ. eigenvalues --   -0.21675
 Alpha virt. eigenvalues --   -0.09145  -0.01197   0.00711   0.01302   0.02567
 Alpha virt. eigenvalues --    0.04577   0.05492   0.05982   0.06350   0.07188
 Alpha virt. eigenvalues --    0.07793   0.08578   0.08868   0.08978   0.09178

 Mulliken charges:
               1
     1  Mg   0.840945
     2  C    0.043565
     3  C   -0.051252
     4  C   -0.067373
     5  C   -0.060484
     6  N   -0.228224
     7  C   -0.063322
     8  C   -0.076187
     9  C   -0.034893
    10  C   -0.027226
    11  C    0.095828
    12  C    0.055047
    13  C    0.057667
    14  C    0.149514
    15  O   -0.217957
    16  O   -0.328002
    17  N   -0.412748
    18  C    0.147240
    19  C   -0.113235
    20  C   -0.037445
    21  C    0.135538
    22  C    0.078376
    23  C    0.035817
    24  O   -0.214889
    25  C    0.053236
    26  N   -0.269363
    27  C    0.044450
    28  C   -0.031058
    29  C    0.035084
    30  C   -0.053073
    31  C    0.054200
    32  C   -0.003161
    33  C    0.016676
    34  N   -0.323187
    35  C    0.111667
    36  C   -0.175366
    37  C    0.024730
    38  C    0.056344
    39  C    0.136626
    40  C   -0.001313
    41  O   -0.178624
    42  C    0.001390
    43  C    0.219064
    44  O   -0.218656
    45  O   -0.338064
    46  C    0.188222
    47  C    0.308899
    48  C   -0.120799
    49  C   -0.152171
    50  C    0.077489
    51  C    0.034994
    52  C    0.043732
    53  C    0.056682
    54  C   -0.128535
    55  C    0.037268
    56  C    0.084546
    57  C    0.033080
    58  C    0.059811
    59  C   -0.154943
    60  C    0.044213
    61  C    0.063156
    62  C   -0.014327
    63  C    0.044903
    64  C   -0.142910
    65  C    0.061206
    66  C    0.036674
    67  H   -0.044506
    68  H   -0.007561
    69  H   -0.041255
    70  H    0.044550
    71  H   -0.002544
    72  H    0.026841
    73  H    0.020308
    74  H    0.023425
    75  H    0.012662
    76  H    0.027896
    77  H    0.020363
    78  H    0.034187
    79  H    0.010328
    80  H    0.032386
    81  H    0.033233
    82  H    0.027688
    83  H    0.022801
    84  H    0.029405
    85  H    0.017799
    86  H    0.011320
    87  H    0.029767
    88  H    0.009796
    89  H    0.026315
    90  H   -0.002358
    91  H   -0.003672
    92  H    0.042813
    93  H    0.011868
    94  H    0.014066
    95  H    0.019576
    96  H    0.051995
    97  H    0.035824
    98  H    0.046578
    99  H    0.039551
   100  H    0.029117
   101  H    0.027994
   102  H    0.025504
   103  H    0.021130
   104  H   -0.008517
   105  H    0.032795
   106  H    0.034176
   107  H   -0.012869
   108  H   -0.016706
   109  H    0.007280
   110  H    0.008329
   111  H   -0.006549
   112  H   -0.013779
   113  H   -0.004564
   114  H   -0.010303
   115  H   -0.002711
   116  H    0.012030
   117  H    0.006464
   118  H   -0.024164
   119  H   -0.002735
   120  H   -0.008330
   121  H    0.005189
   122  H   -0.026182
   123  H   -0.027046
   124  H   -0.010793
   125  H    0.002344
   126  H    0.020912
   127  H   -0.006120
   128  H   -0.012301
   129  H   -0.017806
   130  H   -0.006796
   131  H   -0.011988
   132  H   -0.003952
   133  H    0.009230
   134  H   -0.001669
   135  H    0.014550
   136  H    0.008995
   137  H    0.011765
   138  H   -0.007983
   139  H   -0.002355
   140  H    0.017877
 Sum of Mulliken charges =  -0.00000

 Dipole moment (field-independent basis, Debye):
    X=             -4.3368    Y=              2.9999    Z=              2.9077  Tot=              6.0218
 Quadrupole moment (field-independent basis, Debye-Ang):
   XX=           -392.2228   YY=           -429.4333   ZZ=           -405.6658
   XY=             34.5837   XZ=             12.0866   YZ=             -1.6221

 Normal termination of Gaussian 16 at Wed Apr 27 02:30:45 2022.
