 Gaussian 16, Revision A.03,
 Gaussian 16:  ES64L-G16RevA.03 25-Dec-2016

 ---------------------------------
 #p PBE1PBE/Def2SVP td=(nstates=5)
 ---------------------------------

 ------------------------------------------------------
 step_1051_chromophore_18 TDDFT with PBE1PBE functional
 ------------------------------------------------------
 Symbolic Z-matrix:
 Charge =  0 Multiplicity = 1

                         Standard orientation:
 ---------------------------------------------------------------------
 Center     Atomic      Atomic             Coordinates (Angstroms)
 Number     Number       Type             X           Y           Z
 ---------------------------------------------------------------------
      1         12           0        5.608126    1.220604    0.335911
      2          6           0        4.899323   -2.296801    0.069763
      3          6           0        2.241841    1.613371    0.221329
      4          6           0        6.191072    4.373754   -0.343697
      5          6           0        8.948511    0.455945   -0.171556
      6          7           0        3.715381   -0.224827   -0.147419
      7          6           0        3.756143   -1.566335   -0.008365
      8          6           0        2.281662   -2.139246    0.003941
      9          6           0        1.420545   -0.808788   -0.098964
     10          6           0        2.492863    0.297173    0.091685
     11          6           0        0.498533   -0.684509   -1.348054
     12          6           0        2.111160   -2.851706    1.363849
     13          6           0        0.648235   -3.223147    1.589908
     14          6           0       -0.186507   -3.753215    0.449347
     15          8           0        0.256612   -4.472598   -0.413602
     16          8           0       -1.488553   -3.285812    0.492547
     17          7           0        4.447836    2.786648    0.016747
     18          6           0        3.057533    2.814808    0.084634
     19          6           0        2.585046    4.170914    0.069369
     20          6           0        3.718799    4.986549   -0.094148
     21          6           0        4.855715    4.056159   -0.139133
     22          6           0        1.037035    4.565395    0.366357
     23          6           0        3.846890    6.542604   -0.134593
     24          8           0        4.894379    7.207697   -0.206395
     25          6           0        2.621659    7.431187    0.042364
     26          7           0        7.393364    2.246826   -0.085254
     27          6           0        7.325820    3.575784   -0.290988
     28          6           0        8.705054    4.198632   -0.510444
     29          6           0        9.676796    2.953408   -0.236116
     30          6           0        8.643707    1.819360   -0.166374
     31          6           0        9.063910    5.034464   -1.880353
     32          6           0       10.538424    3.050294    1.106475
     33          6           0       10.231190    2.196941    2.320854
     34          7           0        6.787502   -0.552518    0.149910
     35          6           0        8.138121   -0.680881   -0.062993
     36          6           0        8.540834   -2.042609   -0.149074
     37          6           0        7.300459   -2.764347    0.035396
     38          6           0        6.284586   -1.805749    0.126065
     39          6           0        9.924145   -2.503461   -0.546888
     40          6           0        6.713182   -4.056061    0.172804
     41          8           0        7.263639   -5.152900    0.236225
     42          6           0        5.172257   -3.856499    0.190209
     43          6           0        4.647464   -4.656261   -0.897523
     44          8           0        4.750508   -4.390378   -2.083149
     45          8           0        3.983399   -5.767967   -0.406449
     46          6           0        3.525331   -6.716833   -1.421309
     47          6           0       -2.311407   -3.816981   -0.568074
     48          6           0       -3.687296   -3.187504   -0.408983
     49          6           0       -4.865314   -3.706148   -0.154894
     50          6           0       -5.353418   -5.154125    0.190343
     51          6           0       -6.063091   -2.781653   -0.074382
     52          6           0       -6.197075   -2.024203    1.233483
     53          6           0       -6.839369   -0.650912    1.046849
     54          6           0       -8.382863   -0.603660    1.124172
     55          6           0       -8.891803   -0.803815    2.579486
     56          6           0       -9.048944    0.605016    0.531704
     57          6           0      -10.128771    0.284912   -0.510659
     58          6           0      -11.403243   -0.090256    0.237095
     59          6           0      -12.480361    0.921413    0.073043
     60          6           0      -13.047396    1.279051    1.480947
     61          6           0      -13.565088    0.531025   -0.999819
     62          6           0      -14.493149    1.703850   -1.309875
     63          6           0      -15.961752    1.418467   -0.864949
     64          6           0      -16.884169    2.658679   -0.803976
     65          6           0      -17.217176    3.186849    0.614441
     66          6           0      -18.052062    2.482591   -1.769237
     67          1           0        1.163429    1.764295    0.306182
     68          1           0        6.438114    5.429646   -0.465152
     69          1           0       10.008759    0.198082   -0.117978
     70          1           0        2.241287   -2.894425   -0.780841
     71          1           0        0.776324   -0.712807    0.773996
     72          1           0        0.803685   -1.473732   -2.035605
     73          1           0        0.710950    0.269651   -1.830472
     74          1           0       -0.514551   -0.780108   -0.959614
     75          1           0        2.437819   -2.300752    2.245447
     76          1           0        2.631218   -3.796630    1.208803
     77          1           0        0.200416   -2.338808    2.042145
     78          1           0        0.642028   -4.015566    2.338619
     79          1           0        0.401751    3.728368    0.657611
     80          1           0        0.517728    4.993283   -0.491319
     81          1           0        0.922828    5.225939    1.225789
     82          1           0        1.961551    7.140175    0.859554
     83          1           0        2.091955    7.286730   -0.898120
     84          1           0        2.820268    8.502727    0.085782
     85          1           0        8.862521    4.879654    0.326642
     86          1           0       10.308487    2.774594   -1.106315
     87          1           0        8.263450    4.979592   -2.618692
     88          1           0        9.937418    4.600111   -2.366769
     89          1           0        9.359014    6.062063   -1.668817
     90          1           0       10.597294    4.079214    1.462331
     91          1           0       11.594629    2.885570    0.896201
     92          1           0        9.248262    1.756239    2.155461
     93          1           0       10.262993    2.759954    3.253675
     94          1           0       11.069740    1.503116    2.376604
     95          1           0       10.671456   -1.814216   -0.153913
     96          1           0        9.887679   -2.608703   -1.631315
     97          1           0       10.044937   -3.472699   -0.063358
     98          1           0        4.811879   -4.107103    1.188360
     99          1           0        4.275690   -6.974967   -2.168543
    100          1           0        2.662499   -6.368854   -1.989781
    101          1           0        3.135897   -7.592298   -0.900286
    102          1           0       -2.395203   -4.900601   -0.649874
    103          1           0       -1.988453   -3.416882   -1.529165
    104          1           0       -3.701375   -2.099226   -0.463537
    105          1           0       -5.921846   -5.589841   -0.631045
    106          1           0       -5.791777   -5.317462    1.174911
    107          1           0       -4.447581   -5.757524    0.262875
    108          1           0       -7.016066   -3.308921   -0.119991
    109          1           0       -6.115787   -2.202657   -0.995693
    110          1           0       -5.267021   -1.829270    1.765950
    111          1           0       -6.938079   -2.592445    1.795525
    112          1           0       -6.597607   -0.383401    0.018398
    113          1           0       -6.304256   -0.001999    1.740202
    114          1           0       -8.773743   -1.523562    0.689847
    115          1           0       -8.033233   -0.819470    3.250155
    116          1           0       -9.491508   -1.709709    2.668766
    117          1           0       -9.485252    0.009337    2.997584
    118          1           0       -8.314502    1.106058   -0.100103
    119          1           0       -9.369438    1.371401    1.237033
    120          1           0       -9.856620   -0.636205   -1.026118
    121          1           0      -10.335549    1.096219   -1.208708
    122          1           0      -11.211044   -0.356891    1.276788
    123          1           0      -11.874451   -1.023035   -0.071601
    124          1           0      -12.033698    1.850829   -0.278841
    125          1           0      -12.365318    2.072617    1.784072
    126          1           0      -13.103722    0.468053    2.207933
    127          1           0      -14.020536    1.755163    1.363168
    128          1           0      -14.208695   -0.311766   -0.747225
    129          1           0      -13.033647    0.132922   -1.864785
    130          1           0      -14.355256    2.065528   -2.329387
    131          1           0      -14.082299    2.512156   -0.704515
    132          1           0      -15.747840    1.046979    0.136583
    133          1           0      -16.292781    0.674118   -1.588417
    134          1           0      -16.323897    3.459318   -1.287527
    135          1           0      -16.569802    4.060350    0.686677
    136          1           0      -16.939649    2.421819    1.339896
    137          1           0      -18.256285    3.459319    0.796924
    138          1           0      -19.005426    2.462746   -1.240562
    139          1           0      -18.126967    1.486042   -2.204949
    140          1           0      -18.040699    3.260735   -2.532734
 ---------------------------------------------------------------------

 SCF Done:  E(RPBE1PBE) =  -3005.33451712     A.U. after   15 cycles

 Excitation energies and oscillator strengths:

 Excited State   1:      Singlet-A      1.8967 eV  653.69 nm  f=0.3888  <S**2>=0.000
     245 -> 248        0.15247
     246 -> 247        0.69323
     246 <- 247       -0.10830
 This state for optimization and/or second-order correction.
 Total Energy, E(TD-HF/TD-DFT) =  -3005.26481533
 Copying the excited state density for this state as the 1-particle RhoCI density.

 Excited State   2:      Singlet-A      2.1688 eV  571.67 nm  f=0.1794  <S**2>=0.000
     245 -> 247        0.67352
     246 -> 248       -0.18073

 Excited State   3:      Singlet-A      2.8269 eV  438.59 nm  f=0.0096  <S**2>=0.000
     243 -> 247        0.28366
     244 -> 247        0.62767

 Excited State   4:      Singlet-A      2.9592 eV  418.99 nm  f=0.0079  <S**2>=0.000
     242 -> 247        0.12345
     243 -> 247        0.61404
     244 -> 247       -0.28582

 Excited State   5:      Singlet-A      2.9791 eV  416.18 nm  f=0.0007  <S**2>=0.000
     242 -> 247        0.66147
     242 -> 248        0.14146
     242 -> 249        0.10860
     242 -> 250       -0.10107
     243 -> 247       -0.10579

 The electronic state is 1-A.
 Alpha  occ. eigenvalues --  -46.92801 -19.26639 -19.24787 -19.21106 -19.19433
 Alpha  occ. eigenvalues --  -19.19192 -19.18474 -14.41494 -14.40345 -14.39797
 Alpha  occ. eigenvalues --  -14.38440 -10.37027 -10.35329 -10.33221 -10.31417
 Alpha  occ. eigenvalues --  -10.29748 -10.28714 -10.28288 -10.28244 -10.28166
 Alpha  occ. eigenvalues --  -10.27827 -10.27806 -10.27486 -10.27284 -10.26645
 Alpha  occ. eigenvalues --  -10.26570 -10.26098 -10.26031 -10.25927 -10.25811
 Alpha  occ. eigenvalues --  -10.25734 -10.25709 -10.25574 -10.25567 -10.25483
 Alpha  occ. eigenvalues --  -10.25074 -10.24996 -10.24700 -10.24369 -10.24025
 Alpha  occ. eigenvalues --  -10.23984 -10.23916 -10.23861 -10.23628 -10.23533
 Alpha  occ. eigenvalues --  -10.23443 -10.23404 -10.23384 -10.23209 -10.22941
 Alpha  occ. eigenvalues --  -10.22908 -10.22762 -10.22717 -10.22646 -10.22558
 Alpha  occ. eigenvalues --  -10.22523 -10.22349 -10.22303 -10.22110 -10.22005
 Alpha  occ. eigenvalues --  -10.21996 -10.21909 -10.21867 -10.21782 -10.21336
 Alpha  occ. eigenvalues --  -10.21081  -3.14973  -1.87771  -1.87359  -1.87199
 Alpha  occ. eigenvalues --   -1.12309  -1.09848  -1.04280  -1.03984  -1.03627
 Alpha  occ. eigenvalues --   -1.01630  -0.99856  -0.98609  -0.98157  -0.97313
 Alpha  occ. eigenvalues --   -0.86284  -0.85538  -0.84615  -0.84086  -0.83204
 Alpha  occ. eigenvalues --   -0.83132  -0.82070  -0.81892  -0.81753  -0.80954
 Alpha  occ. eigenvalues --   -0.80508  -0.79725  -0.78919  -0.77902  -0.77505
 Alpha  occ. eigenvalues --   -0.77005  -0.76015  -0.75422  -0.74993  -0.74581
 Alpha  occ. eigenvalues --   -0.73998  -0.72726  -0.72308  -0.71453  -0.70362
 Alpha  occ. eigenvalues --   -0.70110  -0.69930  -0.69860  -0.69397  -0.68486
 Alpha  occ. eigenvalues --   -0.67926  -0.67452  -0.66056  -0.64871  -0.63654
 Alpha  occ. eigenvalues --   -0.63213  -0.62902  -0.61581  -0.60697  -0.60222
 Alpha  occ. eigenvalues --   -0.59992  -0.59445  -0.59233  -0.58721  -0.58285
 Alpha  occ. eigenvalues --   -0.57992  -0.57595  -0.56756  -0.56044  -0.55188
 Alpha  occ. eigenvalues --   -0.54560  -0.53922  -0.53413  -0.52655  -0.52540
 Alpha  occ. eigenvalues --   -0.52222  -0.51861  -0.50921  -0.50577  -0.50128
 Alpha  occ. eigenvalues --   -0.50016  -0.49837  -0.49429  -0.48961  -0.48598
 Alpha  occ. eigenvalues --   -0.48374  -0.48005  -0.47685  -0.47494  -0.47327
 Alpha  occ. eigenvalues --   -0.47095  -0.46688  -0.46545  -0.46302  -0.46159
 Alpha  occ. eigenvalues --   -0.45982  -0.45559  -0.45454  -0.45256  -0.45177
 Alpha  occ. eigenvalues --   -0.44934  -0.44677  -0.44396  -0.44136  -0.44034
 Alpha  occ. eigenvalues --   -0.43948  -0.43709  -0.43613  -0.43456  -0.43292
 Alpha  occ. eigenvalues --   -0.43202  -0.42925  -0.42679  -0.42570  -0.42125
 Alpha  occ. eigenvalues --   -0.42081  -0.41900  -0.41853  -0.41691  -0.41367
 Alpha  occ. eigenvalues --   -0.41218  -0.41041  -0.40701  -0.40480  -0.40317
 Alpha  occ. eigenvalues --   -0.40150  -0.39911  -0.39772  -0.39478  -0.39374
 Alpha  occ. eigenvalues --   -0.39335  -0.39236  -0.39077  -0.38775  -0.38726
 Alpha  occ. eigenvalues --   -0.38668  -0.38444  -0.38390  -0.38317  -0.38036
 Alpha  occ. eigenvalues --   -0.37995  -0.37585  -0.37348  -0.37118  -0.36893
 Alpha  occ. eigenvalues --   -0.36524  -0.36359  -0.36337  -0.36290  -0.36085
 Alpha  occ. eigenvalues --   -0.35782  -0.35451  -0.35026  -0.34974  -0.34862
 Alpha  occ. eigenvalues --   -0.34432  -0.34305  -0.33748  -0.33634  -0.33345
 Alpha  occ. eigenvalues --   -0.33327  -0.32888  -0.32637  -0.32518  -0.32183
 Alpha  occ. eigenvalues --   -0.31960  -0.31802  -0.31559  -0.31026  -0.30847
 Alpha  occ. eigenvalues --   -0.30690  -0.30539  -0.29954  -0.29785  -0.29267
 Alpha  occ. eigenvalues --   -0.29062  -0.28586  -0.28340  -0.27544  -0.26671
 Alpha  occ. eigenvalues --   -0.26595  -0.25630  -0.25491  -0.24849  -0.20727
 Alpha  occ. eigenvalues --   -0.19247
 Alpha virt. eigenvalues --   -0.11529  -0.04873  -0.03309  -0.01954  -0.01496
 Alpha virt. eigenvalues --   -0.00062   0.00956   0.01265   0.01868   0.03487
 Alpha virt. eigenvalues --    0.04491   0.04919   0.05220   0.05402   0.05854

 Mulliken charges:
               1
     1  Mg   0.982899
     2  C    0.040782
     3  C   -0.057382
     4  C   -0.054262
     5  C   -0.053984
     6  N   -0.321431
     7  C    0.002907
     8  C   -0.152141
     9  C   -0.103248
    10  C    0.011850
    11  C    0.034717
    12  C    0.002871
    13  C   -0.019721
    14  C    0.218993
    15  O   -0.251300
    16  O   -0.359841
    17  N   -0.532775
    18  C    0.167540
    19  C   -0.130823
    20  C   -0.087444
    21  C    0.164969
    22  C    0.023999
    23  C    0.082890
    24  O   -0.251362
    25  C   -0.019753
    26  N   -0.379226
    27  C    0.077331
    28  C   -0.100927
    29  C   -0.035813
    30  C   -0.019121
    31  C   -0.007118
    32  C   -0.054951
    33  C   -0.062254
    34  N   -0.446391
    35  C    0.130652
    36  C   -0.184237
    37  C   -0.023712
    38  C    0.114282
    39  C    0.079330
    40  C    0.089558
    41  O   -0.224681
    42  C   -0.108992
    43  C    0.311160
    44  O   -0.254315
    45  O   -0.371032
    46  C    0.131870
    47  C    0.265400
    48  C   -0.135694
    49  C   -0.190490
    50  C    0.012883
    51  C   -0.028642
    52  C   -0.019517
    53  C   -0.002782
    54  C   -0.206537
    55  C   -0.021252
    56  C    0.022180
    57  C   -0.039923
    58  C    0.012519
    59  C   -0.244302
    60  C   -0.018100
    61  C    0.013338
    62  C   -0.078626
    63  C   -0.015991
    64  C   -0.234918
    65  C    0.000235
    66  C   -0.020585
    67  H   -0.010055
    68  H    0.023616
    69  H   -0.008477
    70  H    0.081163
    71  H    0.035736
    72  H    0.054449
    73  H    0.048698
    74  H    0.051091
    75  H    0.045070
    76  H    0.065599
    77  H    0.052397
    78  H    0.068179
    79  H    0.036140
    80  H    0.058864
    81  H    0.059196
    82  H    0.053683
    83  H    0.050641
    84  H    0.056419
    85  H    0.055767
    86  H    0.047479
    87  H    0.057102
    88  H    0.036753
    89  H    0.052901
    90  H    0.029546
    91  H    0.028916
    92  H    0.075431
    93  H    0.040471
    94  H    0.041239
    95  H    0.046032
    96  H    0.080047
    97  H    0.064170
    98  H    0.083162
    99  H    0.061431
   100  H    0.051440
   101  H    0.050412
   102  H    0.051734
   103  H    0.049295
   104  H    0.021390
   105  H    0.060597
   106  H    0.060727
   107  H    0.016908
   108  H    0.016303
   109  H    0.038299
   110  H    0.039846
   111  H    0.028910
   112  H    0.020489
   113  H    0.027676
   114  H    0.028047
   115  H    0.025834
   116  H    0.038286
   117  H    0.032841
   118  H    0.010805
   119  H    0.030180
   120  H    0.025653
   121  H    0.036331
   122  H    0.010977
   123  H    0.006320
   124  H    0.027598
   125  H    0.031562
   126  H    0.047424
   127  H    0.023744
   128  H    0.019949
   129  H    0.016366
   130  H    0.026024
   131  H    0.022707
   132  H    0.029863
   133  H    0.041917
   134  H    0.037587
   135  H    0.041385
   136  H    0.035526
   137  H    0.038460
   138  H    0.019610
   139  H    0.024235
   140  H    0.044321
 Sum of Mulliken charges =  -0.00000

 Dipole moment (field-independent basis, Debye):
    X=             -4.2475    Y=              2.8531    Z=              2.9290  Tot=              5.8958
 Quadrupole moment (field-independent basis, Debye-Ang):
   XX=           -386.2558   YY=           -426.9083   ZZ=           -403.2645
   XY=             34.6360   XZ=             11.9464   YZ=             -1.6367

 Normal termination of Gaussian 16 at Wed Apr 27 02:47:13 2022.
