 Gaussian 16, Revision A.03,
 Gaussian 16:  ES64L-G16RevA.03 25-Dec-2016

 --------------------------------
 #p wB97XD/Def2SVP td=(nstates=5)
 --------------------------------

 -----------------------------------------------------
 step_1051_chromophore_18 TDDFT with wB97XD functional
 -----------------------------------------------------
 Symbolic Z-matrix:
 Charge =  0 Multiplicity = 1

                         Standard orientation:
 ---------------------------------------------------------------------
 Center     Atomic      Atomic             Coordinates (Angstroms)
 Number     Number       Type             X           Y           Z
 ---------------------------------------------------------------------
      1         12           0        5.608126    1.220604    0.335911
      2          6           0        4.899323   -2.296801    0.069763
      3          6           0        2.241841    1.613371    0.221329
      4          6           0        6.191072    4.373754   -0.343697
      5          6           0        8.948511    0.455945   -0.171556
      6          7           0        3.715381   -0.224827   -0.147419
      7          6           0        3.756143   -1.566335   -0.008365
      8          6           0        2.281662   -2.139246    0.003941
      9          6           0        1.420545   -0.808788   -0.098964
     10          6           0        2.492863    0.297173    0.091685
     11          6           0        0.498533   -0.684509   -1.348054
     12          6           0        2.111160   -2.851706    1.363849
     13          6           0        0.648235   -3.223147    1.589908
     14          6           0       -0.186507   -3.753215    0.449347
     15          8           0        0.256612   -4.472598   -0.413602
     16          8           0       -1.488553   -3.285812    0.492547
     17          7           0        4.447836    2.786648    0.016747
     18          6           0        3.057533    2.814808    0.084634
     19          6           0        2.585046    4.170914    0.069369
     20          6           0        3.718799    4.986549   -0.094148
     21          6           0        4.855715    4.056159   -0.139133
     22          6           0        1.037035    4.565395    0.366357
     23          6           0        3.846890    6.542604   -0.134593
     24          8           0        4.894379    7.207697   -0.206395
     25          6           0        2.621659    7.431187    0.042364
     26          7           0        7.393364    2.246826   -0.085254
     27          6           0        7.325820    3.575784   -0.290988
     28          6           0        8.705054    4.198632   -0.510444
     29          6           0        9.676796    2.953408   -0.236116
     30          6           0        8.643707    1.819360   -0.166374
     31          6           0        9.063910    5.034464   -1.880353
     32          6           0       10.538424    3.050294    1.106475
     33          6           0       10.231190    2.196941    2.320854
     34          7           0        6.787502   -0.552518    0.149910
     35          6           0        8.138121   -0.680881   -0.062993
     36          6           0        8.540834   -2.042609   -0.149074
     37          6           0        7.300459   -2.764347    0.035396
     38          6           0        6.284586   -1.805749    0.126065
     39          6           0        9.924145   -2.503461   -0.546888
     40          6           0        6.713182   -4.056061    0.172804
     41          8           0        7.263639   -5.152900    0.236225
     42          6           0        5.172257   -3.856499    0.190209
     43          6           0        4.647464   -4.656261   -0.897523
     44          8           0        4.750508   -4.390378   -2.083149
     45          8           0        3.983399   -5.767967   -0.406449
     46          6           0        3.525331   -6.716833   -1.421309
     47          6           0       -2.311407   -3.816981   -0.568074
     48          6           0       -3.687296   -3.187504   -0.408983
     49          6           0       -4.865314   -3.706148   -0.154894
     50          6           0       -5.353418   -5.154125    0.190343
     51          6           0       -6.063091   -2.781653   -0.074382
     52          6           0       -6.197075   -2.024203    1.233483
     53          6           0       -6.839369   -0.650912    1.046849
     54          6           0       -8.382863   -0.603660    1.124172
     55          6           0       -8.891803   -0.803815    2.579486
     56          6           0       -9.048944    0.605016    0.531704
     57          6           0      -10.128771    0.284912   -0.510659
     58          6           0      -11.403243   -0.090256    0.237095
     59          6           0      -12.480361    0.921413    0.073043
     60          6           0      -13.047396    1.279051    1.480947
     61          6           0      -13.565088    0.531025   -0.999819
     62          6           0      -14.493149    1.703850   -1.309875
     63          6           0      -15.961752    1.418467   -0.864949
     64          6           0      -16.884169    2.658679   -0.803976
     65          6           0      -17.217176    3.186849    0.614441
     66          6           0      -18.052062    2.482591   -1.769237
     67          1           0        1.163429    1.764295    0.306182
     68          1           0        6.438114    5.429646   -0.465152
     69          1           0       10.008759    0.198082   -0.117978
     70          1           0        2.241287   -2.894425   -0.780841
     71          1           0        0.776324   -0.712807    0.773996
     72          1           0        0.803685   -1.473732   -2.035605
     73          1           0        0.710950    0.269651   -1.830472
     74          1           0       -0.514551   -0.780108   -0.959614
     75          1           0        2.437819   -2.300752    2.245447
     76          1           0        2.631218   -3.796630    1.208803
     77          1           0        0.200416   -2.338808    2.042145
     78          1           0        0.642028   -4.015566    2.338619
     79          1           0        0.401751    3.728368    0.657611
     80          1           0        0.517728    4.993283   -0.491319
     81          1           0        0.922828    5.225939    1.225789
     82          1           0        1.961551    7.140175    0.859554
     83          1           0        2.091955    7.286730   -0.898120
     84          1           0        2.820268    8.502727    0.085782
     85          1           0        8.862521    4.879654    0.326642
     86          1           0       10.308487    2.774594   -1.106315
     87          1           0        8.263450    4.979592   -2.618692
     88          1           0        9.937418    4.600111   -2.366769
     89          1           0        9.359014    6.062063   -1.668817
     90          1           0       10.597294    4.079214    1.462331
     91          1           0       11.594629    2.885570    0.896201
     92          1           0        9.248262    1.756239    2.155461
     93          1           0       10.262993    2.759954    3.253675
     94          1           0       11.069740    1.503116    2.376604
     95          1           0       10.671456   -1.814216   -0.153913
     96          1           0        9.887679   -2.608703   -1.631315
     97          1           0       10.044937   -3.472699   -0.063358
     98          1           0        4.811879   -4.107103    1.188360
     99          1           0        4.275690   -6.974967   -2.168543
    100          1           0        2.662499   -6.368854   -1.989781
    101          1           0        3.135897   -7.592298   -0.900286
    102          1           0       -2.395203   -4.900601   -0.649874
    103          1           0       -1.988453   -3.416882   -1.529165
    104          1           0       -3.701375   -2.099226   -0.463537
    105          1           0       -5.921846   -5.589841   -0.631045
    106          1           0       -5.791777   -5.317462    1.174911
    107          1           0       -4.447581   -5.757524    0.262875
    108          1           0       -7.016066   -3.308921   -0.119991
    109          1           0       -6.115787   -2.202657   -0.995693
    110          1           0       -5.267021   -1.829270    1.765950
    111          1           0       -6.938079   -2.592445    1.795525
    112          1           0       -6.597607   -0.383401    0.018398
    113          1           0       -6.304256   -0.001999    1.740202
    114          1           0       -8.773743   -1.523562    0.689847
    115          1           0       -8.033233   -0.819470    3.250155
    116          1           0       -9.491508   -1.709709    2.668766
    117          1           0       -9.485252    0.009337    2.997584
    118          1           0       -8.314502    1.106058   -0.100103
    119          1           0       -9.369438    1.371401    1.237033
    120          1           0       -9.856620   -0.636205   -1.026118
    121          1           0      -10.335549    1.096219   -1.208708
    122          1           0      -11.211044   -0.356891    1.276788
    123          1           0      -11.874451   -1.023035   -0.071601
    124          1           0      -12.033698    1.850829   -0.278841
    125          1           0      -12.365318    2.072617    1.784072
    126          1           0      -13.103722    0.468053    2.207933
    127          1           0      -14.020536    1.755163    1.363168
    128          1           0      -14.208695   -0.311766   -0.747225
    129          1           0      -13.033647    0.132922   -1.864785
    130          1           0      -14.355256    2.065528   -2.329387
    131          1           0      -14.082299    2.512156   -0.704515
    132          1           0      -15.747840    1.046979    0.136583
    133          1           0      -16.292781    0.674118   -1.588417
    134          1           0      -16.323897    3.459318   -1.287527
    135          1           0      -16.569802    4.060350    0.686677
    136          1           0      -16.939649    2.421819    1.339896
    137          1           0      -18.256285    3.459319    0.796924
    138          1           0      -19.005426    2.462746   -1.240562
    139          1           0      -18.126967    1.486042   -2.204949
    140          1           0      -18.040699    3.260735   -2.532734
 ---------------------------------------------------------------------

 SCF Done:  E(RwB97XD) =  -3007.84624568     A.U. after   19 cycles

 Excitation energies and oscillator strengths:

 Excited State   1:      Singlet-A      1.6783 eV  738.75 nm  f=0.4059  <S**2>=0.000
     245 -> 248        0.17007
     246 -> 247        0.68447
     245 <- 248        0.10816
 This state for optimization and/or second-order correction.
 Total Energy, E(TD-HF/TD-DFT) =  -3007.78456958
 Copying the excited state density for this state as the 1-particle RhoCI density.

 Excited State   2:      Singlet-A      2.0997 eV  590.49 nm  f=0.1911  <S**2>=0.000
     245 -> 247        0.66509
     246 -> 248       -0.21460

 Excited State   3:      Singlet-A      3.2088 eV  386.38 nm  f=0.0121  <S**2>=0.000
     244 -> 247        0.67578

 Excited State   4:      Singlet-A      3.5068 eV  353.56 nm  f=0.0021  <S**2>=0.000
     243 -> 247        0.58950
     243 -> 249        0.26996
     243 -> 251        0.20779

 Excited State   5:      Singlet-A      3.5367 eV  350.56 nm  f=0.0010  <S**2>=0.000
     242 -> 247        0.52217
     242 -> 248        0.24128
     242 -> 249       -0.27522
     242 -> 250       -0.16459
     242 -> 251        0.18439

 The electronic state is 1-A.
 Alpha  occ. eigenvalues --  -46.95746 -19.31183 -19.29328 -19.25745 -19.24324
 Alpha  occ. eigenvalues --  -19.23879 -19.23204 -14.46686 -14.45321 -14.44800
 Alpha  occ. eigenvalues --  -14.43308 -10.43791 -10.42142 -10.40131 -10.38213
 Alpha  occ. eigenvalues --  -10.36244 -10.35150 -10.34625 -10.34435 -10.34411
 Alpha  occ. eigenvalues --  -10.34227 -10.34157 -10.33962 -10.33814 -10.32909
 Alpha  occ. eigenvalues --  -10.32773 -10.32424 -10.32308 -10.32258 -10.32218
 Alpha  occ. eigenvalues --  -10.32139 -10.31938 -10.31896 -10.31825 -10.31772
 Alpha  occ. eigenvalues --  -10.31402 -10.31373 -10.31033 -10.30705 -10.30503
 Alpha  occ. eigenvalues --  -10.30361 -10.30309 -10.30201 -10.30045 -10.29928
 Alpha  occ. eigenvalues --  -10.29857 -10.29825 -10.29817 -10.29763 -10.29223
 Alpha  occ. eigenvalues --  -10.29189 -10.29124 -10.29077 -10.28922 -10.28916
 Alpha  occ. eigenvalues --  -10.28858 -10.28718 -10.28670 -10.28469 -10.28420
 Alpha  occ. eigenvalues --  -10.28375 -10.28297 -10.28279 -10.28223 -10.27759
 Alpha  occ. eigenvalues --  -10.27451  -3.21798  -1.95343  -1.94931  -1.94763
 Alpha  occ. eigenvalues --   -1.19659  -1.17223  -1.11592  -1.11558  -1.11041
 Alpha  occ. eigenvalues --   -1.08970  -1.07264  -1.06020  -1.05467  -1.04628
 Alpha  occ. eigenvalues --   -0.93855  -0.93194  -0.92270  -0.91705  -0.90863
 Alpha  occ. eigenvalues --   -0.90762  -0.89654  -0.89545  -0.89336  -0.88638
 Alpha  occ. eigenvalues --   -0.88131  -0.87356  -0.86551  -0.85511  -0.85132
 Alpha  occ. eigenvalues --   -0.84637  -0.83655  -0.83097  -0.82714  -0.82220
 Alpha  occ. eigenvalues --   -0.81656  -0.80436  -0.79932  -0.79063  -0.77992
 Alpha  occ. eigenvalues --   -0.77743  -0.77627  -0.77464  -0.77097  -0.76149
 Alpha  occ. eigenvalues --   -0.75507  -0.74983  -0.73597  -0.72462  -0.71213
 Alpha  occ. eigenvalues --   -0.70826  -0.70449  -0.69149  -0.68333  -0.67728
 Alpha  occ. eigenvalues --   -0.67463  -0.66891  -0.66875  -0.66124  -0.65976
 Alpha  occ. eigenvalues --   -0.65451  -0.65242  -0.64378  -0.63416  -0.62661
 Alpha  occ. eigenvalues --   -0.62079  -0.61312  -0.60864  -0.60117  -0.59898
 Alpha  occ. eigenvalues --   -0.59674  -0.59258  -0.58357  -0.57973  -0.57560
 Alpha  occ. eigenvalues --   -0.57429  -0.57249  -0.56859  -0.56417  -0.55933
 Alpha  occ. eigenvalues --   -0.55769  -0.55414  -0.55045  -0.54916  -0.54604
 Alpha  occ. eigenvalues --   -0.54480  -0.54089  -0.53933  -0.53834  -0.53547
 Alpha  occ. eigenvalues --   -0.53318  -0.52902  -0.52787  -0.52604  -0.52448
 Alpha  occ. eigenvalues --   -0.52276  -0.52005  -0.51842  -0.51527  -0.51364
 Alpha  occ. eigenvalues --   -0.51268  -0.51052  -0.50918  -0.50773  -0.50598
 Alpha  occ. eigenvalues --   -0.50504  -0.50283  -0.49995  -0.49911  -0.49383
 Alpha  occ. eigenvalues --   -0.49361  -0.49165  -0.49115  -0.48974  -0.48620
 Alpha  occ. eigenvalues --   -0.48438  -0.48246  -0.47894  -0.47693  -0.47455
 Alpha  occ. eigenvalues --   -0.47292  -0.47129  -0.46942  -0.46646  -0.46571
 Alpha  occ. eigenvalues --   -0.46499  -0.46362  -0.46266  -0.45968  -0.45883
 Alpha  occ. eigenvalues --   -0.45767  -0.45581  -0.45517  -0.45422  -0.45217
 Alpha  occ. eigenvalues --   -0.45106  -0.44652  -0.44431  -0.44186  -0.43928
 Alpha  occ. eigenvalues --   -0.43653  -0.43586  -0.43463  -0.43354  -0.43140
 Alpha  occ. eigenvalues --   -0.42908  -0.42442  -0.42095  -0.41975  -0.41952
 Alpha  occ. eigenvalues --   -0.41494  -0.41231  -0.40805  -0.40595  -0.40393
 Alpha  occ. eigenvalues --   -0.40198  -0.39949  -0.39683  -0.39485  -0.39233
 Alpha  occ. eigenvalues --   -0.39015  -0.38775  -0.38561  -0.37878  -0.37868
 Alpha  occ. eigenvalues --   -0.37642  -0.37591  -0.37042  -0.36768  -0.36175
 Alpha  occ. eigenvalues --   -0.35835  -0.35548  -0.35126  -0.34166  -0.33418
 Alpha  occ. eigenvalues --   -0.33236  -0.32875  -0.32508  -0.31335  -0.25638
 Alpha  occ. eigenvalues --   -0.23488
 Alpha virt. eigenvalues --   -0.07505   0.00758   0.02864   0.04287   0.04707
 Alpha virt. eigenvalues --    0.06837   0.07683   0.08099   0.08677   0.10083
 Alpha virt. eigenvalues --    0.10886   0.11689   0.12052   0.12163   0.12546

 Mulliken charges:
               1
     1  Mg   0.974295
     2  C    0.030052
     3  C   -0.069714
     4  C   -0.070296
     5  C   -0.067410
     6  N   -0.290575
     7  C   -0.022514
     8  C   -0.126359
     9  C   -0.080094
    10  C    0.000184
    11  C    0.046544
    12  C    0.016793
    13  C   -0.001053
    14  C    0.203715
    15  O   -0.247874
    16  O   -0.357362
    17  N   -0.500957
    18  C    0.163584
    19  C   -0.128515
    20  C   -0.080935
    21  C    0.157204
    22  C    0.036770
    23  C    0.080445
    24  O   -0.245362
    25  C   -0.007505
    26  N   -0.341010
    27  C    0.061071
    28  C   -0.079259
    29  C   -0.014919
    30  C   -0.028860
    31  C    0.006279
    32  C   -0.046744
    33  C   -0.039838
    34  N   -0.410157
    35  C    0.122473
    36  C   -0.182835
    37  C   -0.022294
    38  C    0.096286
    39  C    0.092170
    40  C    0.073740
    41  O   -0.215466
    42  C   -0.067727
    43  C    0.285268
    44  O   -0.248143
    45  O   -0.369208
    46  C    0.146182
    47  C    0.277528
    48  C   -0.143168
    49  C   -0.179507
    50  C    0.028767
    51  C   -0.008696
    52  C   -0.004064
    53  C    0.017058
    54  C   -0.179886
    55  C   -0.013418
    56  C    0.041655
    57  C   -0.018168
    58  C    0.026448
    59  C   -0.207564
    60  C   -0.001817
    61  C    0.022609
    62  C   -0.058112
    63  C    0.006739
    64  C   -0.206988
    65  C    0.012591
    66  C   -0.008736
    67  H   -0.020267
    68  H    0.019000
    69  H   -0.016412
    70  H    0.070618
    71  H    0.021534
    72  H    0.049239
    73  H    0.042573
    74  H    0.045425
    75  H    0.039345
    76  H    0.050990
    77  H    0.045314
    78  H    0.063061
    79  H    0.032771
    80  H    0.054751
    81  H    0.053705
    82  H    0.047798
    83  H    0.044678
    84  H    0.055899
    85  H    0.044412
    86  H    0.038222
    87  H    0.051182
    88  H    0.030489
    89  H    0.047990
    90  H    0.021576
    91  H    0.022012
    92  H    0.062147
    93  H    0.035773
    94  H    0.035469
    95  H    0.040489
    96  H    0.075403
    97  H    0.060093
    98  H    0.076023
    99  H    0.057328
   100  H    0.048169
   101  H    0.047017
   102  H    0.046853
   103  H    0.044224
   104  H    0.017743
   105  H    0.055554
   106  H    0.056092
   107  H    0.008772
   108  H    0.007579
   109  H    0.029964
   110  H    0.033017
   111  H    0.017083
   112  H    0.007166
   113  H    0.021095
   114  H    0.011915
   115  H    0.019772
   116  H    0.034162
   117  H    0.026343
   118  H    0.001776
   119  H    0.020435
   120  H    0.016759
   121  H    0.029096
   122  H   -0.006843
   123  H   -0.002152
   124  H    0.011739
   125  H    0.024886
   126  H    0.042564
   127  H    0.012045
   128  H    0.010152
   129  H    0.008065
   130  H    0.019587
   131  H    0.007718
   132  H    0.013518
   133  H    0.032267
   134  H    0.025255
   135  H    0.035677
   136  H    0.029101
   137  H    0.033656
   138  H    0.012836
   139  H    0.017638
   140  H    0.039735
 Sum of Mulliken charges =  -0.00000

 Dipole moment (field-independent basis, Debye):
    X=             -4.3869    Y=              3.0898    Z=              2.9836  Tot=              6.1395
 Quadrupole moment (field-independent basis, Debye-Ang):
   XX=           -387.1239   YY=           -425.1552   ZZ=           -402.8837
   XY=             34.8825   XZ=             12.3217   YZ=             -1.5964

 Normal termination of Gaussian 16 at Wed Apr 27 03:17:59 2022.
