 Gaussian 16, Revision A.03,
 Gaussian 16:  ES64L-G16RevA.03 25-Dec-2016

 --------------------
 #p ZINDO=(nstates=5)
 --------------------

 ------------------------------
 step_1051_chromophore_18 ZINDO
 ------------------------------
 Symbolic Z-matrix:
 Charge =  0 Multiplicity = 1

                         Standard orientation:
 ---------------------------------------------------------------------
 Center     Atomic      Atomic             Coordinates (Angstroms)
 Number     Number       Type             X           Y           Z
 ---------------------------------------------------------------------
      1         12           0        5.608126    1.220604    0.335911
      2          6           0        4.899323   -2.296801    0.069763
      3          6           0        2.241841    1.613371    0.221329
      4          6           0        6.191072    4.373754   -0.343697
      5          6           0        8.948511    0.455945   -0.171556
      6          7           0        3.715381   -0.224827   -0.147419
      7          6           0        3.756143   -1.566335   -0.008365
      8          6           0        2.281662   -2.139246    0.003941
      9          6           0        1.420545   -0.808788   -0.098964
     10          6           0        2.492863    0.297173    0.091685
     11          6           0        0.498533   -0.684509   -1.348054
     12          6           0        2.111160   -2.851706    1.363849
     13          6           0        0.648235   -3.223147    1.589908
     14          6           0       -0.186507   -3.753215    0.449347
     15          8           0        0.256612   -4.472598   -0.413602
     16          8           0       -1.488553   -3.285812    0.492547
     17          7           0        4.447836    2.786648    0.016747
     18          6           0        3.057533    2.814808    0.084634
     19          6           0        2.585046    4.170914    0.069369
     20          6           0        3.718799    4.986549   -0.094148
     21          6           0        4.855715    4.056159   -0.139133
     22          6           0        1.037035    4.565395    0.366357
     23          6           0        3.846890    6.542604   -0.134593
     24          8           0        4.894379    7.207697   -0.206395
     25          6           0        2.621659    7.431187    0.042364
     26          7           0        7.393364    2.246826   -0.085254
     27          6           0        7.325820    3.575784   -0.290988
     28          6           0        8.705054    4.198632   -0.510444
     29          6           0        9.676796    2.953408   -0.236116
     30          6           0        8.643707    1.819360   -0.166374
     31          6           0        9.063910    5.034464   -1.880353
     32          6           0       10.538424    3.050294    1.106475
     33          6           0       10.231190    2.196941    2.320854
     34          7           0        6.787502   -0.552518    0.149910
     35          6           0        8.138121   -0.680881   -0.062993
     36          6           0        8.540834   -2.042609   -0.149074
     37          6           0        7.300459   -2.764347    0.035396
     38          6           0        6.284586   -1.805749    0.126065
     39          6           0        9.924145   -2.503461   -0.546888
     40          6           0        6.713182   -4.056061    0.172804
     41          8           0        7.263639   -5.152900    0.236225
     42          6           0        5.172257   -3.856499    0.190209
     43          6           0        4.647464   -4.656261   -0.897523
     44          8           0        4.750508   -4.390378   -2.083149
     45          8           0        3.983399   -5.767967   -0.406449
     46          6           0        3.525331   -6.716833   -1.421309
     47          6           0       -2.311407   -3.816981   -0.568074
     48          6           0       -3.687296   -3.187504   -0.408983
     49          6           0       -4.865314   -3.706148   -0.154894
     50          6           0       -5.353418   -5.154125    0.190343
     51          6           0       -6.063091   -2.781653   -0.074382
     52          6           0       -6.197075   -2.024203    1.233483
     53          6           0       -6.839369   -0.650912    1.046849
     54          6           0       -8.382863   -0.603660    1.124172
     55          6           0       -8.891803   -0.803815    2.579486
     56          6           0       -9.048944    0.605016    0.531704
     57          6           0      -10.128771    0.284912   -0.510659
     58          6           0      -11.403243   -0.090256    0.237095
     59          6           0      -12.480361    0.921413    0.073043
     60          6           0      -13.047396    1.279051    1.480947
     61          6           0      -13.565088    0.531025   -0.999819
     62          6           0      -14.493149    1.703850   -1.309875
     63          6           0      -15.961752    1.418467   -0.864949
     64          6           0      -16.884169    2.658679   -0.803976
     65          6           0      -17.217176    3.186849    0.614441
     66          6           0      -18.052062    2.482591   -1.769237
     67          1           0        1.163429    1.764295    0.306182
     68          1           0        6.438114    5.429646   -0.465152
     69          1           0       10.008759    0.198082   -0.117978
     70          1           0        2.241287   -2.894425   -0.780841
     71          1           0        0.776324   -0.712807    0.773996
     72          1           0        0.803685   -1.473732   -2.035605
     73          1           0        0.710950    0.269651   -1.830472
     74          1           0       -0.514551   -0.780108   -0.959614
     75          1           0        2.437819   -2.300752    2.245447
     76          1           0        2.631218   -3.796630    1.208803
     77          1           0        0.200416   -2.338808    2.042145
     78          1           0        0.642028   -4.015566    2.338619
     79          1           0        0.401751    3.728368    0.657611
     80          1           0        0.517728    4.993283   -0.491319
     81          1           0        0.922828    5.225939    1.225789
     82          1           0        1.961551    7.140175    0.859554
     83          1           0        2.091955    7.286730   -0.898120
     84          1           0        2.820268    8.502727    0.085782
     85          1           0        8.862521    4.879654    0.326642
     86          1           0       10.308487    2.774594   -1.106315
     87          1           0        8.263450    4.979592   -2.618692
     88          1           0        9.937418    4.600111   -2.366769
     89          1           0        9.359014    6.062063   -1.668817
     90          1           0       10.597294    4.079214    1.462331
     91          1           0       11.594629    2.885570    0.896201
     92          1           0        9.248262    1.756239    2.155461
     93          1           0       10.262993    2.759954    3.253675
     94          1           0       11.069740    1.503116    2.376604
     95          1           0       10.671456   -1.814216   -0.153913
     96          1           0        9.887679   -2.608703   -1.631315
     97          1           0       10.044937   -3.472699   -0.063358
     98          1           0        4.811879   -4.107103    1.188360
     99          1           0        4.275690   -6.974967   -2.168543
    100          1           0        2.662499   -6.368854   -1.989781
    101          1           0        3.135897   -7.592298   -0.900286
    102          1           0       -2.395203   -4.900601   -0.649874
    103          1           0       -1.988453   -3.416882   -1.529165
    104          1           0       -3.701375   -2.099226   -0.463537
    105          1           0       -5.921846   -5.589841   -0.631045
    106          1           0       -5.791777   -5.317462    1.174911
    107          1           0       -4.447581   -5.757524    0.262875
    108          1           0       -7.016066   -3.308921   -0.119991
    109          1           0       -6.115787   -2.202657   -0.995693
    110          1           0       -5.267021   -1.829270    1.765950
    111          1           0       -6.938079   -2.592445    1.795525
    112          1           0       -6.597607   -0.383401    0.018398
    113          1           0       -6.304256   -0.001999    1.740202
    114          1           0       -8.773743   -1.523562    0.689847
    115          1           0       -8.033233   -0.819470    3.250155
    116          1           0       -9.491508   -1.709709    2.668766
    117          1           0       -9.485252    0.009337    2.997584
    118          1           0       -8.314502    1.106058   -0.100103
    119          1           0       -9.369438    1.371401    1.237033
    120          1           0       -9.856620   -0.636205   -1.026118
    121          1           0      -10.335549    1.096219   -1.208708
    122          1           0      -11.211044   -0.356891    1.276788
    123          1           0      -11.874451   -1.023035   -0.071601
    124          1           0      -12.033698    1.850829   -0.278841
    125          1           0      -12.365318    2.072617    1.784072
    126          1           0      -13.103722    0.468053    2.207933
    127          1           0      -14.020536    1.755163    1.363168
    128          1           0      -14.208695   -0.311766   -0.747225
    129          1           0      -13.033647    0.132922   -1.864785
    130          1           0      -14.355256    2.065528   -2.329387
    131          1           0      -14.082299    2.512156   -0.704515
    132          1           0      -15.747840    1.046979    0.136583
    133          1           0      -16.292781    0.674118   -1.588417
    134          1           0      -16.323897    3.459318   -1.287527
    135          1           0      -16.569802    4.060350    0.686677
    136          1           0      -16.939649    2.421819    1.339896
    137          1           0      -18.256285    3.459319    0.796924
    138          1           0      -19.005426    2.462746   -1.240562
    139          1           0      -18.126967    1.486042   -2.204949
    140          1           0      -18.040699    3.260735   -2.532734
 ---------------------------------------------------------------------

 SCF Done:  E(RZINDO/S) =  -474.424264494     A.U. after   20 cycles

 Excitation energies and oscillator strengths:

 Excited State   1:      Singlet-A      1.2354 eV 1003.63 nm  f=0.6386  <S**2>=0.000
     175 ->178         0.18082
     176 ->177         0.66265
 This state for optimization and/or second-order correction.
 Total Energy, E(CIS/TDA) =  -474.378865770
 Copying the excited state density for this state as the 1-particle RhoCI density.

 Excited State   2:      Singlet-A      1.8954 eV  654.14 nm  f=0.1424  <S**2>=0.000
     175 ->177         0.60258
     176 ->178        -0.33395

 Excited State   3:      Singlet-A      2.9052 eV  426.77 nm  f=0.0063  <S**2>=0.000
     168 ->177         0.28474
     168 ->178         0.23087
     168 ->179         0.27511
     168 ->180        -0.18643
     168 ->181         0.35898
     168 ->185         0.22911

 Excited State   4:      Singlet-A      2.9640 eV  418.31 nm  f=0.0395  <S**2>=0.000
     169 ->177         0.28341
     169 ->179        -0.33727
     169 ->181         0.22500
     169 ->185        -0.10790
     169 ->187         0.12024
     170 ->177        -0.13765
     170 ->179         0.14918
     173 ->177        -0.12977
     174 ->177         0.24064
     176 ->178         0.16246

 Excited State   5:      Singlet-A      2.9949 eV  413.99 nm  f=0.4557  <S**2>=0.000
     175 ->177         0.21950
     176 ->178         0.45757
     176 ->179         0.26012
     176 ->180         0.32289
     176 ->181         0.12770

 The electronic state is 1-A.
 Alpha  occ. eigenvalues --   -1.84168  -1.82125  -1.80308  -1.74705  -1.71851
 Alpha  occ. eigenvalues --   -1.70717  -1.68670  -1.63046  -1.58153  -1.57230
 Alpha  occ. eigenvalues --   -1.56804  -1.53489  -1.49952  -1.47442  -1.45916
 Alpha  occ. eigenvalues --   -1.43558  -1.43014  -1.40368  -1.38987  -1.37562
 Alpha  occ. eigenvalues --   -1.34771  -1.34081  -1.32530  -1.31067  -1.28040
 Alpha  occ. eigenvalues --   -1.26290  -1.25227  -1.22648  -1.20358  -1.18450
 Alpha  occ. eigenvalues --   -1.17128  -1.16911  -1.15486  -1.15102  -1.13719
 Alpha  occ. eigenvalues --   -1.12768  -1.11801  -1.10408  -1.05980  -1.03923
 Alpha  occ. eigenvalues --   -1.02904  -1.01131  -0.99457  -0.98281  -0.97329
 Alpha  occ. eigenvalues --   -0.95973  -0.94095  -0.93820  -0.93196  -0.92482
 Alpha  occ. eigenvalues --   -0.91187  -0.89456  -0.88862  -0.88228  -0.86148
 Alpha  occ. eigenvalues --   -0.86014  -0.83977  -0.83302  -0.81447  -0.80813
 Alpha  occ. eigenvalues --   -0.79866  -0.78911  -0.78245  -0.76708  -0.76371
 Alpha  occ. eigenvalues --   -0.75968  -0.75610  -0.75220  -0.74329  -0.74025
 Alpha  occ. eigenvalues --   -0.73258  -0.73206  -0.72847  -0.71867  -0.70910
 Alpha  occ. eigenvalues --   -0.70732  -0.68896  -0.68559  -0.68042  -0.67896
 Alpha  occ. eigenvalues --   -0.67426  -0.66927  -0.65687  -0.65373  -0.64795
 Alpha  occ. eigenvalues --   -0.64631  -0.64339  -0.64278  -0.63670  -0.63356
 Alpha  occ. eigenvalues --   -0.63109  -0.62721  -0.62424  -0.61780  -0.61288
 Alpha  occ. eigenvalues --   -0.60952  -0.60789  -0.60676  -0.60574  -0.60471
 Alpha  occ. eigenvalues --   -0.59465  -0.59163  -0.58907  -0.58848  -0.58334
 Alpha  occ. eigenvalues --   -0.57764  -0.57415  -0.57117  -0.56354  -0.56013
 Alpha  occ. eigenvalues --   -0.55873  -0.55541  -0.55391  -0.55242  -0.54590
 Alpha  occ. eigenvalues --   -0.54456  -0.54381  -0.53488  -0.53218  -0.53140
 Alpha  occ. eigenvalues --   -0.52465  -0.52179  -0.52093  -0.51935  -0.51051
 Alpha  occ. eigenvalues --   -0.50915  -0.50746  -0.50427  -0.50174  -0.49979
 Alpha  occ. eigenvalues --   -0.49735  -0.49495  -0.49215  -0.49174  -0.48801
 Alpha  occ. eigenvalues --   -0.48473  -0.48129  -0.48028  -0.47819  -0.47447
 Alpha  occ. eigenvalues --   -0.47162  -0.47054  -0.47003  -0.46595  -0.46570
 Alpha  occ. eigenvalues --   -0.45739  -0.45561  -0.45237  -0.44970  -0.44861
 Alpha  occ. eigenvalues --   -0.44600  -0.44435  -0.44217  -0.44145  -0.43744
 Alpha  occ. eigenvalues --   -0.43432  -0.43092  -0.42706  -0.42344  -0.41957
 Alpha  occ. eigenvalues --   -0.41567  -0.41172  -0.41030  -0.39390  -0.38787
 Alpha  occ. eigenvalues --   -0.37810  -0.36855  -0.35247  -0.34781  -0.34430
 Alpha  occ. eigenvalues --   -0.33953  -0.33493  -0.32789  -0.32211  -0.26319
 Alpha  occ. eigenvalues --   -0.22078
 Alpha virt. eigenvalues --   -0.08966  -0.01540  -0.00233   0.00909   0.01452
 Alpha virt. eigenvalues --    0.01752   0.03223   0.03421   0.04917   0.05001
 Alpha virt. eigenvalues --    0.06391   0.07236   0.07632   0.08029   0.08240

 Mulliken charges:
               1
     1  Mg   0.439659
     2  C   -0.071453
     3  C   -0.088347
     4  C   -0.050912
     5  C   -0.058574
     6  N   -0.316817
     7  C    0.144402
     8  C   -0.001977
     9  C    0.001245
    10  C    0.138671
    11  C   -0.050004
    12  C   -0.022570
    13  C    0.001650
    14  C    0.472268
    15  O   -0.509590
    16  O   -0.263709
    17  N   -0.309515
    18  C    0.109695
    19  C   -0.008263
    20  C   -0.037090
    21  C    0.133211
    22  C   -0.051186
    23  C    0.324914
    24  O   -0.525589
    25  C   -0.027975
    26  N   -0.244239
    27  C    0.126379
    28  C   -0.009080
    29  C    0.000607
    30  C    0.135870
    31  C   -0.052748
    32  C   -0.031873
    33  C   -0.056044
    34  N   -0.336454
    35  C    0.097463
    36  C    0.039589
    37  C   -0.057342
    38  C    0.130965
    39  C   -0.035219
    40  C    0.340864
    41  O   -0.532976
    42  C    0.057277
    43  C    0.501949
    44  O   -0.523941
    45  O   -0.268931
    46  C    0.076012
    47  C    0.108924
    48  C   -0.080418
    49  C   -0.004212
    50  C   -0.047735
    51  C   -0.025351
    52  C   -0.030411
    53  C   -0.035288
    54  C   -0.002803
    55  C   -0.063682
    56  C   -0.023276
    57  C   -0.033438
    58  C   -0.036511
    59  C   -0.008556
    60  C   -0.064363
    61  C   -0.036756
    62  C   -0.044025
    63  C   -0.036947
    64  C   -0.012314
    65  C   -0.055290
    66  C   -0.059056
    67  H    0.011819
    68  H    0.041975
    69  H    0.017317
    70  H    0.061611
    71  H    0.019303
    72  H    0.032438
    73  H    0.027704
    74  H    0.028456
    75  H    0.032553
    76  H    0.027985
    77  H    0.028341
    78  H    0.037306
    79  H    0.020760
    80  H    0.029341
    81  H    0.027047
    82  H    0.033840
    83  H    0.030565
    84  H    0.040741
    85  H    0.031520
    86  H    0.034332
    87  H    0.030457
    88  H    0.017036
    89  H    0.029362
    90  H    0.015823
    91  H    0.012194
    92  H    0.034352
    93  H    0.019357
    94  H    0.021153
    95  H    0.031088
    96  H    0.047715
    97  H    0.034224
    98  H    0.051319
    99  H    0.050395
   100  H    0.038956
   101  H    0.027613
   102  H    0.055398
   103  H    0.043652
   104  H    0.025743
   105  H    0.034654
   106  H    0.037919
   107  H    0.003732
   108  H    0.007837
   109  H    0.021462
   110  H    0.025546
   111  H    0.021576
   112  H    0.011533
   113  H    0.020842
   114  H    0.022182
   115  H    0.012109
   116  H    0.018912
   117  H    0.015825
   118  H   -0.003619
   119  H    0.027373
   120  H    0.017068
   121  H    0.026921
   122  H    0.016895
   123  H    0.005949
   124  H    0.017120
   125  H    0.014709
   126  H    0.028162
   127  H    0.014372
   128  H    0.017574
   129  H    0.010818
   130  H    0.018321
   131  H    0.011469
   132  H    0.026086
   133  H    0.028196
   134  H    0.012229
   135  H    0.020589
   136  H    0.020378
   137  H    0.025037
   138  H    0.010808
   139  H    0.016800
   140  H    0.023056
 Sum of Mulliken charges =  -0.00000

 Dipole moment (field-independent basis, Debye):
    X=             -5.5066    Y=              3.3385    Z=              5.0654  Tot=              8.1931
 N-N= 4.243038048678D+03 E-N= 0.000000000000D+00  KE=-9.160726728366D+03
 Leave Link  601 at Wed Apr 27 03:32:19 2022, MaxMem=  6710886400 cpu:               0.8 elap:               0.1
 (Enter /sw/apps/gaussian-16.0/g16/l9999.exe)
 1\1\GINC-BP1-COMPUTE134\SP\RZINDO CIS\STO-3G\C55H74Mg1N4O6\OF15641\27-
 Apr-2022\0\\#p ZINDO=(nstates=5)\\step_1051_chromophore_18 ZINDO\\0,1\
 Mg,0,35.196,49.133,25.463\C,0,35.074,47.246,28.524\C,0,33.761,51.615,2
 7.274\C,0,34.443,50.53,22.595\C,0,36.092,46.205,23.843\N,0,34.191,49.3
 03,27.669\C,0,34.484,48.46,28.681\C,0,33.996,49.089,30.048\C,0,33.424,
 50.491,29.569\C,0,33.885,50.55,28.088\C,0,31.912,50.744,29.844\C,0,35.
 258,49.233,30.927\C,0,34.948,50.061,32.171\C,0,33.642,49.872,32.904\O,

 Normal termination of Gaussian 16 at Wed Apr 27 03:32:19 2022.
