 Gaussian 16, Revision A.03,
 Gaussian 16:  ES64L-G16RevA.03 25-Dec-2016

 ------------------------------
 #p blyp/Def2SVP td=(nstates=5)
 ------------------------------

 --------------------------------------------------
 step_801_chromophore_19 TDDFT with blyp functional
 --------------------------------------------------
 Symbolic Z-matrix:
 Charge =  0 Multiplicity = 1

                         Standard orientation:
 ---------------------------------------------------------------------
 Center     Atomic      Atomic             Coordinates (Angstroms)
 Number     Number       Type             X           Y           Z
 ---------------------------------------------------------------------
      1         12           0        5.976585    0.347391    0.104429
      2          6           0        3.464996   -2.099326   -0.046260
      3          6           0        3.470028    2.714033   -0.420430
      4          6           0        8.338129    2.686695   -0.082887
      5          6           0        8.360557   -2.159825    0.591078
      6          7           0        3.702948    0.228531   -0.215300
      7          6           0        2.878760   -0.853348   -0.149599
      8          6           0        1.363769   -0.517075   -0.227663
      9          6           0        1.429790    1.005197   -0.741728
     10          6           0        2.935496    1.397904   -0.481393
     11          6           0        1.027953    1.286367   -2.215981
     12          6           0        0.592644   -0.940311    1.088770
     13          6           0       -0.710406   -1.814489    0.936247
     14          6           0       -1.801079   -1.341039   -0.021837
     15          8           0       -1.624432   -0.791350   -1.141262
     16          8           0       -3.045197   -1.656984    0.457686
     17          7           0        5.979261    2.403457   -0.076335
     18          6           0        4.824092    3.192259   -0.267938
     19          6           0        5.196331    4.583008   -0.308755
     20          6           0        6.684519    4.601870   -0.350213
     21          6           0        7.054294    3.186456   -0.191159
     22          6           0        4.169564    5.698796   -0.236287
     23          6           0        7.557923    5.850968   -0.479449
     24          8           0        8.752774    5.814446   -0.739374
     25          6           0        7.017780    7.163484   -0.275064
     26          7           0        8.056117    0.324398    0.192574
     27          6           0        8.811185    1.412783    0.113640
     28          6           0       10.254230    1.072691    0.384489
     29          6           0       10.210609   -0.388254    0.904654
     30          6           0        8.780004   -0.800710    0.535917
     31          6           0       11.183291    1.360697   -0.811366
     32          6           0       10.548737   -0.638946    2.388414
     33          6           0       11.458103   -1.788868    2.646008
     34          7           0        5.942683   -1.743254    0.188487
     35          6           0        6.980663   -2.653576    0.353447
     36          6           0        6.412721   -3.999653    0.414635
     37          6           0        5.032098   -3.830287    0.194916
     38          6           0        4.846815   -2.485904    0.056103
     39          6           0        7.168865   -5.248559    0.684144
     40          6           0        3.794945   -4.566330    0.018214
     41          8           0        3.610575   -5.792896   -0.014291
     42          6           0        2.698172   -3.472956   -0.118724
     43          6           0        1.960077   -3.696566   -1.393116
     44          8           0        1.996584   -3.000424   -2.370291
     45          8           0        0.948111   -4.590167   -1.137265
     46          6           0       -0.051845   -4.658239   -2.159645
     47          6           0       -4.168903   -1.372041   -0.416692
     48          6           0       -5.493835   -1.419906    0.279200
     49          6           0       -6.743964   -1.222749   -0.287679
     50          6           0       -7.030960   -1.108862   -1.742827
     51          6           0       -8.024275   -1.053012    0.627184
     52          6           0       -8.637049    0.349670    0.752442
     53          6           0       -8.613925    0.802673    2.260889
     54          6           0       -9.777461    1.774477    2.638926
     55          6           0       -9.200450    2.745836    3.654451
     56          6           0      -10.978813    0.995235    3.284823
     57          6           0      -12.420787    1.209747    2.693853
     58          6           0      -12.989933   -0.019937    1.990853
     59          6           0      -14.021813    0.330627    0.901480
     60          6           0      -15.405330   -0.322581    1.140983
     61          6           0      -13.454608   -0.095728   -0.485307
     62          6           0      -12.508206    1.032558   -1.064766
     63          6           0      -11.491826    0.404359   -2.030722
     64          6           0      -10.986326    1.471446   -2.970958
     65          6           0      -10.806585    0.833664   -4.338793
     66          6           0       -9.719493    2.149918   -2.417850
     67          1           0        2.691011    3.458757   -0.599368
     68          1           0        9.168457    3.389175    0.012071
     69          1           0        9.066111   -2.932399    0.901775
     70          1           0        1.021039   -1.161425   -1.037012
     71          1           0        0.806864    1.597071   -0.071837
     72          1           0        0.978631    0.329325   -2.736114
     73          1           0        1.835692    1.855075   -2.676835
     74          1           0        0.089744    1.840321   -2.251407
     75          1           0        0.275190   -0.081046    1.678152
     76          1           0        1.191167   -1.586826    1.730094
     77          1           0       -1.184390   -1.919113    1.912374
     78          1           0       -0.335046   -2.791007    0.629467
     79          1           0        4.477385    6.518470   -0.886128
     80          1           0        4.098706    6.138442    0.758075
     81          1           0        3.163280    5.406189   -0.533704
     82          1           0        7.894664    7.807341   -0.338756
     83          1           0        6.567049    7.162090    0.717186
     84          1           0        6.398772    7.502544   -1.105885
     85          1           0       10.532293    1.817248    1.130421
     86          1           0       10.758749   -1.026862    0.212027
     87          1           0       10.640149    2.173384   -1.293896
     88          1           0       11.197695    0.439666   -1.394785
     89          1           0       12.217433    1.590580   -0.554503
     90          1           0        9.572598   -0.685503    2.872259
     91          1           0       11.188672    0.171843    2.736278
     92          1           0       12.189398   -1.444072    3.377778
     93          1           0       12.084871   -2.067043    1.798346
     94          1           0       11.005042   -2.638266    3.157524
     95          1           0        6.468608   -5.992278    1.062261
     96          1           0        7.927256   -5.095243    1.452956
     97          1           0        7.547718   -5.717053   -0.223333
     98          1           0        2.062111   -3.482269    0.766479
     99          1           0        0.495239   -4.958036   -3.054689
    100          1           0       -0.559451   -3.714469   -2.359346
    101          1           0       -0.813720   -5.389119   -1.890911
    102          1           0       -4.109154   -2.061419   -1.259538
    103          1           0       -4.047629   -0.337195   -0.736511
    104          1           0       -5.424846   -1.518695    1.361780
    105          1           0       -8.086426   -1.299972   -1.932495
    106          1           0       -6.352844   -1.746089   -2.310233
    107          1           0       -6.802594   -0.089369   -2.052379
    108          1           0       -7.717231   -1.439080    1.599170
    109          1           0       -8.827070   -1.690395    0.256963
    110          1           0       -9.658232    0.373947    0.373081
    111          1           0       -8.103731    1.040944    0.101483
    112          1           0       -7.689521    1.375223    2.328118
    113          1           0       -8.586269    0.026309    3.025345
    114          1           0      -10.073687    2.325938    1.746396
    115          1           0       -8.467859    2.409841    4.388167
    116          1           0      -10.032389    3.172519    4.214926
    117          1           0       -8.642901    3.522490    3.131558
    118          1           0      -11.060999    1.215016    4.349270
    119          1           0      -10.649708   -0.044143    3.286449
    120          1           0      -12.418290    1.983571    1.926174
    121          1           0      -13.007052    1.601357    3.524481
    122          1           0      -13.481146   -0.754135    2.630206
    123          1           0      -12.141835   -0.506264    1.510030
    124          1           0      -14.207744    1.390152    0.722335
    125          1           0      -15.497947   -0.457072    2.218566
    126          1           0      -15.680677   -1.206475    0.566264
    127          1           0      -16.179496    0.433856    1.008437
    128          1           0      -14.268295   -0.187309   -1.204496
    129          1           0      -13.009907   -1.088062   -0.407350
    130          1           0      -12.047929    1.548295   -0.221914
    131          1           0      -13.153227    1.762207   -1.554734
    132          1           0      -11.967892   -0.462521   -2.488581
    133          1           0      -10.756939   -0.127996   -1.426403
    134          1           0      -11.732882    2.262713   -3.050131
    135          1           0      -10.254841   -0.076711   -4.102476
    136          1           0      -10.025828    1.402667   -4.842877
    137          1           0      -11.746355    0.688607   -4.872089
    138          1           0       -9.424055    2.935850   -3.114136
    139          1           0       -8.974887    1.381620   -2.209962
    140          1           0       -9.817688    2.736608   -1.504704
 ---------------------------------------------------------------------

 SCF Done:  E(RB-LYP) =  -3007.39970751     A.U. after   21 cycles

 Excitation energies and oscillator strengths:

 Excited State   1:      Singlet-A      1.7658 eV  702.15 nm  f=0.0242  <S**2>=0.000
     244 -> 247        0.65536
     245 -> 247       -0.17746
     246 -> 247        0.19100
 This state for optimization and/or second-order correction.
 Total Energy, E(TD-HF/TD-DFT) =  -3007.33481622
 Copying the excited state density for this state as the 1-particle RhoCI density.

 Excited State   2:      Singlet-A      1.8269 eV  678.68 nm  f=0.3002  <S**2>=0.000
     244 -> 247       -0.19972
     245 -> 248       -0.16308
     245 -> 249        0.10725
     246 -> 247        0.66223
     246 <- 247       -0.14614

 Excited State   3:      Singlet-A      1.9762 eV  627.37 nm  f=0.0516  <S**2>=0.000
     243 -> 247        0.51262
     244 -> 247       -0.12046
     245 -> 247       -0.44203
     246 -> 248       -0.11312

 Excited State   4:      Singlet-A      2.0067 eV  617.86 nm  f=0.0627  <S**2>=0.000
     243 -> 247        0.48486
     244 -> 247        0.11877
     245 -> 247        0.46738
     246 -> 248        0.13169

 Excited State   5:      Singlet-A      2.2825 eV  543.19 nm  f=0.0001  <S**2>=0.000
     242 -> 247        0.70703

 The electronic state is 1-A.
 Alpha  occ. eigenvalues --  -46.26776 -18.83233 -18.81768 -18.77574 -18.77336
 Alpha  occ. eigenvalues --  -18.75758 -18.74678 -14.03039 -14.02556 -14.01067
 Alpha  occ. eigenvalues --  -14.00597 -10.05279 -10.03964  -9.99730  -9.98977
 Alpha  occ. eigenvalues --   -9.98649  -9.97119  -9.96751  -9.96441  -9.96068
 Alpha  occ. eigenvalues --   -9.95968  -9.95641  -9.95631  -9.95466  -9.94585
 Alpha  occ. eigenvalues --   -9.94436  -9.94303  -9.94243  -9.94172  -9.94049
 Alpha  occ. eigenvalues --   -9.94027  -9.93758  -9.93530  -9.93446  -9.93284
 Alpha  occ. eigenvalues --   -9.93168  -9.93141  -9.92973  -9.92958  -9.92928
 Alpha  occ. eigenvalues --   -9.92628  -9.92624  -9.92441  -9.92322  -9.92179
 Alpha  occ. eigenvalues --   -9.92131  -9.91885  -9.91827  -9.91789  -9.91595
 Alpha  occ. eigenvalues --   -9.91563  -9.91544  -9.91536  -9.91433  -9.91402
 Alpha  occ. eigenvalues --   -9.91274  -9.91235  -9.91204  -9.91184  -9.91105
 Alpha  occ. eigenvalues --   -9.90997  -9.90937  -9.90931  -9.90749  -9.90643
 Alpha  occ. eigenvalues --   -9.90512  -2.91386  -1.71828  -1.71242  -1.71113
 Alpha  occ. eigenvalues --   -0.98834  -0.98452  -0.91179  -0.91013  -0.90361
 Alpha  occ. eigenvalues --   -0.89354  -0.86535  -0.85969  -0.84881  -0.83767
 Alpha  occ. eigenvalues --   -0.74925  -0.73636  -0.73291  -0.72556  -0.72523
 Alpha  occ. eigenvalues --   -0.71944  -0.71625  -0.71398  -0.70490  -0.69959
 Alpha  occ. eigenvalues --   -0.69256  -0.68988  -0.68089  -0.67758  -0.67275
 Alpha  occ. eigenvalues --   -0.66773  -0.66196  -0.65667  -0.65175  -0.64746
 Alpha  occ. eigenvalues --   -0.64222  -0.62311  -0.62190  -0.61723  -0.60812
 Alpha  occ. eigenvalues --   -0.60518  -0.60131  -0.59673  -0.59548  -0.58956
 Alpha  occ. eigenvalues --   -0.58481  -0.57515  -0.56088  -0.55639  -0.54260
 Alpha  occ. eigenvalues --   -0.53722  -0.53518  -0.52518  -0.52230  -0.51558
 Alpha  occ. eigenvalues --   -0.51450  -0.50615  -0.50453  -0.50419  -0.50099
 Alpha  occ. eigenvalues --   -0.49962  -0.49839  -0.48740  -0.48092  -0.46720
 Alpha  occ. eigenvalues --   -0.46536  -0.45753  -0.45444  -0.45252  -0.44604
 Alpha  occ. eigenvalues --   -0.44102  -0.43716  -0.43210  -0.42659  -0.42515
 Alpha  occ. eigenvalues --   -0.42127  -0.41889  -0.41724  -0.41387  -0.41149
 Alpha  occ. eigenvalues --   -0.41004  -0.40755  -0.40570  -0.40428  -0.40367
 Alpha  occ. eigenvalues --   -0.40208  -0.39950  -0.39715  -0.39440  -0.39336
 Alpha  occ. eigenvalues --   -0.39309  -0.39218  -0.38717  -0.38406  -0.38309
 Alpha  occ. eigenvalues --   -0.37694  -0.37631  -0.37435  -0.37314  -0.37273
 Alpha  occ. eigenvalues --   -0.37007  -0.36806  -0.36728  -0.36560  -0.36370
 Alpha  occ. eigenvalues --   -0.36218  -0.36088  -0.35786  -0.35649  -0.35588
 Alpha  occ. eigenvalues --   -0.35376  -0.35032  -0.34938  -0.34832  -0.34671
 Alpha  occ. eigenvalues --   -0.34627  -0.34561  -0.34469  -0.34127  -0.33968
 Alpha  occ. eigenvalues --   -0.33843  -0.33756  -0.33466  -0.33190  -0.33120
 Alpha  occ. eigenvalues --   -0.33038  -0.32762  -0.32598  -0.32208  -0.32021
 Alpha  occ. eigenvalues --   -0.31949  -0.31913  -0.31705  -0.31581  -0.31409
 Alpha  occ. eigenvalues --   -0.31081  -0.30847  -0.30791  -0.30654  -0.30563
 Alpha  occ. eigenvalues --   -0.30396  -0.30186  -0.30057  -0.29996  -0.29616
 Alpha  occ. eigenvalues --   -0.29601  -0.29433  -0.29333  -0.29301  -0.28900
 Alpha  occ. eigenvalues --   -0.28664  -0.28490  -0.28277  -0.28096  -0.27864
 Alpha  occ. eigenvalues --   -0.27769  -0.27738  -0.27471  -0.27129  -0.26752
 Alpha  occ. eigenvalues --   -0.26520  -0.26192  -0.26013  -0.25709  -0.25294
 Alpha  occ. eigenvalues --   -0.25260  -0.24990  -0.24538  -0.23588  -0.23498
 Alpha  occ. eigenvalues --   -0.23432  -0.22609  -0.22314  -0.21622  -0.20474
 Alpha  occ. eigenvalues --   -0.20095  -0.19961  -0.18777  -0.18030  -0.16876
 Alpha  occ. eigenvalues --   -0.15859
 Alpha virt. eigenvalues --   -0.11573  -0.06312  -0.05894  -0.04599  -0.04266
 Alpha virt. eigenvalues --   -0.03207  -0.02570  -0.01404  -0.01017   0.00300
 Alpha virt. eigenvalues --    0.01350   0.01499   0.01713   0.02458   0.02856

 Mulliken charges:
               1
     1  Mg   0.695847
     2  C   -0.016755
     3  C   -0.049056
     4  C   -0.066322
     5  C   -0.059088
     6  N   -0.222181
     7  C   -0.128232
     8  C    0.089173
     9  C   -0.011700
    10  C   -0.001083
    11  C    0.158559
    12  C    0.120384
    13  C    0.067961
    14  C    0.114862
    15  O   -0.233233
    16  O   -0.262508
    17  N   -0.293868
    18  C    0.163267
    19  C   -0.148659
    20  C    0.031256
    21  C    0.144233
    22  C    0.171802
    23  C   -0.105698
    24  O   -0.172090
    25  C    0.156859
    26  N   -0.231427
    27  C   -0.013145
    28  C   -0.003552
    29  C    0.047947
    30  C    0.009260
    31  C    0.140814
    32  C    0.145442
    33  C    0.072077
    34  N   -0.246074
    35  C    0.082010
    36  C   -0.192431
    37  C    0.099133
    38  C    0.092642
    39  C    0.171797
    40  C   -0.056557
    41  O   -0.141601
    42  C    0.021774
    43  C    0.151860
    44  O   -0.161934
    45  O   -0.265878
    46  C    0.216971
    47  C    0.311325
    48  C   -0.102011
    49  C   -0.195896
    50  C    0.164458
    51  C    0.123128
    52  C    0.065512
    53  C    0.077999
    54  C   -0.067953
    55  C    0.094940
    56  C    0.109406
    57  C    0.078451
    58  C    0.152050
    59  C   -0.103162
    60  C    0.126940
    61  C    0.061463
    62  C    0.042929
    63  C    0.099655
    64  C   -0.057994
    65  C    0.140536
    66  C    0.080034
    67  H   -0.066510
    68  H   -0.048803
    69  H   -0.056613
    70  H   -0.000571
    71  H   -0.033589
    72  H    0.010260
    73  H   -0.013957
    74  H    0.001354
    75  H   -0.017931
    76  H   -0.011637
    77  H   -0.002278
    78  H    0.019521
    79  H   -0.015249
    80  H    0.007513
    81  H   -0.010201
    82  H   -0.015070
    83  H    0.008975
    84  H    0.014776
    85  H   -0.029623
    86  H   -0.034949
    87  H    0.002447
    88  H   -0.017219
    89  H   -0.002193
    90  H   -0.010384
    91  H   -0.022301
    92  H   -0.027730
    93  H   -0.010865
    94  H   -0.005960
    95  H   -0.007568
    96  H   -0.003840
    97  H    0.006878
    98  H    0.014327
    99  H    0.009883
   100  H    0.014099
   101  H    0.009966
   102  H    0.006220
   103  H    0.009507
   104  H   -0.032090
   105  H    0.001012
   106  H   -0.007543
   107  H    0.013386
   108  H   -0.029445
   109  H   -0.027350
   110  H   -0.011968
   111  H   -0.019114
   112  H   -0.036144
   113  H   -0.021022
   114  H   -0.031073
   115  H   -0.016853
   116  H   -0.022152
   117  H   -0.026439
   118  H   -0.042786
   119  H   -0.041208
   120  H   -0.028905
   121  H   -0.032419
   122  H   -0.035482
   123  H   -0.034080
   124  H   -0.035828
   125  H   -0.034965
   126  H   -0.004274
   127  H   -0.033996
   128  H   -0.041117
   129  H   -0.031470
   130  H   -0.025704
   131  H   -0.029284
   132  H   -0.041041
   133  H   -0.042926
   134  H   -0.040482
   135  H   -0.030416
   136  H   -0.039189
   137  H    0.006579
   138  H   -0.017425
   139  H   -0.013478
   140  H   -0.018664
 Sum of Mulliken charges =  -0.00000

 Dipole moment (field-independent basis, Debye):
    X=             -4.1849    Y=              2.3067    Z=              3.0476  Tot=              5.6676
 Quadrupole moment (field-independent basis, Debye-Ang):
   XX=           -380.0851   YY=           -426.0815   ZZ=           -406.8177
   XY=            -14.8753   XZ=             24.4570   YZ=              2.4433

 Normal termination of Gaussian 16 at Thu May  5 10:11:42 2022.
