 Gaussian 16, Revision A.03,
 Gaussian 16:  ES64L-G16RevA.03 25-Dec-2016

 -----------------------------------
 #p cam-b3lyp/Def2SVP td=(nstates=5)
 -----------------------------------

 -------------------------------------------------------
 step_801_chromophore_19 TDDFT with cam-b3lyp functional
 -------------------------------------------------------
 Symbolic Z-matrix:
 Charge =  0 Multiplicity = 1

                         Standard orientation:
 ---------------------------------------------------------------------
 Center     Atomic      Atomic             Coordinates (Angstroms)
 Number     Number       Type             X           Y           Z
 ---------------------------------------------------------------------
      1         12           0        5.976585    0.347391    0.104429
      2          6           0        3.464996   -2.099326   -0.046260
      3          6           0        3.470028    2.714033   -0.420430
      4          6           0        8.338129    2.686695   -0.082887
      5          6           0        8.360557   -2.159825    0.591078
      6          7           0        3.702948    0.228531   -0.215300
      7          6           0        2.878760   -0.853348   -0.149599
      8          6           0        1.363769   -0.517075   -0.227663
      9          6           0        1.429790    1.005197   -0.741728
     10          6           0        2.935496    1.397904   -0.481393
     11          6           0        1.027953    1.286367   -2.215981
     12          6           0        0.592644   -0.940311    1.088770
     13          6           0       -0.710406   -1.814489    0.936247
     14          6           0       -1.801079   -1.341039   -0.021837
     15          8           0       -1.624432   -0.791350   -1.141262
     16          8           0       -3.045197   -1.656984    0.457686
     17          7           0        5.979261    2.403457   -0.076335
     18          6           0        4.824092    3.192259   -0.267938
     19          6           0        5.196331    4.583008   -0.308755
     20          6           0        6.684519    4.601870   -0.350213
     21          6           0        7.054294    3.186456   -0.191159
     22          6           0        4.169564    5.698796   -0.236287
     23          6           0        7.557923    5.850968   -0.479449
     24          8           0        8.752774    5.814446   -0.739374
     25          6           0        7.017780    7.163484   -0.275064
     26          7           0        8.056117    0.324398    0.192574
     27          6           0        8.811185    1.412783    0.113640
     28          6           0       10.254230    1.072691    0.384489
     29          6           0       10.210609   -0.388254    0.904654
     30          6           0        8.780004   -0.800710    0.535917
     31          6           0       11.183291    1.360697   -0.811366
     32          6           0       10.548737   -0.638946    2.388414
     33          6           0       11.458103   -1.788868    2.646008
     34          7           0        5.942683   -1.743254    0.188487
     35          6           0        6.980663   -2.653576    0.353447
     36          6           0        6.412721   -3.999653    0.414635
     37          6           0        5.032098   -3.830287    0.194916
     38          6           0        4.846815   -2.485904    0.056103
     39          6           0        7.168865   -5.248559    0.684144
     40          6           0        3.794945   -4.566330    0.018214
     41          8           0        3.610575   -5.792896   -0.014291
     42          6           0        2.698172   -3.472956   -0.118724
     43          6           0        1.960077   -3.696566   -1.393116
     44          8           0        1.996584   -3.000424   -2.370291
     45          8           0        0.948111   -4.590167   -1.137265
     46          6           0       -0.051845   -4.658239   -2.159645
     47          6           0       -4.168903   -1.372041   -0.416692
     48          6           0       -5.493835   -1.419906    0.279200
     49          6           0       -6.743964   -1.222749   -0.287679
     50          6           0       -7.030960   -1.108862   -1.742827
     51          6           0       -8.024275   -1.053012    0.627184
     52          6           0       -8.637049    0.349670    0.752442
     53          6           0       -8.613925    0.802673    2.260889
     54          6           0       -9.777461    1.774477    2.638926
     55          6           0       -9.200450    2.745836    3.654451
     56          6           0      -10.978813    0.995235    3.284823
     57          6           0      -12.420787    1.209747    2.693853
     58          6           0      -12.989933   -0.019937    1.990853
     59          6           0      -14.021813    0.330627    0.901480
     60          6           0      -15.405330   -0.322581    1.140983
     61          6           0      -13.454608   -0.095728   -0.485307
     62          6           0      -12.508206    1.032558   -1.064766
     63          6           0      -11.491826    0.404359   -2.030722
     64          6           0      -10.986326    1.471446   -2.970958
     65          6           0      -10.806585    0.833664   -4.338793
     66          6           0       -9.719493    2.149918   -2.417850
     67          1           0        2.691011    3.458757   -0.599368
     68          1           0        9.168457    3.389175    0.012071
     69          1           0        9.066111   -2.932399    0.901775
     70          1           0        1.021039   -1.161425   -1.037012
     71          1           0        0.806864    1.597071   -0.071837
     72          1           0        0.978631    0.329325   -2.736114
     73          1           0        1.835692    1.855075   -2.676835
     74          1           0        0.089744    1.840321   -2.251407
     75          1           0        0.275190   -0.081046    1.678152
     76          1           0        1.191167   -1.586826    1.730094
     77          1           0       -1.184390   -1.919113    1.912374
     78          1           0       -0.335046   -2.791007    0.629467
     79          1           0        4.477385    6.518470   -0.886128
     80          1           0        4.098706    6.138442    0.758075
     81          1           0        3.163280    5.406189   -0.533704
     82          1           0        7.894664    7.807341   -0.338756
     83          1           0        6.567049    7.162090    0.717186
     84          1           0        6.398772    7.502544   -1.105885
     85          1           0       10.532293    1.817248    1.130421
     86          1           0       10.758749   -1.026862    0.212027
     87          1           0       10.640149    2.173384   -1.293896
     88          1           0       11.197695    0.439666   -1.394785
     89          1           0       12.217433    1.590580   -0.554503
     90          1           0        9.572598   -0.685503    2.872259
     91          1           0       11.188672    0.171843    2.736278
     92          1           0       12.189398   -1.444072    3.377778
     93          1           0       12.084871   -2.067043    1.798346
     94          1           0       11.005042   -2.638266    3.157524
     95          1           0        6.468608   -5.992278    1.062261
     96          1           0        7.927256   -5.095243    1.452956
     97          1           0        7.547718   -5.717053   -0.223333
     98          1           0        2.062111   -3.482269    0.766479
     99          1           0        0.495239   -4.958036   -3.054689
    100          1           0       -0.559451   -3.714469   -2.359346
    101          1           0       -0.813720   -5.389119   -1.890911
    102          1           0       -4.109154   -2.061419   -1.259538
    103          1           0       -4.047629   -0.337195   -0.736511
    104          1           0       -5.424846   -1.518695    1.361780
    105          1           0       -8.086426   -1.299972   -1.932495
    106          1           0       -6.352844   -1.746089   -2.310233
    107          1           0       -6.802594   -0.089369   -2.052379
    108          1           0       -7.717231   -1.439080    1.599170
    109          1           0       -8.827070   -1.690395    0.256963
    110          1           0       -9.658232    0.373947    0.373081
    111          1           0       -8.103731    1.040944    0.101483
    112          1           0       -7.689521    1.375223    2.328118
    113          1           0       -8.586269    0.026309    3.025345
    114          1           0      -10.073687    2.325938    1.746396
    115          1           0       -8.467859    2.409841    4.388167
    116          1           0      -10.032389    3.172519    4.214926
    117          1           0       -8.642901    3.522490    3.131558
    118          1           0      -11.060999    1.215016    4.349270
    119          1           0      -10.649708   -0.044143    3.286449
    120          1           0      -12.418290    1.983571    1.926174
    121          1           0      -13.007052    1.601357    3.524481
    122          1           0      -13.481146   -0.754135    2.630206
    123          1           0      -12.141835   -0.506264    1.510030
    124          1           0      -14.207744    1.390152    0.722335
    125          1           0      -15.497947   -0.457072    2.218566
    126          1           0      -15.680677   -1.206475    0.566264
    127          1           0      -16.179496    0.433856    1.008437
    128          1           0      -14.268295   -0.187309   -1.204496
    129          1           0      -13.009907   -1.088062   -0.407350
    130          1           0      -12.047929    1.548295   -0.221914
    131          1           0      -13.153227    1.762207   -1.554734
    132          1           0      -11.967892   -0.462521   -2.488581
    133          1           0      -10.756939   -0.127996   -1.426403
    134          1           0      -11.732882    2.262713   -3.050131
    135          1           0      -10.254841   -0.076711   -4.102476
    136          1           0      -10.025828    1.402667   -4.842877
    137          1           0      -11.746355    0.688607   -4.872089
    138          1           0       -9.424055    2.935850   -3.114136
    139          1           0       -8.974887    1.381620   -2.209962
    140          1           0       -9.817688    2.736608   -1.504704
 ---------------------------------------------------------------------

 SCF Done:  E(RCAM-B3LYP) =  -3007.19360649     A.U. after   18 cycles

 Excitation energies and oscillator strengths:

 Excited State   1:      Singlet-A      1.7086 eV  725.66 nm  f=0.4056  <S**2>=0.000
     245 -> 248       -0.17874
     246 -> 247        0.68630
     245 <- 248       -0.10829
 This state for optimization and/or second-order correction.
 Total Energy, E(TD-HF/TD-DFT) =  -3007.13081795
 Copying the excited state density for this state as the 1-particle RhoCI density.

 Excited State   2:      Singlet-A      2.1637 eV  573.02 nm  f=0.1893  <S**2>=0.000
     245 -> 247        0.66429
     246 -> 248        0.23146

 Excited State   3:      Singlet-A      3.2947 eV  376.32 nm  f=0.0058  <S**2>=0.000
     242 -> 247        0.14908
     243 -> 247        0.59728
     244 -> 247       -0.31950

 Excited State   4:      Singlet-A      3.4362 eV  360.82 nm  f=0.0108  <S**2>=0.000
     242 -> 247        0.66489
     243 -> 247       -0.12414
     246 -> 248       -0.10215

 Excited State   5:      Singlet-A      3.5377 eV  350.47 nm  f=0.0002  <S**2>=0.000
     239 -> 247        0.39784
     239 -> 249       -0.25347
     239 -> 250        0.11762
     240 -> 247        0.39855
     240 -> 249       -0.23678
     240 -> 250        0.11283

 The electronic state is 1-A.
 Alpha  occ. eigenvalues --  -46.88281 -19.26125 -19.24674 -19.20579 -19.20511
 Alpha  occ. eigenvalues --  -19.18927 -19.18016 -14.42140 -14.41241 -14.39610
 Alpha  occ. eigenvalues --  -14.38917 -10.40714 -10.39429 -10.35063 -10.34249
 Alpha  occ. eigenvalues --  -10.32651 -10.31494 -10.31025 -10.30751 -10.30569
 Alpha  occ. eigenvalues --  -10.30459 -10.30228 -10.29967 -10.29729 -10.29222
 Alpha  occ. eigenvalues --  -10.28644 -10.28477 -10.28453 -10.28428 -10.28316
 Alpha  occ. eigenvalues --  -10.28125 -10.28009 -10.27964 -10.27594 -10.27555
 Alpha  occ. eigenvalues --  -10.27453 -10.27440 -10.27263 -10.26771 -10.26765
 Alpha  occ. eigenvalues --  -10.26676 -10.26286 -10.26121 -10.26001 -10.25900
 Alpha  occ. eigenvalues --  -10.25861 -10.25553 -10.25451 -10.25327 -10.25317
 Alpha  occ. eigenvalues --  -10.25313 -10.25275 -10.25206 -10.25127 -10.25116
 Alpha  occ. eigenvalues --  -10.25071 -10.25040 -10.24998 -10.24884 -10.24756
 Alpha  occ. eigenvalues --  -10.24647 -10.24602 -10.24577 -10.24417 -10.24326
 Alpha  occ. eigenvalues --  -10.24245  -3.16798  -1.91718  -1.91229  -1.91121
 Alpha  occ. eigenvalues --   -1.17456  -1.16867  -1.09737  -1.08995  -1.08689
 Alpha  occ. eigenvalues --   -1.07211  -1.04194  -1.03496  -1.02562  -1.01391
 Alpha  occ. eigenvalues --   -0.92027  -0.90509  -0.90120  -0.89253  -0.89223
 Alpha  occ. eigenvalues --   -0.88672  -0.88327  -0.88037  -0.87090  -0.86611
 Alpha  occ. eigenvalues --   -0.85714  -0.85411  -0.84383  -0.83880  -0.83433
 Alpha  occ. eigenvalues --   -0.82863  -0.82521  -0.81638  -0.81039  -0.80612
 Alpha  occ. eigenvalues --   -0.80069  -0.78122  -0.77832  -0.77217  -0.76188
 Alpha  occ. eigenvalues --   -0.75903  -0.75468  -0.74945  -0.74846  -0.74189
 Alpha  occ. eigenvalues --   -0.73551  -0.72492  -0.70968  -0.70456  -0.68736
 Alpha  occ. eigenvalues --   -0.68305  -0.68103  -0.66925  -0.66739  -0.65712
 Alpha  occ. eigenvalues --   -0.65548  -0.64821  -0.64522  -0.64379  -0.64108
 Alpha  occ. eigenvalues --   -0.63956  -0.63776  -0.62631  -0.61783  -0.60283
 Alpha  occ. eigenvalues --   -0.60220  -0.59358  -0.59022  -0.58909  -0.57933
 Alpha  occ. eigenvalues --   -0.57427  -0.56981  -0.56516  -0.55943  -0.55813
 Alpha  occ. eigenvalues --   -0.55179  -0.54939  -0.54824  -0.54393  -0.54264
 Alpha  occ. eigenvalues --   -0.53842  -0.53616  -0.53350  -0.53218  -0.53041
 Alpha  occ. eigenvalues --   -0.52994  -0.52646  -0.52307  -0.52157  -0.51780
 Alpha  occ. eigenvalues --   -0.51745  -0.51604  -0.51150  -0.51078  -0.50933
 Alpha  occ. eigenvalues --   -0.50173  -0.50020  -0.49804  -0.49675  -0.49599
 Alpha  occ. eigenvalues --   -0.49323  -0.48989  -0.48927  -0.48865  -0.48790
 Alpha  occ. eigenvalues --   -0.48610  -0.48583  -0.48156  -0.47923  -0.47618
 Alpha  occ. eigenvalues --   -0.47405  -0.47243  -0.47033  -0.46782  -0.46633
 Alpha  occ. eigenvalues --   -0.46462  -0.46416  -0.46333  -0.45818  -0.45808
 Alpha  occ. eigenvalues --   -0.45696  -0.45583  -0.45164  -0.45057  -0.44877
 Alpha  occ. eigenvalues --   -0.44782  -0.44486  -0.44134  -0.43989  -0.43677
 Alpha  occ. eigenvalues --   -0.43489  -0.43452  -0.43323  -0.43080  -0.43004
 Alpha  occ. eigenvalues --   -0.42855  -0.42272  -0.42227  -0.42132  -0.41901
 Alpha  occ. eigenvalues --   -0.41796  -0.41585  -0.41472  -0.41439  -0.41224
 Alpha  occ. eigenvalues --   -0.40992  -0.40722  -0.40651  -0.40303  -0.39850
 Alpha  occ. eigenvalues --   -0.39700  -0.39651  -0.39262  -0.39159  -0.38772
 Alpha  occ. eigenvalues --   -0.38738  -0.38625  -0.38265  -0.37994  -0.37879
 Alpha  occ. eigenvalues --   -0.37621  -0.37534  -0.36717  -0.36574  -0.36325
 Alpha  occ. eigenvalues --   -0.36186  -0.35775  -0.35068  -0.35038  -0.34594
 Alpha  occ. eigenvalues --   -0.34189  -0.33978  -0.32731  -0.30903  -0.30804
 Alpha  occ. eigenvalues --   -0.30624  -0.29655  -0.29512  -0.29507  -0.23520
 Alpha  occ. eigenvalues --   -0.21303
 Alpha virt. eigenvalues --   -0.08917  -0.00937   0.00565   0.02367   0.03345
 Alpha virt. eigenvalues --    0.03625   0.04588   0.04808   0.05819   0.06607
 Alpha virt. eigenvalues --    0.07590   0.08250   0.08561   0.09029   0.09146

 Mulliken charges:
               1
     1  Mg   0.829491
     2  C   -0.034052
     3  C   -0.063758
     4  C   -0.085111
     5  C   -0.064373
     6  N   -0.285958
     7  C   -0.090689
     8  C    0.040487
     9  C   -0.056465
    10  C    0.012274
    11  C    0.099588
    12  C    0.069132
    13  C    0.003180
    14  C    0.195482
    15  O   -0.274644
    16  O   -0.328073
    17  N   -0.383573
    18  C    0.169927
    19  C   -0.154646
    20  C   -0.037151
    21  C    0.170842
    22  C    0.117435
    23  C   -0.018500
    24  O   -0.211469
    25  C    0.063529
    26  N   -0.310352
    27  C    0.015165
    28  C   -0.059442
    29  C   -0.015900
    30  C    0.031685
    31  C    0.087509
    32  C    0.085639
    33  C    0.006463
    34  N   -0.334459
    35  C    0.082759
    36  C   -0.189808
    37  C    0.015543
    38  C    0.132621
    39  C    0.118805
    40  C    0.046217
    41  O   -0.180141
    42  C   -0.055340
    43  C    0.232576
    44  O   -0.196619
    45  O   -0.327234
    46  C    0.174456
    47  C    0.280307
    48  C   -0.125729
    49  C   -0.211717
    50  C    0.098281
    51  C    0.069996
    52  C    0.020289
    53  C    0.027123
    54  C   -0.123183
    55  C    0.036527
    56  C    0.052513
    57  C    0.026807
    58  C    0.095418
    59  C   -0.162134
    60  C    0.067313
    61  C    0.012718
    62  C    0.000251
    63  C    0.045171
    64  C   -0.124107
    65  C    0.079463
    66  C    0.033217
    67  H   -0.031116
    68  H   -0.010908
    69  H   -0.022162
    70  H    0.033187
    71  H    0.001036
    72  H    0.035351
    73  H    0.011863
    74  H    0.025673
    75  H    0.011602
    76  H    0.019075
    77  H    0.033560
    78  H    0.046158
    79  H    0.010493
    80  H    0.035419
    81  H    0.017996
    82  H    0.023481
    83  H    0.036625
    84  H    0.043681
    85  H    0.006063
    86  H    0.000874
    87  H    0.026400
    88  H    0.006642
    89  H    0.022680
    90  H    0.019575
    91  H    0.006603
    92  H   -0.002256
    93  H    0.013640
    94  H    0.017574
    95  H    0.019929
    96  H    0.018959
    97  H    0.032880
    98  H    0.053821
    99  H    0.034385
   100  H    0.034384
   101  H    0.034329
   102  H    0.031674
   103  H    0.038448
   104  H    0.003519
   105  H    0.022900
   106  H    0.018364
   107  H    0.036159
   108  H    0.000461
   109  H    0.001479
   110  H    0.005506
   111  H    0.006776
   112  H   -0.005754
   113  H    0.005665
   114  H   -0.002074
   115  H    0.007568
   116  H    0.002383
   117  H   -0.001007
   118  H   -0.011612
   119  H   -0.012237
   120  H   -0.003046
   121  H   -0.003226
   122  H   -0.005453
   123  H   -0.007585
   124  H   -0.003352
   125  H   -0.009573
   126  H    0.019730
   127  H   -0.007812
   128  H   -0.011008
   129  H   -0.004549
   130  H   -0.007543
   131  H   -0.000655
   132  H   -0.008623
   133  H   -0.020831
   134  H   -0.008064
   135  H   -0.008212
   136  H   -0.012136
   137  H    0.030941
   138  H    0.007833
   139  H    0.001275
   140  H    0.004602
 Sum of Mulliken charges =  -0.00000

 Dipole moment (field-independent basis, Debye):
    X=             -4.3974    Y=              3.1432    Z=              3.1859  Tot=              6.2742
 Quadrupole moment (field-independent basis, Debye-Ang):
   XX=           -380.0864   YY=           -421.7602   ZZ=           -406.8942
   XY=            -10.8205   XZ=             25.0319   YZ=              2.2786

 Normal termination of Gaussian 16 at Thu May  5 09:08:35 2022.
