 Gaussian 16, Revision A.03,
 Gaussian 16:  ES64L-G16RevA.03 25-Dec-2016

 ---------------------------------
 #p PBE1PBE/Def2SVP td=(nstates=5)
 ---------------------------------

 -----------------------------------------------------
 step_801_chromophore_19 TDDFT with PBE1PBE functional
 -----------------------------------------------------
 Symbolic Z-matrix:
 Charge =  0 Multiplicity = 1

                         Standard orientation:
 ---------------------------------------------------------------------
 Center     Atomic      Atomic             Coordinates (Angstroms)
 Number     Number       Type             X           Y           Z
 ---------------------------------------------------------------------
      1         12           0        5.976585    0.347391    0.104429
      2          6           0        3.464996   -2.099326   -0.046260
      3          6           0        3.470028    2.714033   -0.420430
      4          6           0        8.338129    2.686695   -0.082887
      5          6           0        8.360557   -2.159825    0.591078
      6          7           0        3.702948    0.228531   -0.215300
      7          6           0        2.878760   -0.853348   -0.149599
      8          6           0        1.363769   -0.517075   -0.227663
      9          6           0        1.429790    1.005197   -0.741728
     10          6           0        2.935496    1.397904   -0.481393
     11          6           0        1.027953    1.286367   -2.215981
     12          6           0        0.592644   -0.940311    1.088770
     13          6           0       -0.710406   -1.814489    0.936247
     14          6           0       -1.801079   -1.341039   -0.021837
     15          8           0       -1.624432   -0.791350   -1.141262
     16          8           0       -3.045197   -1.656984    0.457686
     17          7           0        5.979261    2.403457   -0.076335
     18          6           0        4.824092    3.192259   -0.267938
     19          6           0        5.196331    4.583008   -0.308755
     20          6           0        6.684519    4.601870   -0.350213
     21          6           0        7.054294    3.186456   -0.191159
     22          6           0        4.169564    5.698796   -0.236287
     23          6           0        7.557923    5.850968   -0.479449
     24          8           0        8.752774    5.814446   -0.739374
     25          6           0        7.017780    7.163484   -0.275064
     26          7           0        8.056117    0.324398    0.192574
     27          6           0        8.811185    1.412783    0.113640
     28          6           0       10.254230    1.072691    0.384489
     29          6           0       10.210609   -0.388254    0.904654
     30          6           0        8.780004   -0.800710    0.535917
     31          6           0       11.183291    1.360697   -0.811366
     32          6           0       10.548737   -0.638946    2.388414
     33          6           0       11.458103   -1.788868    2.646008
     34          7           0        5.942683   -1.743254    0.188487
     35          6           0        6.980663   -2.653576    0.353447
     36          6           0        6.412721   -3.999653    0.414635
     37          6           0        5.032098   -3.830287    0.194916
     38          6           0        4.846815   -2.485904    0.056103
     39          6           0        7.168865   -5.248559    0.684144
     40          6           0        3.794945   -4.566330    0.018214
     41          8           0        3.610575   -5.792896   -0.014291
     42          6           0        2.698172   -3.472956   -0.118724
     43          6           0        1.960077   -3.696566   -1.393116
     44          8           0        1.996584   -3.000424   -2.370291
     45          8           0        0.948111   -4.590167   -1.137265
     46          6           0       -0.051845   -4.658239   -2.159645
     47          6           0       -4.168903   -1.372041   -0.416692
     48          6           0       -5.493835   -1.419906    0.279200
     49          6           0       -6.743964   -1.222749   -0.287679
     50          6           0       -7.030960   -1.108862   -1.742827
     51          6           0       -8.024275   -1.053012    0.627184
     52          6           0       -8.637049    0.349670    0.752442
     53          6           0       -8.613925    0.802673    2.260889
     54          6           0       -9.777461    1.774477    2.638926
     55          6           0       -9.200450    2.745836    3.654451
     56          6           0      -10.978813    0.995235    3.284823
     57          6           0      -12.420787    1.209747    2.693853
     58          6           0      -12.989933   -0.019937    1.990853
     59          6           0      -14.021813    0.330627    0.901480
     60          6           0      -15.405330   -0.322581    1.140983
     61          6           0      -13.454608   -0.095728   -0.485307
     62          6           0      -12.508206    1.032558   -1.064766
     63          6           0      -11.491826    0.404359   -2.030722
     64          6           0      -10.986326    1.471446   -2.970958
     65          6           0      -10.806585    0.833664   -4.338793
     66          6           0       -9.719493    2.149918   -2.417850
     67          1           0        2.691011    3.458757   -0.599368
     68          1           0        9.168457    3.389175    0.012071
     69          1           0        9.066111   -2.932399    0.901775
     70          1           0        1.021039   -1.161425   -1.037012
     71          1           0        0.806864    1.597071   -0.071837
     72          1           0        0.978631    0.329325   -2.736114
     73          1           0        1.835692    1.855075   -2.676835
     74          1           0        0.089744    1.840321   -2.251407
     75          1           0        0.275190   -0.081046    1.678152
     76          1           0        1.191167   -1.586826    1.730094
     77          1           0       -1.184390   -1.919113    1.912374
     78          1           0       -0.335046   -2.791007    0.629467
     79          1           0        4.477385    6.518470   -0.886128
     80          1           0        4.098706    6.138442    0.758075
     81          1           0        3.163280    5.406189   -0.533704
     82          1           0        7.894664    7.807341   -0.338756
     83          1           0        6.567049    7.162090    0.717186
     84          1           0        6.398772    7.502544   -1.105885
     85          1           0       10.532293    1.817248    1.130421
     86          1           0       10.758749   -1.026862    0.212027
     87          1           0       10.640149    2.173384   -1.293896
     88          1           0       11.197695    0.439666   -1.394785
     89          1           0       12.217433    1.590580   -0.554503
     90          1           0        9.572598   -0.685503    2.872259
     91          1           0       11.188672    0.171843    2.736278
     92          1           0       12.189398   -1.444072    3.377778
     93          1           0       12.084871   -2.067043    1.798346
     94          1           0       11.005042   -2.638266    3.157524
     95          1           0        6.468608   -5.992278    1.062261
     96          1           0        7.927256   -5.095243    1.452956
     97          1           0        7.547718   -5.717053   -0.223333
     98          1           0        2.062111   -3.482269    0.766479
     99          1           0        0.495239   -4.958036   -3.054689
    100          1           0       -0.559451   -3.714469   -2.359346
    101          1           0       -0.813720   -5.389119   -1.890911
    102          1           0       -4.109154   -2.061419   -1.259538
    103          1           0       -4.047629   -0.337195   -0.736511
    104          1           0       -5.424846   -1.518695    1.361780
    105          1           0       -8.086426   -1.299972   -1.932495
    106          1           0       -6.352844   -1.746089   -2.310233
    107          1           0       -6.802594   -0.089369   -2.052379
    108          1           0       -7.717231   -1.439080    1.599170
    109          1           0       -8.827070   -1.690395    0.256963
    110          1           0       -9.658232    0.373947    0.373081
    111          1           0       -8.103731    1.040944    0.101483
    112          1           0       -7.689521    1.375223    2.328118
    113          1           0       -8.586269    0.026309    3.025345
    114          1           0      -10.073687    2.325938    1.746396
    115          1           0       -8.467859    2.409841    4.388167
    116          1           0      -10.032389    3.172519    4.214926
    117          1           0       -8.642901    3.522490    3.131558
    118          1           0      -11.060999    1.215016    4.349270
    119          1           0      -10.649708   -0.044143    3.286449
    120          1           0      -12.418290    1.983571    1.926174
    121          1           0      -13.007052    1.601357    3.524481
    122          1           0      -13.481146   -0.754135    2.630206
    123          1           0      -12.141835   -0.506264    1.510030
    124          1           0      -14.207744    1.390152    0.722335
    125          1           0      -15.497947   -0.457072    2.218566
    126          1           0      -15.680677   -1.206475    0.566264
    127          1           0      -16.179496    0.433856    1.008437
    128          1           0      -14.268295   -0.187309   -1.204496
    129          1           0      -13.009907   -1.088062   -0.407350
    130          1           0      -12.047929    1.548295   -0.221914
    131          1           0      -13.153227    1.762207   -1.554734
    132          1           0      -11.967892   -0.462521   -2.488581
    133          1           0      -10.756939   -0.127996   -1.426403
    134          1           0      -11.732882    2.262713   -3.050131
    135          1           0      -10.254841   -0.076711   -4.102476
    136          1           0      -10.025828    1.402667   -4.842877
    137          1           0      -11.746355    0.688607   -4.872089
    138          1           0       -9.424055    2.935850   -3.114136
    139          1           0       -8.974887    1.381620   -2.209962
    140          1           0       -9.817688    2.736608   -1.504704
 ---------------------------------------------------------------------

 SCF Done:  E(RPBE1PBE) =  -3005.38269696     A.U. after   15 cycles

 Excitation energies and oscillator strengths:

 Excited State   1:      Singlet-A      1.8668 eV  664.15 nm  f=0.3897  <S**2>=0.000
     245 -> 248       -0.17150
     246 -> 247        0.69300
     246 <- 247       -0.10946
 This state for optimization and/or second-order correction.
 Total Energy, E(TD-HF/TD-DFT) =  -3005.31409264
 Copying the excited state density for this state as the 1-particle RhoCI density.

 Excited State   2:      Singlet-A      2.1792 eV  568.95 nm  f=0.1705  <S**2>=0.000
     245 -> 247        0.67042
     246 -> 248        0.21027

 Excited State   3:      Singlet-A      2.9420 eV  421.43 nm  f=0.0041  <S**2>=0.000
     241 -> 247        0.15202
     242 -> 247        0.18073
     243 -> 247        0.64796

 Excited State   4:      Singlet-A      3.0095 eV  411.97 nm  f=0.0022  <S**2>=0.000
     241 -> 247        0.14059
     242 -> 247        0.63753
     243 -> 247       -0.23268

 Excited State   5:      Singlet-A      3.0326 eV  408.84 nm  f=0.0006  <S**2>=0.000
     240 -> 247        0.63164
     240 -> 249       -0.17943
     241 -> 247        0.23356

 The electronic state is 1-A.
 Alpha  occ. eigenvalues --  -46.91693 -19.26811 -19.25305 -19.20860 -19.20699
 Alpha  occ. eigenvalues --  -19.19237 -19.18145 -14.41560 -14.40834 -14.39215
 Alpha  occ. eigenvalues --  -14.38650 -10.37745 -10.36406 -10.32278 -10.31261
 Alpha  occ. eigenvalues --  -10.30043 -10.29170 -10.28621 -10.28266 -10.28228
 Alpha  occ. eigenvalues --  -10.28150 -10.27715 -10.27682 -10.27554 -10.26727
 Alpha  occ. eigenvalues --  -10.26197 -10.26156 -10.26148 -10.26125 -10.26093
 Alpha  occ. eigenvalues --  -10.25918 -10.25682 -10.25482 -10.25349 -10.25344
 Alpha  occ. eigenvalues --  -10.25240 -10.25230 -10.24666 -10.24581 -10.24570
 Alpha  occ. eigenvalues --  -10.24222 -10.23683 -10.23655 -10.23654 -10.23609
 Alpha  occ. eigenvalues --  -10.23400 -10.23202 -10.22985 -10.22940 -10.22912
 Alpha  occ. eigenvalues --  -10.22859 -10.22798 -10.22741 -10.22560 -10.22553
 Alpha  occ. eigenvalues --  -10.22534 -10.22528 -10.22467 -10.22424 -10.22294
 Alpha  occ. eigenvalues --  -10.22258 -10.22234 -10.22157 -10.21957 -10.21723
 Alpha  occ. eigenvalues --  -10.21647  -3.13791  -1.86653  -1.86140  -1.86037
 Alpha  occ. eigenvalues --   -1.12205  -1.11686  -1.04382  -1.03810  -1.03486
 Alpha  occ. eigenvalues --   -1.02036  -0.98865  -0.98259  -0.97138  -0.95949
 Alpha  occ. eigenvalues --   -0.86415  -0.84586  -0.84235  -0.83531  -0.83372
 Alpha  occ. eigenvalues --   -0.82830  -0.82619  -0.82163  -0.81407  -0.80872
 Alpha  occ. eigenvalues --   -0.80031  -0.79621  -0.78579  -0.78199  -0.77687
 Alpha  occ. eigenvalues --   -0.77072  -0.76661  -0.75852  -0.75356  -0.74761
 Alpha  occ. eigenvalues --   -0.74412  -0.72369  -0.72103  -0.71566  -0.70280
 Alpha  occ. eigenvalues --   -0.70233  -0.69666  -0.69296  -0.68984  -0.68363
 Alpha  occ. eigenvalues --   -0.67870  -0.66973  -0.65383  -0.64763  -0.63144
 Alpha  occ. eigenvalues --   -0.62717  -0.62401  -0.61277  -0.61005  -0.60000
 Alpha  occ. eigenvalues --   -0.59904  -0.59256  -0.58971  -0.58668  -0.58627
 Alpha  occ. eigenvalues --   -0.58335  -0.58014  -0.56830  -0.56383  -0.54754
 Alpha  occ. eigenvalues --   -0.54642  -0.53909  -0.53559  -0.53354  -0.52532
 Alpha  occ. eigenvalues --   -0.52004  -0.51305  -0.50995  -0.50479  -0.50349
 Alpha  occ. eigenvalues --   -0.49707  -0.49362  -0.49240  -0.48947  -0.48891
 Alpha  occ. eigenvalues --   -0.48251  -0.48106  -0.47839  -0.47576  -0.47480
 Alpha  occ. eigenvalues --   -0.47446  -0.47195  -0.46960  -0.46736  -0.46401
 Alpha  occ. eigenvalues --   -0.46244  -0.46098  -0.45737  -0.45620  -0.45559
 Alpha  occ. eigenvalues --   -0.44951  -0.44547  -0.44278  -0.44269  -0.44167
 Alpha  occ. eigenvalues --   -0.43883  -0.43642  -0.43504  -0.43458  -0.43359
 Alpha  occ. eigenvalues --   -0.43195  -0.43123  -0.42785  -0.42589  -0.42249
 Alpha  occ. eigenvalues --   -0.42079  -0.41935  -0.41682  -0.41443  -0.41291
 Alpha  occ. eigenvalues --   -0.41203  -0.41059  -0.40914  -0.40600  -0.40473
 Alpha  occ. eigenvalues --   -0.40448  -0.40325  -0.39835  -0.39766  -0.39594
 Alpha  occ. eigenvalues --   -0.39537  -0.39286  -0.38843  -0.38762  -0.38536
 Alpha  occ. eigenvalues --   -0.38262  -0.38234  -0.38137  -0.37898  -0.37727
 Alpha  occ. eigenvalues --   -0.37609  -0.37080  -0.37006  -0.36828  -0.36695
 Alpha  occ. eigenvalues --   -0.36607  -0.36390  -0.36329  -0.36251  -0.35969
 Alpha  occ. eigenvalues --   -0.35924  -0.35502  -0.35474  -0.35083  -0.34805
 Alpha  occ. eigenvalues --   -0.34596  -0.34503  -0.34224  -0.34107  -0.33716
 Alpha  occ. eigenvalues --   -0.33518  -0.33416  -0.33030  -0.32880  -0.32748
 Alpha  occ. eigenvalues --   -0.32587  -0.32301  -0.31712  -0.31557  -0.31199
 Alpha  occ. eigenvalues --   -0.31137  -0.30754  -0.29966  -0.29827  -0.29626
 Alpha  occ. eigenvalues --   -0.29177  -0.28959  -0.28393  -0.26538  -0.25759
 Alpha  occ. eigenvalues --   -0.25409  -0.25304  -0.24992  -0.24813  -0.20514
 Alpha  occ. eigenvalues --   -0.18875
 Alpha virt. eigenvalues --   -0.11278  -0.04533  -0.03660  -0.01971  -0.01182
 Alpha virt. eigenvalues --   -0.00124   0.00386   0.00977   0.01699   0.03028
 Alpha virt. eigenvalues --    0.04089   0.04298   0.04836   0.05278   0.05787

 Mulliken charges:
               1
     1  Mg   0.981982
     2  C   -0.048315
     3  C   -0.061563
     4  C   -0.069438
     5  C   -0.054245
     6  N   -0.382760
     7  C   -0.022095
     8  C   -0.021182
     9  C   -0.132247
    10  C    0.044283
    11  C    0.042246
    12  C    0.018588
    13  C   -0.080337
    14  C    0.261147
    15  O   -0.305527
    16  O   -0.361371
    17  N   -0.500866
    18  C    0.186456
    19  C   -0.177128
    20  C   -0.083617
    21  C    0.193641
    22  C    0.057379
    23  C    0.033060
    24  O   -0.248579
    25  C   -0.012395
    26  N   -0.419754
    27  C    0.055193
    28  C   -0.134309
    29  C   -0.092303
    30  C    0.063224
    31  C    0.029113
    32  C    0.020550
    33  C   -0.063889
    34  N   -0.459679
    35  C    0.110669
    36  C   -0.211450
    37  C   -0.033055
    38  C    0.186683
    39  C    0.065723
    40  C    0.143590
    41  O   -0.225695
    42  C   -0.159037
    43  C    0.313553
    44  O   -0.230905
    45  O   -0.358410
    46  C    0.117618
    47  C    0.245273
    48  C   -0.139836
    49  C   -0.252482
    50  C    0.031741
    51  C    0.008096
    52  C   -0.052788
    53  C   -0.024558
    54  C   -0.215180
    55  C   -0.023417
    56  C    0.003369
    57  C   -0.036125
    58  C    0.037519
    59  C   -0.249108
    60  C    0.007934
    61  C   -0.040849
    62  C   -0.063498
    63  C   -0.010985
    64  C   -0.224616
    65  C    0.013778
    66  C   -0.029992
    67  H    0.001292
    68  H    0.020618
    69  H    0.011440
    70  H    0.078144
    71  H    0.038280
    72  H    0.061758
    73  H    0.040699
    74  H    0.052128
    75  H    0.044557
    76  H    0.052207
    77  H    0.064939
    78  H    0.082983
    79  H    0.038528
    80  H    0.062209
    81  H    0.044268
    82  H    0.051103
    83  H    0.063547
    84  H    0.069431
    85  H    0.043513
    86  H    0.037961
    87  H    0.054787
    88  H    0.035043
    89  H    0.050005
    90  H    0.052417
    91  H    0.040600
    92  H    0.026407
    93  H    0.040630
    94  H    0.044670
    95  H    0.049162
    96  H    0.045591
    97  H    0.061603
    98  H    0.091344
    99  H    0.057091
   100  H    0.057167
   101  H    0.056597
   102  H    0.057168
   103  H    0.065283
   104  H    0.033172
   105  H    0.050694
   106  H    0.046440
   107  H    0.062864
   108  H    0.032651
   109  H    0.034457
   110  H    0.048867
   111  H    0.039871
   112  H    0.029251
   113  H    0.035208
   114  H    0.035740
   115  H    0.034862
   116  H    0.031163
   117  H    0.028009
   118  H    0.020396
   119  H    0.019642
   120  H    0.028592
   121  H    0.029463
   122  H    0.026613
   123  H    0.027387
   124  H    0.034646
   125  H    0.018800
   126  H    0.045721
   127  H    0.020872
   128  H    0.023318
   129  H    0.026961
   130  H    0.029575
   131  H    0.031754
   132  H    0.024483
   133  H    0.014758
   134  H    0.030372
   135  H    0.021330
   136  H    0.016978
   137  H    0.058249
   138  H    0.035670
   139  H    0.034517
   140  H    0.032658
 Sum of Mulliken charges =  -0.00000

 Dipole moment (field-independent basis, Debye):
    X=             -4.2450    Y=              2.8657    Z=              3.2835  Tot=              6.0839
 Quadrupole moment (field-independent basis, Debye-Ang):
   XX=           -372.8994   YY=           -419.3200   ZZ=           -404.2383
   XY=            -13.5339   XZ=             26.0509   YZ=              2.1164

 Normal termination of Gaussian 16 at Thu May  5 09:26:31 2022.
