 Gaussian 16, Revision A.03,
 Gaussian 16:  ES64L-G16RevA.03 25-Dec-2016

 --------------------------------
 #p wB97XD/Def2SVP td=(nstates=5)
 --------------------------------

 ----------------------------------------------------
 step_801_chromophore_19 TDDFT with wB97XD functional
 ----------------------------------------------------
 Symbolic Z-matrix:
 Charge =  0 Multiplicity = 1

                         Standard orientation:
 ---------------------------------------------------------------------
 Center     Atomic      Atomic             Coordinates (Angstroms)
 Number     Number       Type             X           Y           Z
 ---------------------------------------------------------------------
      1         12           0        5.976585    0.347391    0.104429
      2          6           0        3.464996   -2.099326   -0.046260
      3          6           0        3.470028    2.714033   -0.420430
      4          6           0        8.338129    2.686695   -0.082887
      5          6           0        8.360557   -2.159825    0.591078
      6          7           0        3.702948    0.228531   -0.215300
      7          6           0        2.878760   -0.853348   -0.149599
      8          6           0        1.363769   -0.517075   -0.227663
      9          6           0        1.429790    1.005197   -0.741728
     10          6           0        2.935496    1.397904   -0.481393
     11          6           0        1.027953    1.286367   -2.215981
     12          6           0        0.592644   -0.940311    1.088770
     13          6           0       -0.710406   -1.814489    0.936247
     14          6           0       -1.801079   -1.341039   -0.021837
     15          8           0       -1.624432   -0.791350   -1.141262
     16          8           0       -3.045197   -1.656984    0.457686
     17          7           0        5.979261    2.403457   -0.076335
     18          6           0        4.824092    3.192259   -0.267938
     19          6           0        5.196331    4.583008   -0.308755
     20          6           0        6.684519    4.601870   -0.350213
     21          6           0        7.054294    3.186456   -0.191159
     22          6           0        4.169564    5.698796   -0.236287
     23          6           0        7.557923    5.850968   -0.479449
     24          8           0        8.752774    5.814446   -0.739374
     25          6           0        7.017780    7.163484   -0.275064
     26          7           0        8.056117    0.324398    0.192574
     27          6           0        8.811185    1.412783    0.113640
     28          6           0       10.254230    1.072691    0.384489
     29          6           0       10.210609   -0.388254    0.904654
     30          6           0        8.780004   -0.800710    0.535917
     31          6           0       11.183291    1.360697   -0.811366
     32          6           0       10.548737   -0.638946    2.388414
     33          6           0       11.458103   -1.788868    2.646008
     34          7           0        5.942683   -1.743254    0.188487
     35          6           0        6.980663   -2.653576    0.353447
     36          6           0        6.412721   -3.999653    0.414635
     37          6           0        5.032098   -3.830287    0.194916
     38          6           0        4.846815   -2.485904    0.056103
     39          6           0        7.168865   -5.248559    0.684144
     40          6           0        3.794945   -4.566330    0.018214
     41          8           0        3.610575   -5.792896   -0.014291
     42          6           0        2.698172   -3.472956   -0.118724
     43          6           0        1.960077   -3.696566   -1.393116
     44          8           0        1.996584   -3.000424   -2.370291
     45          8           0        0.948111   -4.590167   -1.137265
     46          6           0       -0.051845   -4.658239   -2.159645
     47          6           0       -4.168903   -1.372041   -0.416692
     48          6           0       -5.493835   -1.419906    0.279200
     49          6           0       -6.743964   -1.222749   -0.287679
     50          6           0       -7.030960   -1.108862   -1.742827
     51          6           0       -8.024275   -1.053012    0.627184
     52          6           0       -8.637049    0.349670    0.752442
     53          6           0       -8.613925    0.802673    2.260889
     54          6           0       -9.777461    1.774477    2.638926
     55          6           0       -9.200450    2.745836    3.654451
     56          6           0      -10.978813    0.995235    3.284823
     57          6           0      -12.420787    1.209747    2.693853
     58          6           0      -12.989933   -0.019937    1.990853
     59          6           0      -14.021813    0.330627    0.901480
     60          6           0      -15.405330   -0.322581    1.140983
     61          6           0      -13.454608   -0.095728   -0.485307
     62          6           0      -12.508206    1.032558   -1.064766
     63          6           0      -11.491826    0.404359   -2.030722
     64          6           0      -10.986326    1.471446   -2.970958
     65          6           0      -10.806585    0.833664   -4.338793
     66          6           0       -9.719493    2.149918   -2.417850
     67          1           0        2.691011    3.458757   -0.599368
     68          1           0        9.168457    3.389175    0.012071
     69          1           0        9.066111   -2.932399    0.901775
     70          1           0        1.021039   -1.161425   -1.037012
     71          1           0        0.806864    1.597071   -0.071837
     72          1           0        0.978631    0.329325   -2.736114
     73          1           0        1.835692    1.855075   -2.676835
     74          1           0        0.089744    1.840321   -2.251407
     75          1           0        0.275190   -0.081046    1.678152
     76          1           0        1.191167   -1.586826    1.730094
     77          1           0       -1.184390   -1.919113    1.912374
     78          1           0       -0.335046   -2.791007    0.629467
     79          1           0        4.477385    6.518470   -0.886128
     80          1           0        4.098706    6.138442    0.758075
     81          1           0        3.163280    5.406189   -0.533704
     82          1           0        7.894664    7.807341   -0.338756
     83          1           0        6.567049    7.162090    0.717186
     84          1           0        6.398772    7.502544   -1.105885
     85          1           0       10.532293    1.817248    1.130421
     86          1           0       10.758749   -1.026862    0.212027
     87          1           0       10.640149    2.173384   -1.293896
     88          1           0       11.197695    0.439666   -1.394785
     89          1           0       12.217433    1.590580   -0.554503
     90          1           0        9.572598   -0.685503    2.872259
     91          1           0       11.188672    0.171843    2.736278
     92          1           0       12.189398   -1.444072    3.377778
     93          1           0       12.084871   -2.067043    1.798346
     94          1           0       11.005042   -2.638266    3.157524
     95          1           0        6.468608   -5.992278    1.062261
     96          1           0        7.927256   -5.095243    1.452956
     97          1           0        7.547718   -5.717053   -0.223333
     98          1           0        2.062111   -3.482269    0.766479
     99          1           0        0.495239   -4.958036   -3.054689
    100          1           0       -0.559451   -3.714469   -2.359346
    101          1           0       -0.813720   -5.389119   -1.890911
    102          1           0       -4.109154   -2.061419   -1.259538
    103          1           0       -4.047629   -0.337195   -0.736511
    104          1           0       -5.424846   -1.518695    1.361780
    105          1           0       -8.086426   -1.299972   -1.932495
    106          1           0       -6.352844   -1.746089   -2.310233
    107          1           0       -6.802594   -0.089369   -2.052379
    108          1           0       -7.717231   -1.439080    1.599170
    109          1           0       -8.827070   -1.690395    0.256963
    110          1           0       -9.658232    0.373947    0.373081
    111          1           0       -8.103731    1.040944    0.101483
    112          1           0       -7.689521    1.375223    2.328118
    113          1           0       -8.586269    0.026309    3.025345
    114          1           0      -10.073687    2.325938    1.746396
    115          1           0       -8.467859    2.409841    4.388167
    116          1           0      -10.032389    3.172519    4.214926
    117          1           0       -8.642901    3.522490    3.131558
    118          1           0      -11.060999    1.215016    4.349270
    119          1           0      -10.649708   -0.044143    3.286449
    120          1           0      -12.418290    1.983571    1.926174
    121          1           0      -13.007052    1.601357    3.524481
    122          1           0      -13.481146   -0.754135    2.630206
    123          1           0      -12.141835   -0.506264    1.510030
    124          1           0      -14.207744    1.390152    0.722335
    125          1           0      -15.497947   -0.457072    2.218566
    126          1           0      -15.680677   -1.206475    0.566264
    127          1           0      -16.179496    0.433856    1.008437
    128          1           0      -14.268295   -0.187309   -1.204496
    129          1           0      -13.009907   -1.088062   -0.407350
    130          1           0      -12.047929    1.548295   -0.221914
    131          1           0      -13.153227    1.762207   -1.554734
    132          1           0      -11.967892   -0.462521   -2.488581
    133          1           0      -10.756939   -0.127996   -1.426403
    134          1           0      -11.732882    2.262713   -3.050131
    135          1           0      -10.254841   -0.076711   -4.102476
    136          1           0      -10.025828    1.402667   -4.842877
    137          1           0      -11.746355    0.688607   -4.872089
    138          1           0       -9.424055    2.935850   -3.114136
    139          1           0       -8.974887    1.381620   -2.209962
    140          1           0       -9.817688    2.736608   -1.504704
 ---------------------------------------------------------------------

 SCF Done:  E(RwB97XD) =  -3007.89536077     A.U. after   19 cycles

 Excitation energies and oscillator strengths:

 Excited State   1:      Singlet-A      1.6509 eV  751.00 nm  f=0.4045  <S**2>=0.000
     245 -> 248       -0.18424
     246 -> 247        0.68416
     245 <- 248       -0.11754
 This state for optimization and/or second-order correction.
 Total Energy, E(TD-HF/TD-DFT) =  -3007.83469075
 Copying the excited state density for this state as the 1-particle RhoCI density.

 Excited State   2:      Singlet-A      2.1097 eV  587.68 nm  f=0.1833  <S**2>=0.000
     245 -> 247        0.66165
     246 -> 248        0.23589

 Excited State   3:      Singlet-A      3.3183 eV  373.63 nm  f=0.0050  <S**2>=0.000
     242 -> 247       -0.28222
     243 -> 247        0.62461

 Excited State   4:      Singlet-A      3.4744 eV  356.85 nm  f=0.0068  <S**2>=0.000
     242 -> 247        0.60794
     243 -> 247        0.28358
     246 -> 248       -0.13612

 Excited State   5:      Singlet-A      3.5780 eV  346.52 nm  f=0.0007  <S**2>=0.000
     240 -> 247        0.53938
     240 -> 249       -0.36436
     240 -> 250        0.18024

 The electronic state is 1-A.
 Alpha  occ. eigenvalues --  -46.94621 -19.31367 -19.29876 -19.25510 -19.25407
 Alpha  occ. eigenvalues --  -19.23976 -19.23065 -14.46793 -14.45801 -14.44240
 Alpha  occ. eigenvalues --  -14.43504 -10.44521 -10.43241 -10.39077 -10.38219
 Alpha  occ. eigenvalues --  -10.36531 -10.35591 -10.34753 -10.34734 -10.34683
 Alpha  occ. eigenvalues --  -10.34466 -10.34284 -10.33972 -10.33748 -10.33447
 Alpha  occ. eigenvalues --  -10.32568 -10.32529 -10.32497 -10.32453 -10.32426
 Alpha  occ. eigenvalues --  -10.32084 -10.32079 -10.32042 -10.31760 -10.31707
 Alpha  occ. eigenvalues --  -10.31533 -10.31470 -10.31243 -10.30800 -10.30784
 Alpha  occ. eigenvalues --  -10.30634 -10.30118 -10.30077 -10.29899 -10.29888
 Alpha  occ. eigenvalues --  -10.29816 -10.29501 -10.29303 -10.29282 -10.29254
 Alpha  occ. eigenvalues --  -10.29209 -10.29154 -10.29130 -10.29127 -10.28978
 Alpha  occ. eigenvalues --  -10.28939 -10.28887 -10.28868 -10.28827 -10.28672
 Alpha  occ. eigenvalues --  -10.28588 -10.28539 -10.28422 -10.28398 -10.28163
 Alpha  occ. eigenvalues --  -10.28072  -3.20578  -1.94187  -1.93677  -1.93571
 Alpha  occ. eigenvalues --   -1.19593  -1.19058  -1.11971  -1.11169  -1.10912
 Alpha  occ. eigenvalues --   -1.09387  -1.06181  -1.05515  -1.04620  -1.03419
 Alpha  occ. eigenvalues --   -0.94002  -0.92275  -0.91917  -0.91093  -0.91043
 Alpha  occ. eigenvalues --   -0.90506  -0.90245  -0.89830  -0.89011  -0.88557
 Alpha  occ. eigenvalues --   -0.87647  -0.87307  -0.86251  -0.85749  -0.85335
 Alpha  occ. eigenvalues --   -0.84733  -0.84453  -0.83521  -0.82956  -0.82437
 Alpha  occ. eigenvalues --   -0.82038  -0.80110  -0.79739  -0.79134  -0.77983
 Alpha  occ. eigenvalues --   -0.77842  -0.77332  -0.76885  -0.76662  -0.76027
 Alpha  occ. eigenvalues --   -0.75481  -0.74468  -0.72940  -0.72390  -0.70633
 Alpha  occ. eigenvalues --   -0.70261  -0.70022  -0.68894  -0.68655  -0.67566
 Alpha  occ. eigenvalues --   -0.67443  -0.66794  -0.66394  -0.66342  -0.66111
 Alpha  occ. eigenvalues --   -0.65850  -0.65662  -0.64467  -0.63763  -0.62279
 Alpha  occ. eigenvalues --   -0.62165  -0.61320  -0.60963  -0.60860  -0.59909
 Alpha  occ. eigenvalues --   -0.59388  -0.58823  -0.58427  -0.57887  -0.57813
 Alpha  occ. eigenvalues --   -0.57106  -0.56824  -0.56769  -0.56307  -0.56213
 Alpha  occ. eigenvalues --   -0.55696  -0.55505  -0.55291  -0.55117  -0.54945
 Alpha  occ. eigenvalues --   -0.54866  -0.54577  -0.54238  -0.54098  -0.53688
 Alpha  occ. eigenvalues --   -0.53630  -0.53474  -0.53065  -0.52998  -0.52865
 Alpha  occ. eigenvalues --   -0.52111  -0.51957  -0.51754  -0.51568  -0.51492
 Alpha  occ. eigenvalues --   -0.51238  -0.50962  -0.50838  -0.50807  -0.50697
 Alpha  occ. eigenvalues --   -0.50535  -0.50455  -0.50060  -0.49841  -0.49538
 Alpha  occ. eigenvalues --   -0.49303  -0.49167  -0.48977  -0.48697  -0.48561
 Alpha  occ. eigenvalues --   -0.48399  -0.48301  -0.48182  -0.47748  -0.47673
 Alpha  occ. eigenvalues --   -0.47625  -0.47481  -0.47038  -0.46970  -0.46756
 Alpha  occ. eigenvalues --   -0.46693  -0.46417  -0.46018  -0.45947  -0.45591
 Alpha  occ. eigenvalues --   -0.45393  -0.45373  -0.45250  -0.45022  -0.44896
 Alpha  occ. eigenvalues --   -0.44772  -0.44172  -0.44138  -0.43994  -0.43808
 Alpha  occ. eigenvalues --   -0.43703  -0.43487  -0.43367  -0.43341  -0.43248
 Alpha  occ. eigenvalues --   -0.42937  -0.42573  -0.42540  -0.42160  -0.41761
 Alpha  occ. eigenvalues --   -0.41590  -0.41555  -0.41168  -0.41052  -0.40630
 Alpha  occ. eigenvalues --   -0.40610  -0.40470  -0.40096  -0.39845  -0.39805
 Alpha  occ. eigenvalues --   -0.39650  -0.39368  -0.38795  -0.38571  -0.38181
 Alpha  occ. eigenvalues --   -0.38159  -0.37632  -0.36971  -0.36879  -0.36515
 Alpha  occ. eigenvalues --   -0.36135  -0.35804  -0.34993  -0.33085  -0.32800
 Alpha  occ. eigenvalues --   -0.32593  -0.31836  -0.31701  -0.31552  -0.25432
 Alpha  occ. eigenvalues --   -0.23104
 Alpha virt. eigenvalues --   -0.07280   0.00978   0.02613   0.04499   0.05651
 Alpha virt. eigenvalues --    0.06493   0.06975   0.07045   0.08377   0.09249
 Alpha virt. eigenvalues --    0.10697   0.10824   0.11691   0.11848   0.12449

 Mulliken charges:
               1
     1  Mg   0.970554
     2  C   -0.043383
     3  C   -0.075209
     4  C   -0.097144
     5  C   -0.071909
     6  N   -0.350337
     7  C   -0.052117
     8  C    0.004922
     9  C   -0.106059
    10  C    0.033011
    11  C    0.051486
    12  C    0.027620
    13  C   -0.054361
    14  C    0.248121
    15  O   -0.301884
    16  O   -0.360113
    17  N   -0.468534
    18  C    0.181848
    19  C   -0.169355
    20  C   -0.080457
    21  C    0.193089
    22  C    0.071111
    23  C    0.032515
    24  O   -0.242473
    25  C   -0.003887
    26  N   -0.386861
    27  C    0.047134
    28  C   -0.112045
    29  C   -0.063407
    30  C    0.053530
    31  C    0.041422
    32  C    0.035152
    33  C   -0.049939
    34  N   -0.423283
    35  C    0.097331
    36  C   -0.206597
    37  C   -0.028867
    38  C    0.166860
    39  C    0.075452
    40  C    0.122924
    41  O   -0.215606
    42  C   -0.120196
    43  C    0.291994
    44  O   -0.224856
    45  O   -0.356856
    46  C    0.132667
    47  C    0.257519
    48  C   -0.148837
    49  C   -0.239292
    50  C    0.045645
    51  C    0.029569
    52  C   -0.018545
    53  C   -0.008970
    54  C   -0.183287
    55  C   -0.011057
    56  C    0.015263
    57  C   -0.017830
    58  C    0.055289
    59  C   -0.217932
    60  C    0.019349
    61  C   -0.025589
    62  C   -0.038143
    63  C    0.009136
    64  C   -0.190475
    65  C    0.028823
    66  C   -0.009033
    67  H   -0.005752
    68  H    0.014783
    69  H    0.004754
    70  H    0.053200
    71  H    0.028768
    72  H    0.058291
    73  H    0.033301
    74  H    0.048369
    75  H    0.037433
    76  H    0.043532
    77  H    0.061013
    78  H    0.069365
    79  H    0.031603
    80  H    0.058841
    81  H    0.041195
    82  H    0.050250
    83  H    0.058816
    84  H    0.065833
    85  H    0.033164
    86  H    0.024309
    87  H    0.047132
    88  H    0.028328
    89  H    0.045730
    90  H    0.044690
    91  H    0.031712
    92  H    0.020394
    93  H    0.034772
    94  H    0.039405
    95  H    0.043945
    96  H    0.039823
    97  H    0.056383
    98  H    0.081094
    99  H    0.052366
   100  H    0.053022
   101  H    0.053728
   102  H    0.052089
   103  H    0.059499
   104  H    0.031077
   105  H    0.044271
   106  H    0.041413
   107  H    0.056929
   108  H    0.023036
   109  H    0.026863
   110  H    0.019048
   111  H    0.028620
   112  H    0.019480
   113  H    0.025810
   114  H    0.022934
   115  H    0.028820
   116  H    0.024253
   117  H    0.021937
   118  H    0.013005
   119  H    0.009127
   120  H    0.016531
   121  H    0.023352
   122  H    0.019113
   123  H    0.011957
   124  H    0.021270
   125  H    0.011373
   126  H    0.041276
   127  H    0.015238
   128  H    0.014390
   129  H    0.017072
   130  H    0.008146
   131  H    0.023013
   132  H    0.014925
   133  H   -0.002216
   134  H    0.018817
   135  H    0.012062
   136  H    0.010716
   137  H    0.054156
   138  H    0.030147
   139  H    0.015731
   140  H    0.026515
 Sum of Mulliken charges =  -0.00000

 Dipole moment (field-independent basis, Debye):
    X=             -4.4372    Y=              3.3301    Z=              3.2329  Tot=              6.4210
 Quadrupole moment (field-independent basis, Debye-Ang):
   XX=           -375.0401   YY=           -417.2968   ZZ=           -403.8017
   XY=            -10.4102   XZ=             25.6885   YZ=              2.1732

 Normal termination of Gaussian 16 at Thu May  5 09:58:14 2022.
