 Gaussian 16, Revision A.03,
 Gaussian 16:  ES64L-G16RevA.03 25-Dec-2016

 --------------------
 #p ZINDO=(nstates=5)
 --------------------

 -----------------------------
 step_801_chromophore_19 ZINDO
 -----------------------------
 Symbolic Z-matrix:
 Charge =  0 Multiplicity = 1

                         Standard orientation:
 ---------------------------------------------------------------------
 Center     Atomic      Atomic             Coordinates (Angstroms)
 Number     Number       Type             X           Y           Z
 ---------------------------------------------------------------------
      1         12           0        5.976585    0.347391    0.104429
      2          6           0        3.464996   -2.099326   -0.046260
      3          6           0        3.470028    2.714033   -0.420430
      4          6           0        8.338129    2.686695   -0.082887
      5          6           0        8.360557   -2.159825    0.591078
      6          7           0        3.702948    0.228531   -0.215300
      7          6           0        2.878760   -0.853348   -0.149599
      8          6           0        1.363769   -0.517075   -0.227663
      9          6           0        1.429790    1.005197   -0.741728
     10          6           0        2.935496    1.397904   -0.481393
     11          6           0        1.027953    1.286367   -2.215981
     12          6           0        0.592644   -0.940311    1.088770
     13          6           0       -0.710406   -1.814489    0.936247
     14          6           0       -1.801079   -1.341039   -0.021837
     15          8           0       -1.624432   -0.791350   -1.141262
     16          8           0       -3.045197   -1.656984    0.457686
     17          7           0        5.979261    2.403457   -0.076335
     18          6           0        4.824092    3.192259   -0.267938
     19          6           0        5.196331    4.583008   -0.308755
     20          6           0        6.684519    4.601870   -0.350213
     21          6           0        7.054294    3.186456   -0.191159
     22          6           0        4.169564    5.698796   -0.236287
     23          6           0        7.557923    5.850968   -0.479449
     24          8           0        8.752774    5.814446   -0.739374
     25          6           0        7.017780    7.163484   -0.275064
     26          7           0        8.056117    0.324398    0.192574
     27          6           0        8.811185    1.412783    0.113640
     28          6           0       10.254230    1.072691    0.384489
     29          6           0       10.210609   -0.388254    0.904654
     30          6           0        8.780004   -0.800710    0.535917
     31          6           0       11.183291    1.360697   -0.811366
     32          6           0       10.548737   -0.638946    2.388414
     33          6           0       11.458103   -1.788868    2.646008
     34          7           0        5.942683   -1.743254    0.188487
     35          6           0        6.980663   -2.653576    0.353447
     36          6           0        6.412721   -3.999653    0.414635
     37          6           0        5.032098   -3.830287    0.194916
     38          6           0        4.846815   -2.485904    0.056103
     39          6           0        7.168865   -5.248559    0.684144
     40          6           0        3.794945   -4.566330    0.018214
     41          8           0        3.610575   -5.792896   -0.014291
     42          6           0        2.698172   -3.472956   -0.118724
     43          6           0        1.960077   -3.696566   -1.393116
     44          8           0        1.996584   -3.000424   -2.370291
     45          8           0        0.948111   -4.590167   -1.137265
     46          6           0       -0.051845   -4.658239   -2.159645
     47          6           0       -4.168903   -1.372041   -0.416692
     48          6           0       -5.493835   -1.419906    0.279200
     49          6           0       -6.743964   -1.222749   -0.287679
     50          6           0       -7.030960   -1.108862   -1.742827
     51          6           0       -8.024275   -1.053012    0.627184
     52          6           0       -8.637049    0.349670    0.752442
     53          6           0       -8.613925    0.802673    2.260889
     54          6           0       -9.777461    1.774477    2.638926
     55          6           0       -9.200450    2.745836    3.654451
     56          6           0      -10.978813    0.995235    3.284823
     57          6           0      -12.420787    1.209747    2.693853
     58          6           0      -12.989933   -0.019937    1.990853
     59          6           0      -14.021813    0.330627    0.901480
     60          6           0      -15.405330   -0.322581    1.140983
     61          6           0      -13.454608   -0.095728   -0.485307
     62          6           0      -12.508206    1.032558   -1.064766
     63          6           0      -11.491826    0.404359   -2.030722
     64          6           0      -10.986326    1.471446   -2.970958
     65          6           0      -10.806585    0.833664   -4.338793
     66          6           0       -9.719493    2.149918   -2.417850
     67          1           0        2.691011    3.458757   -0.599368
     68          1           0        9.168457    3.389175    0.012071
     69          1           0        9.066111   -2.932399    0.901775
     70          1           0        1.021039   -1.161425   -1.037012
     71          1           0        0.806864    1.597071   -0.071837
     72          1           0        0.978631    0.329325   -2.736114
     73          1           0        1.835692    1.855075   -2.676835
     74          1           0        0.089744    1.840321   -2.251407
     75          1           0        0.275190   -0.081046    1.678152
     76          1           0        1.191167   -1.586826    1.730094
     77          1           0       -1.184390   -1.919113    1.912374
     78          1           0       -0.335046   -2.791007    0.629467
     79          1           0        4.477385    6.518470   -0.886128
     80          1           0        4.098706    6.138442    0.758075
     81          1           0        3.163280    5.406189   -0.533704
     82          1           0        7.894664    7.807341   -0.338756
     83          1           0        6.567049    7.162090    0.717186
     84          1           0        6.398772    7.502544   -1.105885
     85          1           0       10.532293    1.817248    1.130421
     86          1           0       10.758749   -1.026862    0.212027
     87          1           0       10.640149    2.173384   -1.293896
     88          1           0       11.197695    0.439666   -1.394785
     89          1           0       12.217433    1.590580   -0.554503
     90          1           0        9.572598   -0.685503    2.872259
     91          1           0       11.188672    0.171843    2.736278
     92          1           0       12.189398   -1.444072    3.377778
     93          1           0       12.084871   -2.067043    1.798346
     94          1           0       11.005042   -2.638266    3.157524
     95          1           0        6.468608   -5.992278    1.062261
     96          1           0        7.927256   -5.095243    1.452956
     97          1           0        7.547718   -5.717053   -0.223333
     98          1           0        2.062111   -3.482269    0.766479
     99          1           0        0.495239   -4.958036   -3.054689
    100          1           0       -0.559451   -3.714469   -2.359346
    101          1           0       -0.813720   -5.389119   -1.890911
    102          1           0       -4.109154   -2.061419   -1.259538
    103          1           0       -4.047629   -0.337195   -0.736511
    104          1           0       -5.424846   -1.518695    1.361780
    105          1           0       -8.086426   -1.299972   -1.932495
    106          1           0       -6.352844   -1.746089   -2.310233
    107          1           0       -6.802594   -0.089369   -2.052379
    108          1           0       -7.717231   -1.439080    1.599170
    109          1           0       -8.827070   -1.690395    0.256963
    110          1           0       -9.658232    0.373947    0.373081
    111          1           0       -8.103731    1.040944    0.101483
    112          1           0       -7.689521    1.375223    2.328118
    113          1           0       -8.586269    0.026309    3.025345
    114          1           0      -10.073687    2.325938    1.746396
    115          1           0       -8.467859    2.409841    4.388167
    116          1           0      -10.032389    3.172519    4.214926
    117          1           0       -8.642901    3.522490    3.131558
    118          1           0      -11.060999    1.215016    4.349270
    119          1           0      -10.649708   -0.044143    3.286449
    120          1           0      -12.418290    1.983571    1.926174
    121          1           0      -13.007052    1.601357    3.524481
    122          1           0      -13.481146   -0.754135    2.630206
    123          1           0      -12.141835   -0.506264    1.510030
    124          1           0      -14.207744    1.390152    0.722335
    125          1           0      -15.497947   -0.457072    2.218566
    126          1           0      -15.680677   -1.206475    0.566264
    127          1           0      -16.179496    0.433856    1.008437
    128          1           0      -14.268295   -0.187309   -1.204496
    129          1           0      -13.009907   -1.088062   -0.407350
    130          1           0      -12.047929    1.548295   -0.221914
    131          1           0      -13.153227    1.762207   -1.554734
    132          1           0      -11.967892   -0.462521   -2.488581
    133          1           0      -10.756939   -0.127996   -1.426403
    134          1           0      -11.732882    2.262713   -3.050131
    135          1           0      -10.254841   -0.076711   -4.102476
    136          1           0      -10.025828    1.402667   -4.842877
    137          1           0      -11.746355    0.688607   -4.872089
    138          1           0       -9.424055    2.935850   -3.114136
    139          1           0       -8.974887    1.381620   -2.209962
    140          1           0       -9.817688    2.736608   -1.504704
 ---------------------------------------------------------------------

 SCF Done:  E(RZINDO/S) =  -474.290754110     A.U. after   19 cycles

 Excitation energies and oscillator strengths:

 Excited State   1:      Singlet-A      1.2437 eV  996.90 nm  f=0.6393  <S**2>=0.000
     175 ->178         0.18786
     176 ->177         0.66439
 This state for optimization and/or second-order correction.
 Total Energy, E(CIS/TDA) =  -474.245049051
 Copying the excited state density for this state as the 1-particle RhoCI density.

 Excited State   2:      Singlet-A      1.8841 eV  658.07 nm  f=0.1510  <S**2>=0.000
     175 ->177         0.59984
     176 ->178        -0.34419

 Excited State   3:      Singlet-A      2.9379 eV  422.02 nm  f=0.0009  <S**2>=0.000
     168 ->177         0.32335
     168 ->179        -0.34218
     168 ->181        -0.32328
     168 ->182        -0.11638
     168 ->186        -0.24465
     168 ->187        -0.14823

 Excited State   4:      Singlet-A      3.0534 eV  406.05 nm  f=0.0146  <S**2>=0.000
     169 ->177         0.31279
     169 ->178        -0.12990
     169 ->179         0.38093
     169 ->181        -0.27037
     169 ->182        -0.20831
     169 ->186         0.17137
     169 ->187        -0.10646
     169 ->202        -0.10435

 Excited State   5:      Singlet-A      3.0866 eV  401.69 nm  f=0.6301  <S**2>=0.000
     171 ->177         0.16503
     172 ->177        -0.21793
     175 ->177         0.25613
     176 ->178         0.45822
     176 ->179        -0.30608

 The electronic state is 1-A.
 Alpha  occ. eigenvalues --   -1.83746  -1.82541  -1.77300  -1.74116  -1.72716
 Alpha  occ. eigenvalues --   -1.68787  -1.66579  -1.61394  -1.60286  -1.57343
 Alpha  occ. eigenvalues --   -1.56920  -1.51059  -1.49066  -1.48414  -1.47458
 Alpha  occ. eigenvalues --   -1.43052  -1.40610  -1.40000  -1.39091  -1.37687
 Alpha  occ. eigenvalues --   -1.35888  -1.33045  -1.32705  -1.31031  -1.30090
 Alpha  occ. eigenvalues --   -1.29166  -1.24489  -1.22186  -1.21037  -1.17688
 Alpha  occ. eigenvalues --   -1.16416  -1.16227  -1.14786  -1.12887  -1.12642
 Alpha  occ. eigenvalues --   -1.12229  -1.10913  -1.10451  -1.04997  -1.03502
 Alpha  occ. eigenvalues --   -1.02528  -1.01191  -0.99042  -0.97653  -0.96311
 Alpha  occ. eigenvalues --   -0.95818  -0.94407  -0.93157  -0.92620  -0.92382
 Alpha  occ. eigenvalues --   -0.90485  -0.90183  -0.89106  -0.87758  -0.86658
 Alpha  occ. eigenvalues --   -0.85829  -0.83826  -0.83138  -0.80827  -0.80354
 Alpha  occ. eigenvalues --   -0.79605  -0.78548  -0.77662  -0.76488  -0.76168
 Alpha  occ. eigenvalues --   -0.75189  -0.75033  -0.74171  -0.73559  -0.73164
 Alpha  occ. eigenvalues --   -0.72287  -0.72043  -0.71878  -0.71653  -0.71098
 Alpha  occ. eigenvalues --   -0.70207  -0.70057  -0.68944  -0.68679  -0.67582
 Alpha  occ. eigenvalues --   -0.67506  -0.67361  -0.66837  -0.66697  -0.66347
 Alpha  occ. eigenvalues --   -0.65898  -0.64799  -0.64569  -0.63673  -0.63449
 Alpha  occ. eigenvalues --   -0.63275  -0.62917  -0.62566  -0.62324  -0.61482
 Alpha  occ. eigenvalues --   -0.61281  -0.60785  -0.60755  -0.60181  -0.59928
 Alpha  occ. eigenvalues --   -0.59644  -0.59083  -0.58593  -0.58373  -0.58156
 Alpha  occ. eigenvalues --   -0.57935  -0.57443  -0.57189  -0.57141  -0.56786
 Alpha  occ. eigenvalues --   -0.56135  -0.55788  -0.55343  -0.54806  -0.54362
 Alpha  occ. eigenvalues --   -0.54047  -0.53833  -0.53432  -0.52933  -0.52614
 Alpha  occ. eigenvalues --   -0.52380  -0.51854  -0.51654  -0.51481  -0.51230
 Alpha  occ. eigenvalues --   -0.51027  -0.50840  -0.50572  -0.50373  -0.50135
 Alpha  occ. eigenvalues --   -0.49823  -0.49703  -0.49558  -0.49431  -0.49149
 Alpha  occ. eigenvalues --   -0.48815  -0.48606  -0.48432  -0.47907  -0.47658
 Alpha  occ. eigenvalues --   -0.47183  -0.46983  -0.46551  -0.46400  -0.46287
 Alpha  occ. eigenvalues --   -0.45881  -0.45728  -0.45459  -0.45327  -0.44986
 Alpha  occ. eigenvalues --   -0.44785  -0.44747  -0.44640  -0.44192  -0.43909
 Alpha  occ. eigenvalues --   -0.43685  -0.43174  -0.42617  -0.42367  -0.42176
 Alpha  occ. eigenvalues --   -0.41928  -0.41383  -0.41341  -0.39122  -0.38550
 Alpha  occ. eigenvalues --   -0.38371  -0.37014  -0.35074  -0.34786  -0.34299
 Alpha  occ. eigenvalues --   -0.32785  -0.32241  -0.31802  -0.31605  -0.26096
 Alpha  occ. eigenvalues --   -0.21867
 Alpha virt. eigenvalues --   -0.08841  -0.01320  -0.00202   0.00981   0.01288
 Alpha virt. eigenvalues --    0.02609   0.03247   0.03459   0.04113   0.05110
 Alpha virt. eigenvalues --    0.06481   0.06748   0.07002   0.07589   0.08158

 Mulliken charges:
               1
     1  Mg   0.423308
     2  C   -0.056158
     3  C   -0.072411
     4  C   -0.073193
     5  C   -0.079845
     6  N   -0.295511
     7  C    0.125140
     8  C    0.004928
     9  C    0.016859
    10  C    0.126534
    11  C   -0.042923
    12  C   -0.018531
    13  C    0.004533
    14  C    0.466439
    15  O   -0.534891
    16  O   -0.266226
    17  N   -0.325922
    18  C    0.110872
    19  C    0.009086
    20  C   -0.067683
    21  C    0.173343
    22  C   -0.038512
    23  C    0.338228
    24  O   -0.531449
    25  C   -0.027578
    26  N   -0.269702
    27  C    0.169272
    28  C    0.004188
    29  C   -0.002236
    30  C    0.106379
    31  C   -0.054238
    32  C   -0.020414
    33  C   -0.053936
    34  N   -0.315998
    35  C    0.062626
    36  C    0.020256
    37  C   -0.053612
    38  C    0.123372
    39  C   -0.038593
    40  C    0.331109
    41  O   -0.532267
    42  C    0.045294
    43  C    0.491591
    44  O   -0.502938
    45  O   -0.268604
    46  C    0.076606
    47  C    0.113461
    48  C   -0.092656
    49  C   -0.020951
    50  C   -0.039250
    51  C   -0.026383
    52  C   -0.031682
    53  C   -0.038602
    54  C   -0.011321
    55  C   -0.055338
    56  C   -0.043606
    57  C   -0.034275
    58  C   -0.025995
    59  C   -0.019034
    60  C   -0.065536
    61  C   -0.046867
    62  C   -0.044646
    63  C   -0.032339
    64  C   -0.002861
    65  C   -0.060216
    66  C   -0.058118
    67  H    0.026278
    68  H    0.031068
    69  H    0.032381
    70  H    0.050276
    71  H    0.025508
    72  H    0.037444
    73  H    0.021957
    74  H    0.029499
    75  H    0.023818
    76  H    0.023775
    77  H    0.033552
    78  H    0.051803
    79  H    0.022951
    80  H    0.033142
    81  H    0.030190
    82  H    0.035457
    83  H    0.039523
    84  H    0.045253
    85  H    0.025794
    86  H    0.029142
    87  H    0.035050
    88  H    0.021005
    89  H    0.026509
    90  H    0.034107
    91  H    0.020355
    92  H    0.005388
    93  H    0.025257
    94  H    0.022681
    95  H    0.025004
    96  H    0.025045
    97  H    0.037781
    98  H    0.058271
    99  H    0.043795
   100  H    0.042867
   101  H    0.028810
   102  H    0.051928
   103  H    0.052460
   104  H    0.033037
   105  H    0.027168
   106  H    0.026638
   107  H    0.029696
   108  H    0.019213
   109  H    0.019596
   110  H    0.021395
   111  H    0.023731
   112  H    0.011991
   113  H    0.031988
   114  H    0.027297
   115  H    0.021767
   116  H    0.010690
   117  H    0.008372
   118  H    0.014614
   119  H    0.016687
   120  H    0.020781
   121  H    0.021118
   122  H    0.024097
   123  H    0.019018
   124  H    0.024413
   125  H    0.012133
   126  H    0.031565
   127  H    0.009086
   128  H    0.008327
   129  H    0.021182
   130  H    0.020933
   131  H    0.020553
   132  H    0.014502
   133  H    0.019035
   134  H    0.017221
   135  H    0.015569
   136  H    0.013980
   137  H    0.034463
   138  H    0.014780
   139  H    0.023362
   140  H    0.014503
 Sum of Mulliken charges =  -0.00000

 Dipole moment (field-independent basis, Debye):
    X=             -4.4412    Y=              5.5074    Z=              5.2681  Tot=              8.8210
 N-N= 4.305087449962D+03 E-N= 0.000000000000D+00  KE=-9.284955304747D+03
 Leave Link  601 at Thu May  5 10:11:49 2022, MaxMem=  6710886400 cpu:               0.8 elap:               0.1
 (Enter /sw/apps/gaussian-16.0/g16/l9999.exe)
 1\1\GINC-BP1-COMPUTE103\SP\RZINDO CIS\STO-3G\C55H74Mg1N4O6\OF15641\05-
 May-2022\0\\#p ZINDO=(nstates=5)\\step_801_chromophore_19 ZINDO\\0,1\M
 g,0,26.029,50.635,26.373\C,0,24.06,51.482,29.152\C,0,28.466,49.578,28.
 632\C,0,28.071,50.107,23.797\C,0,23.492,51.77,24.256\N,0,26.175,50.59,
 28.667\C,0,25.229,50.897,29.597\C,0,25.627,50.557,31.06\C,0,27.206,50.
 31,30.882\C,0,27.362,50.152,29.32\C,0,28.172,51.396,31.431\C,0,24.662,
 49.479,31.703\C,0,24.023,49.8,33.108\C,0,24.942,50.233,34.248\O,0,25.9

 Normal termination of Gaussian 16 at Thu May  5 10:11:49 2022.
