 Gaussian 16, Revision A.03,
 Gaussian 16:  ES64L-G16RevA.03 25-Dec-2016

 ------------------------------
 #p blyp/Def2SVP td=(nstates=5)
 ------------------------------

 --------------------------------------------------
 step_1251_chromophore_9 TDDFT with blyp functional
 --------------------------------------------------
 Symbolic Z-matrix:
 Charge =  0 Multiplicity = 1

                         Standard orientation:
 ---------------------------------------------------------------------
 Center     Atomic      Atomic             Coordinates (Angstroms)
 Number     Number       Type             X           Y           Z
 ---------------------------------------------------------------------
      1         12           0       -4.952765    0.809075   -0.173065
      2          6           0       -3.757614   -2.531221    0.312430
      3          6           0       -1.735135    1.741859   -0.452253
      4          6           0       -6.037364    4.042616   -0.030410
      5          6           0       -8.128900   -0.388007    0.506104
      6          7           0       -2.962826   -0.311448    0.024848
      7          6           0       -2.690520   -1.642654    0.030165
      8          6           0       -1.248187   -1.976759   -0.318355
      9          6           0       -0.537032   -0.537235   -0.058538
     10          6           0       -1.816608    0.390519   -0.122517
     11          6           0        0.178387   -0.555249    1.324968
     12          6           0       -1.122051   -2.430107   -1.826670
     13          6           0       -0.136225   -3.579632   -2.100431
     14          6           0        1.132516   -3.545015   -1.238688
     15          8           0        1.470182   -4.502577   -0.544211
     16          8           0        1.860953   -2.395024   -1.274325
     17          7           0       -4.053170    2.629102   -0.311064
     18          6           0       -2.688885    2.776422   -0.505190
     19          6           0       -2.442281    4.197163   -0.733003
     20          6           0       -3.622356    4.955236   -0.382932
     21          6           0       -4.633448    3.908098   -0.229091
     22          6           0       -1.065910    4.702955   -0.999187
     23          6           0       -3.919750    6.460070   -0.369199
     24          8           0       -5.047708    6.960702   -0.082716
     25          6           0       -2.795604    7.341296   -0.640500
     26          7           0       -6.770808    1.736106   -0.006918
     27          6           0       -7.005646    3.061878    0.096709
     28          6           0       -8.492167    3.337705    0.320934
     29          6           0       -9.184967    1.946171    0.186265
     30          6           0       -7.967280    0.970311    0.215378
     31          6           0       -8.815251    3.993442    1.703193
     32          6           0      -10.206928    1.827094   -0.912551
     33          6           0       -9.925914    0.784894   -2.068962
     34          7           0       -5.823942   -1.021419    0.354094
     35          6           0       -7.124890   -1.330398    0.688665
     36          6           0       -7.230274   -2.732527    0.979482
     37          6           0       -5.912826   -3.257103    0.821735
     38          6           0       -5.099370   -2.150144    0.493107
     39          6           0       -8.535068   -3.498535    1.161229
     40          6           0       -5.172298   -4.473733    0.777915
     41          8           0       -5.579923   -5.643279    0.801567
     42          6           0       -3.652196   -4.067764    0.530624
     43          6           0       -2.714742   -4.372747    1.681911
     44          8           0       -2.874482   -4.000674    2.835201
     45          8           0       -1.629019   -5.123250    1.361529
     46          6           0       -0.860814   -5.776603    2.473381
     47          6           0        3.145694   -2.508934   -0.477895
     48          6           0        4.123528   -2.903013   -1.587250
     49          6           0        5.493886   -2.917812   -1.439760
     50          6           0        6.349078   -2.735795   -0.218956
     51          6           0        6.227522   -3.150850   -2.656549
     52          6           0        6.499872   -1.815713   -3.386026
     53          6           0        7.955739   -1.483848   -3.957402
     54          6           0        8.425491   -0.133164   -3.404419
     55          6           0        8.949406    0.739676   -4.576786
     56          6           0        9.432916   -0.240766   -2.269005
     57          6           0        9.140990    0.714592   -1.024117
     58          6           0       10.437503    1.259966   -0.503584
     59          6           0       10.330317    2.799807   -0.135120
     60          6           0       11.050249    3.563237   -1.227527
     61          6           0       11.092674    3.019484    1.225124
     62          6           0       10.274470    2.640306    2.495044
     63          6           0       10.789261    1.446835    3.141180
     64          6           0       10.429969    1.443591    4.671583
     65          6           0       11.648162    1.992315    5.448578
     66          6           0        9.968162    0.072137    5.249865
     67          1           0       -0.724798    2.084969   -0.683355
     68          1           0       -6.440889    5.054044    0.056736
     69          1           0       -9.141250   -0.781874    0.609356
     70          1           0       -0.848149   -2.771148    0.311947
     71          1           0        0.232633   -0.347380   -0.806258
     72          1           0        1.197547   -0.917747    1.185343
     73          1           0       -0.246788   -1.134104    2.144532
     74          1           0        0.204293    0.474126    1.684461
     75          1           0       -0.948094   -1.704748   -2.621341
     76          1           0       -2.089251   -2.806537   -2.156645
     77          1           0        0.343785   -3.458970   -3.071662
     78          1           0       -0.574459   -4.572205   -1.991281
     79          1           0       -0.901208    5.638052   -1.535408
     80          1           0       -0.447798    3.978589   -1.530819
     81          1           0       -0.534040    4.778194   -0.050431
     82          1           0       -1.933663    7.118695   -0.011477
     83          1           0       -3.138533    8.367398   -0.507236
     84          1           0       -2.617529    7.354244   -1.715328
     85          1           0       -8.857814    4.048486   -0.420259
     86          1           0       -9.670781    1.590201    1.094362
     87          1           0       -9.414800    4.886002    1.524466
     88          1           0       -7.944892    4.346568    2.254879
     89          1           0       -9.409419    3.346857    2.348748
     90          1           0      -10.480126    2.784017   -1.357825
     91          1           0      -11.143441    1.523884   -0.444209
     92          1           0      -10.249225    1.214449   -3.016991
     93          1           0      -10.476039   -0.143083   -1.910673
     94          1           0       -8.858075    0.591010   -2.168317
     95          1           0       -8.401154   -4.551832    0.914958
     96          1           0       -9.230620   -3.115688    0.414321
     97          1           0       -8.864678   -3.257659    2.171352
     98          1           0       -3.378807   -4.680121   -0.329052
     99          1           0       -0.480527   -6.710956    2.060491
    100          1           0       -1.516229   -5.916011    3.333025
    101          1           0       -0.107516   -5.005477    2.640538
    102          1           0        3.149605   -3.218096    0.349266
    103          1           0        3.507181   -1.571892   -0.054584
    104          1           0        3.720026   -2.925932   -2.599713
    105          1           0        6.928985   -3.658079   -0.191506
    106          1           0        5.647725   -2.660191    0.611888
    107          1           0        6.974439   -1.854935   -0.369150
    108          1           0        5.623787   -3.720357   -3.362993
    109          1           0        7.226615   -3.587019   -2.643309
    110          1           0        6.136661   -1.028678   -2.724476
    111          1           0        5.882981   -1.784007   -4.283465
    112          1           0        7.782002   -1.450696   -5.033343
    113          1           0        8.676523   -2.263015   -3.712305
    114          1           0        7.525293    0.335431   -3.007420
    115          1           0        8.244012    1.437471   -5.027411
    116          1           0        9.453040    0.221979   -5.392959
    117          1           0        9.742791    1.419714   -4.266314
    118          1           0       10.426473   -0.223447   -2.717196
    119          1           0        9.287666   -1.217767   -1.807241
    120          1           0        8.661664    0.119851   -0.245982
    121          1           0        8.456801    1.557673   -1.124074
    122          1           0       11.256909    1.124313   -1.209193
    123          1           0       10.646349    0.609576    0.345879
    124          1           0        9.388689    3.334269   -0.008076
    125          1           0       10.766714    3.054254   -2.148281
    126          1           0       12.135003    3.627462   -1.151794
    127          1           0       10.647376    4.575426   -1.266027
    128          1           0       11.259503    4.095521    1.277670
    129          1           0       12.022510    2.454603    1.158226
    130          1           0        9.245744    2.424367    2.202220
    131          1           0       10.129347    3.444502    3.215944
    132          1           0       11.861015    1.492205    2.951431
    133          1           0       10.222547    0.682212    2.609082
    134          1           0        9.598799    2.135786    4.806202
    135          1           0       12.516056    2.184424    4.818917
    136          1           0       11.909587    1.433895    6.347880
    137          1           0       11.334441    2.967588    5.821311
    138          1           0       10.517541   -0.789693    4.871574
    139          1           0        8.914679   -0.049840    4.999376
    140          1           0        9.989875    0.298345    6.316510
 ---------------------------------------------------------------------

 SCF Done:  E(RB-LYP) =  -3007.36249634     A.U. after   21 cycles

 Excitation energies and oscillator strengths:

 Excited State   1:      Singlet-A      1.7842 eV  694.91 nm  f=0.3018  <S**2>=0.000
     245 -> 248       -0.15651
     245 -> 249        0.11623
     246 -> 247        0.68883
     246 <- 247       -0.15079
 This state for optimization and/or second-order correction.
 Total Energy, E(TD-HF/TD-DFT) =  -3007.29692947
 Copying the excited state density for this state as the 1-particle RhoCI density.

 Excited State   2:      Singlet-A      1.8947 eV  654.39 nm  f=0.0099  <S**2>=0.000
     244 -> 247        0.68506
     245 -> 247        0.15170

 Excited State   3:      Singlet-A      1.9917 eV  622.50 nm  f=0.0686  <S**2>=0.000
     243 -> 247       -0.12341
     244 -> 247       -0.15577
     245 -> 247        0.62614
     246 -> 248        0.19442
     246 -> 249       -0.13393

 Excited State   4:      Singlet-A      2.0251 eV  612.23 nm  f=0.0035  <S**2>=0.000
     243 -> 247        0.69524
     245 -> 247        0.10959

 Excited State   5:      Singlet-A      2.1272 eV  582.85 nm  f=0.0000  <S**2>=0.000
     242 -> 247        0.70710

 The electronic state is 1-A.
 Alpha  occ. eigenvalues --  -46.26433 -18.83298 -18.80943 -18.76361 -18.75901
 Alpha  occ. eigenvalues --  -18.75482 -18.75301 -14.03478 -14.02863 -14.01101
 Alpha  occ. eigenvalues --  -14.00835 -10.04133 -10.03241 -10.00352  -9.99386
 Alpha  occ. eigenvalues --   -9.98821  -9.97460  -9.96785  -9.96728  -9.96689
 Alpha  occ. eigenvalues --   -9.96158  -9.96099  -9.95963  -9.95013  -9.94725
 Alpha  occ. eigenvalues --   -9.94633  -9.94623  -9.94494  -9.94191  -9.94068
 Alpha  occ. eigenvalues --   -9.93990  -9.93824  -9.93596  -9.93422  -9.93341
 Alpha  occ. eigenvalues --   -9.93295  -9.93123  -9.93106  -9.93067  -9.92802
 Alpha  occ. eigenvalues --   -9.92771  -9.92387  -9.92232  -9.92212  -9.92057
 Alpha  occ. eigenvalues --   -9.92047  -9.92038  -9.92012  -9.91988  -9.91791
 Alpha  occ. eigenvalues --   -9.91759  -9.91719  -9.91680  -9.91614  -9.91527
 Alpha  occ. eigenvalues --   -9.91504  -9.91202  -9.91135  -9.91038  -9.90972
 Alpha  occ. eigenvalues --   -9.90926  -9.90859  -9.90744  -9.90673  -9.90357
 Alpha  occ. eigenvalues --   -9.90347  -2.91198  -1.71622  -1.71073  -1.70912
 Alpha  occ. eigenvalues --   -0.98264  -0.96848  -0.90167  -0.89649  -0.89267
 Alpha  occ. eigenvalues --   -0.88075  -0.86591  -0.85678  -0.84716  -0.83779
 Alpha  occ. eigenvalues --   -0.75100  -0.74700  -0.73699  -0.72749  -0.72519
 Alpha  occ. eigenvalues --   -0.72189  -0.71225  -0.71160  -0.70480  -0.70397
 Alpha  occ. eigenvalues --   -0.69618  -0.69058  -0.68068  -0.67302  -0.67141
 Alpha  occ. eigenvalues --   -0.66778  -0.66281  -0.65918  -0.65194  -0.64888
 Alpha  occ. eigenvalues --   -0.64488  -0.62653  -0.62371  -0.61466  -0.61218
 Alpha  occ. eigenvalues --   -0.60627  -0.60124  -0.59765  -0.59604  -0.59151
 Alpha  occ. eigenvalues --   -0.58066  -0.57450  -0.56545  -0.55964  -0.55150
 Alpha  occ. eigenvalues --   -0.53957  -0.53453  -0.52716  -0.51900  -0.51585
 Alpha  occ. eigenvalues --   -0.51212  -0.50590  -0.50535  -0.50344  -0.50100
 Alpha  occ. eigenvalues --   -0.49970  -0.49703  -0.48743  -0.47602  -0.46802
 Alpha  occ. eigenvalues --   -0.46501  -0.46161  -0.45532  -0.45074  -0.44036
 Alpha  occ. eigenvalues --   -0.43683  -0.42959  -0.42879  -0.42482  -0.42331
 Alpha  occ. eigenvalues --   -0.42143  -0.41758  -0.41402  -0.41281  -0.41215
 Alpha  occ. eigenvalues --   -0.41005  -0.40894  -0.40647  -0.40424  -0.40330
 Alpha  occ. eigenvalues --   -0.40200  -0.39915  -0.39550  -0.39310  -0.39183
 Alpha  occ. eigenvalues --   -0.39077  -0.38963  -0.38799  -0.38579  -0.38521
 Alpha  occ. eigenvalues --   -0.38345  -0.38168  -0.38014  -0.37469  -0.37320
 Alpha  occ. eigenvalues --   -0.36842  -0.36820  -0.36664  -0.36434  -0.36358
 Alpha  occ. eigenvalues --   -0.36253  -0.36098  -0.35808  -0.35498  -0.35483
 Alpha  occ. eigenvalues --   -0.35243  -0.35125  -0.34808  -0.34694  -0.34579
 Alpha  occ. eigenvalues --   -0.34515  -0.34285  -0.34251  -0.34191  -0.34152
 Alpha  occ. eigenvalues --   -0.33907  -0.33771  -0.33681  -0.33454  -0.33176
 Alpha  occ. eigenvalues --   -0.33079  -0.32813  -0.32571  -0.32300  -0.32222
 Alpha  occ. eigenvalues --   -0.32104  -0.31969  -0.31816  -0.31508  -0.31422
 Alpha  occ. eigenvalues --   -0.31366  -0.31300  -0.31136  -0.30994  -0.30655
 Alpha  occ. eigenvalues --   -0.30448  -0.30158  -0.30052  -0.29912  -0.29792
 Alpha  occ. eigenvalues --   -0.29719  -0.29424  -0.29324  -0.29130  -0.28929
 Alpha  occ. eigenvalues --   -0.28801  -0.28787  -0.28374  -0.27924  -0.27781
 Alpha  occ. eigenvalues --   -0.27462  -0.27370  -0.27221  -0.27188  -0.26766
 Alpha  occ. eigenvalues --   -0.26282  -0.26226  -0.25804  -0.25641  -0.25438
 Alpha  occ. eigenvalues --   -0.25254  -0.24536  -0.23971  -0.23877  -0.23532
 Alpha  occ. eigenvalues --   -0.23039  -0.21975  -0.21253  -0.20763  -0.20558
 Alpha  occ. eigenvalues --   -0.20285  -0.19525  -0.19051  -0.18581  -0.17342
 Alpha  occ. eigenvalues --   -0.15910
 Alpha virt. eigenvalues --   -0.11708  -0.06989  -0.06538  -0.05182  -0.02999
 Alpha virt. eigenvalues --   -0.02426  -0.02280  -0.02054  -0.01453   0.00168
 Alpha virt. eigenvalues --    0.00646   0.01185   0.01528   0.02040   0.02334

 Mulliken charges:
               1
     1  Mg   0.705421
     2  C   -0.056854
     3  C   -0.058218
     4  C   -0.046248
     5  C   -0.087303
     6  N   -0.176961
     7  C   -0.079512
     8  C   -0.001972
     9  C    0.003466
    10  C    0.055261
    11  C    0.104238
    12  C    0.129952
    13  C    0.166098
    14  C    0.034762
    15  O   -0.202690
    16  O   -0.282843
    17  N   -0.333331
    18  C    0.153186
    19  C   -0.118810
    20  C    0.023857
    21  C    0.106283
    22  C    0.137541
    23  C   -0.060069
    24  O   -0.193726
    25  C    0.156201
    26  N   -0.280329
    27  C    0.059661
    28  C    0.013182
    29  C    0.062733
    30  C    0.044359
    31  C    0.112705
    32  C    0.086837
    33  C    0.054337
    34  N   -0.254865
    35  C    0.138811
    36  C   -0.197540
    37  C    0.090691
    38  C    0.134049
    39  C    0.180495
    40  C   -0.062853
    41  O   -0.147371
    42  C    0.096133
    43  C    0.091614
    44  O   -0.190340
    45  O   -0.284356
    46  C    0.219666
    47  C    0.289524
    48  C   -0.115374
    49  C   -0.181985
    50  C    0.188901
    51  C    0.183020
    52  C   -0.015996
    53  C    0.123098
    54  C   -0.052642
    55  C    0.094477
    56  C    0.106269
    57  C    0.067823
    58  C    0.096108
    59  C   -0.093577
    60  C    0.118144
    61  C    0.091655
    62  C    0.062342
    63  C    0.113157
    64  C   -0.104006
    65  C    0.106143
    66  C    0.113409
    67  H   -0.070968
    68  H   -0.050202
    69  H   -0.061376
    70  H    0.005546
    71  H   -0.019479
    72  H   -0.008211
    73  H    0.007334
    74  H   -0.018133
    75  H   -0.022631
    76  H   -0.024779
    77  H   -0.009716
    78  H    0.008359
    79  H   -0.003631
    80  H   -0.012667
    81  H    0.002850
    82  H    0.024149
    83  H   -0.020263
    84  H    0.012187
    85  H   -0.016580
    86  H   -0.030197
    87  H   -0.013373
    88  H   -0.001051
    89  H   -0.009066
    90  H   -0.025722
    91  H   -0.034518
    92  H   -0.014770
    93  H   -0.004069
    94  H    0.012689
    95  H    0.010960
    96  H   -0.004788
    97  H    0.009664
    98  H   -0.013350
    99  H    0.031822
   100  H    0.031317
   101  H    0.021198
   102  H    0.027868
   103  H    0.011207
   104  H   -0.022571
   105  H    0.008207
   106  H   -0.019885
   107  H    0.009309
   108  H   -0.033321
   109  H   -0.049069
   110  H   -0.018457
   111  H   -0.031126
   112  H   -0.034967
   113  H   -0.029445
   114  H   -0.037579
   115  H   -0.019811
   116  H   -0.019514
   117  H   -0.036075
   118  H   -0.021485
   119  H   -0.042618
   120  H   -0.030540
   121  H   -0.023577
   122  H   -0.026585
   123  H   -0.034174
   124  H   -0.031286
   125  H   -0.018234
   126  H   -0.012878
   127  H   -0.028074
   128  H   -0.047008
   129  H   -0.028134
   130  H   -0.050617
   131  H   -0.040695
   132  H   -0.026705
   133  H   -0.031378
   134  H   -0.034412
   135  H   -0.014600
   136  H   -0.017680
   137  H   -0.024807
   138  H    0.000170
   139  H   -0.027528
   140  H   -0.016297
 Sum of Mulliken charges =  -0.00000

 Dipole moment (field-independent basis, Debye):
    X=              4.1343    Y=              2.9411    Z=             -3.3099  Tot=              6.0579
 Quadrupole moment (field-independent basis, Debye-Ang):
   XX=           -382.7077   YY=           -445.5248   ZZ=           -404.3092
   XY=             -9.1786   XZ=              9.2501   YZ=              3.6242

 Normal termination of Gaussian 16 at Wed May  4 03:18:04 2022.
