 Gaussian 16, Revision A.03,
 Gaussian 16:  ES64L-G16RevA.03 25-Dec-2016

 -----------------------------------
 #p cam-b3lyp/Def2SVP td=(nstates=5)
 -----------------------------------

 -------------------------------------------------------
 step_1251_chromophore_9 TDDFT with cam-b3lyp functional
 -------------------------------------------------------
 Symbolic Z-matrix:
 Charge =  0 Multiplicity = 1

                         Standard orientation:
 ---------------------------------------------------------------------
 Center     Atomic      Atomic             Coordinates (Angstroms)
 Number     Number       Type             X           Y           Z
 ---------------------------------------------------------------------
      1         12           0       -4.952765    0.809075   -0.173065
      2          6           0       -3.757614   -2.531221    0.312430
      3          6           0       -1.735135    1.741859   -0.452253
      4          6           0       -6.037364    4.042616   -0.030410
      5          6           0       -8.128900   -0.388007    0.506104
      6          7           0       -2.962826   -0.311448    0.024848
      7          6           0       -2.690520   -1.642654    0.030165
      8          6           0       -1.248187   -1.976759   -0.318355
      9          6           0       -0.537032   -0.537235   -0.058538
     10          6           0       -1.816608    0.390519   -0.122517
     11          6           0        0.178387   -0.555249    1.324968
     12          6           0       -1.122051   -2.430107   -1.826670
     13          6           0       -0.136225   -3.579632   -2.100431
     14          6           0        1.132516   -3.545015   -1.238688
     15          8           0        1.470182   -4.502577   -0.544211
     16          8           0        1.860953   -2.395024   -1.274325
     17          7           0       -4.053170    2.629102   -0.311064
     18          6           0       -2.688885    2.776422   -0.505190
     19          6           0       -2.442281    4.197163   -0.733003
     20          6           0       -3.622356    4.955236   -0.382932
     21          6           0       -4.633448    3.908098   -0.229091
     22          6           0       -1.065910    4.702955   -0.999187
     23          6           0       -3.919750    6.460070   -0.369199
     24          8           0       -5.047708    6.960702   -0.082716
     25          6           0       -2.795604    7.341296   -0.640500
     26          7           0       -6.770808    1.736106   -0.006918
     27          6           0       -7.005646    3.061878    0.096709
     28          6           0       -8.492167    3.337705    0.320934
     29          6           0       -9.184967    1.946171    0.186265
     30          6           0       -7.967280    0.970311    0.215378
     31          6           0       -8.815251    3.993442    1.703193
     32          6           0      -10.206928    1.827094   -0.912551
     33          6           0       -9.925914    0.784894   -2.068962
     34          7           0       -5.823942   -1.021419    0.354094
     35          6           0       -7.124890   -1.330398    0.688665
     36          6           0       -7.230274   -2.732527    0.979482
     37          6           0       -5.912826   -3.257103    0.821735
     38          6           0       -5.099370   -2.150144    0.493107
     39          6           0       -8.535068   -3.498535    1.161229
     40          6           0       -5.172298   -4.473733    0.777915
     41          8           0       -5.579923   -5.643279    0.801567
     42          6           0       -3.652196   -4.067764    0.530624
     43          6           0       -2.714742   -4.372747    1.681911
     44          8           0       -2.874482   -4.000674    2.835201
     45          8           0       -1.629019   -5.123250    1.361529
     46          6           0       -0.860814   -5.776603    2.473381
     47          6           0        3.145694   -2.508934   -0.477895
     48          6           0        4.123528   -2.903013   -1.587250
     49          6           0        5.493886   -2.917812   -1.439760
     50          6           0        6.349078   -2.735795   -0.218956
     51          6           0        6.227522   -3.150850   -2.656549
     52          6           0        6.499872   -1.815713   -3.386026
     53          6           0        7.955739   -1.483848   -3.957402
     54          6           0        8.425491   -0.133164   -3.404419
     55          6           0        8.949406    0.739676   -4.576786
     56          6           0        9.432916   -0.240766   -2.269005
     57          6           0        9.140990    0.714592   -1.024117
     58          6           0       10.437503    1.259966   -0.503584
     59          6           0       10.330317    2.799807   -0.135120
     60          6           0       11.050249    3.563237   -1.227527
     61          6           0       11.092674    3.019484    1.225124
     62          6           0       10.274470    2.640306    2.495044
     63          6           0       10.789261    1.446835    3.141180
     64          6           0       10.429969    1.443591    4.671583
     65          6           0       11.648162    1.992315    5.448578
     66          6           0        9.968162    0.072137    5.249865
     67          1           0       -0.724798    2.084969   -0.683355
     68          1           0       -6.440889    5.054044    0.056736
     69          1           0       -9.141250   -0.781874    0.609356
     70          1           0       -0.848149   -2.771148    0.311947
     71          1           0        0.232633   -0.347380   -0.806258
     72          1           0        1.197547   -0.917747    1.185343
     73          1           0       -0.246788   -1.134104    2.144532
     74          1           0        0.204293    0.474126    1.684461
     75          1           0       -0.948094   -1.704748   -2.621341
     76          1           0       -2.089251   -2.806537   -2.156645
     77          1           0        0.343785   -3.458970   -3.071662
     78          1           0       -0.574459   -4.572205   -1.991281
     79          1           0       -0.901208    5.638052   -1.535408
     80          1           0       -0.447798    3.978589   -1.530819
     81          1           0       -0.534040    4.778194   -0.050431
     82          1           0       -1.933663    7.118695   -0.011477
     83          1           0       -3.138533    8.367398   -0.507236
     84          1           0       -2.617529    7.354244   -1.715328
     85          1           0       -8.857814    4.048486   -0.420259
     86          1           0       -9.670781    1.590201    1.094362
     87          1           0       -9.414800    4.886002    1.524466
     88          1           0       -7.944892    4.346568    2.254879
     89          1           0       -9.409419    3.346857    2.348748
     90          1           0      -10.480126    2.784017   -1.357825
     91          1           0      -11.143441    1.523884   -0.444209
     92          1           0      -10.249225    1.214449   -3.016991
     93          1           0      -10.476039   -0.143083   -1.910673
     94          1           0       -8.858075    0.591010   -2.168317
     95          1           0       -8.401154   -4.551832    0.914958
     96          1           0       -9.230620   -3.115688    0.414321
     97          1           0       -8.864678   -3.257659    2.171352
     98          1           0       -3.378807   -4.680121   -0.329052
     99          1           0       -0.480527   -6.710956    2.060491
    100          1           0       -1.516229   -5.916011    3.333025
    101          1           0       -0.107516   -5.005477    2.640538
    102          1           0        3.149605   -3.218096    0.349266
    103          1           0        3.507181   -1.571892   -0.054584
    104          1           0        3.720026   -2.925932   -2.599713
    105          1           0        6.928985   -3.658079   -0.191506
    106          1           0        5.647725   -2.660191    0.611888
    107          1           0        6.974439   -1.854935   -0.369150
    108          1           0        5.623787   -3.720357   -3.362993
    109          1           0        7.226615   -3.587019   -2.643309
    110          1           0        6.136661   -1.028678   -2.724476
    111          1           0        5.882981   -1.784007   -4.283465
    112          1           0        7.782002   -1.450696   -5.033343
    113          1           0        8.676523   -2.263015   -3.712305
    114          1           0        7.525293    0.335431   -3.007420
    115          1           0        8.244012    1.437471   -5.027411
    116          1           0        9.453040    0.221979   -5.392959
    117          1           0        9.742791    1.419714   -4.266314
    118          1           0       10.426473   -0.223447   -2.717196
    119          1           0        9.287666   -1.217767   -1.807241
    120          1           0        8.661664    0.119851   -0.245982
    121          1           0        8.456801    1.557673   -1.124074
    122          1           0       11.256909    1.124313   -1.209193
    123          1           0       10.646349    0.609576    0.345879
    124          1           0        9.388689    3.334269   -0.008076
    125          1           0       10.766714    3.054254   -2.148281
    126          1           0       12.135003    3.627462   -1.151794
    127          1           0       10.647376    4.575426   -1.266027
    128          1           0       11.259503    4.095521    1.277670
    129          1           0       12.022510    2.454603    1.158226
    130          1           0        9.245744    2.424367    2.202220
    131          1           0       10.129347    3.444502    3.215944
    132          1           0       11.861015    1.492205    2.951431
    133          1           0       10.222547    0.682212    2.609082
    134          1           0        9.598799    2.135786    4.806202
    135          1           0       12.516056    2.184424    4.818917
    136          1           0       11.909587    1.433895    6.347880
    137          1           0       11.334441    2.967588    5.821311
    138          1           0       10.517541   -0.789693    4.871574
    139          1           0        8.914679   -0.049840    4.999376
    140          1           0        9.989875    0.298345    6.316510
 ---------------------------------------------------------------------

 SCF Done:  E(RCAM-B3LYP) =  -3007.15175421     A.U. after   17 cycles

 Excitation energies and oscillator strengths:

 Excited State   1:      Singlet-A      1.6802 eV  737.91 nm  f=0.3757  <S**2>=0.000
     245 -> 248        0.18177
     246 -> 247        0.68563
     245 <- 248        0.10993
 This state for optimization and/or second-order correction.
 Total Energy, E(TD-HF/TD-DFT) =  -3007.09000760
 Copying the excited state density for this state as the 1-particle RhoCI density.

 Excited State   2:      Singlet-A      2.2133 eV  560.17 nm  f=0.1161  <S**2>=0.000
     245 -> 247        0.64291
     246 -> 248       -0.28269

 Excited State   3:      Singlet-A      3.3367 eV  371.57 nm  f=0.0088  <S**2>=0.000
     242 -> 247       -0.36640
     243 -> 247        0.57814

 Excited State   4:      Singlet-A      3.4465 eV  359.74 nm  f=0.0669  <S**2>=0.000
     241 -> 247        0.35696
     241 -> 249        0.14717
     241 -> 250        0.15216
     242 -> 247        0.37628
     243 -> 247        0.24559
     246 -> 248        0.30939

 Excited State   5:      Singlet-A      3.4886 eV  355.40 nm  f=0.0154  <S**2>=0.000
     240 -> 247        0.15173
     241 -> 247        0.42734
     241 -> 249        0.21467
     241 -> 250        0.21965
     242 -> 247       -0.27432
     243 -> 247       -0.26529
     246 -> 248       -0.17329

 The electronic state is 1-A.
 Alpha  occ. eigenvalues --  -46.87874 -19.26215 -19.23826 -19.19303 -19.19288
 Alpha  occ. eigenvalues --  -19.18488 -19.18397 -14.42485 -14.41577 -14.39612
 Alpha  occ. eigenvalues --  -14.39122 -10.39356 -10.38659 -10.35827 -10.34638
 Alpha  occ. eigenvalues --  -10.32992 -10.31476 -10.31383 -10.31068 -10.31048
 Alpha  occ. eigenvalues --  -10.30839 -10.30604 -10.30493 -10.29609 -10.28962
 Alpha  occ. eigenvalues --  -10.28838 -10.28750 -10.28614 -10.28607 -10.28361
 Alpha  occ. eigenvalues --  -10.27989 -10.27969 -10.27685 -10.27588 -10.27450
 Alpha  occ. eigenvalues --  -10.27396 -10.27158 -10.26993 -10.26935 -10.26901
 Alpha  occ. eigenvalues --  -10.26683 -10.26172 -10.26068 -10.25991 -10.25957
 Alpha  occ. eigenvalues --  -10.25834 -10.25811 -10.25755 -10.25719 -10.25694
 Alpha  occ. eigenvalues --  -10.25522 -10.25399 -10.25328 -10.25254 -10.25233
 Alpha  occ. eigenvalues --  -10.25141 -10.24868 -10.24847 -10.24733 -10.24658
 Alpha  occ. eigenvalues --  -10.24647 -10.24603 -10.24356 -10.24273 -10.24005
 Alpha  occ. eigenvalues --  -10.23981  -3.16550  -1.91448  -1.91001  -1.90859
 Alpha  occ. eigenvalues --   -1.16688  -1.15378  -1.08382  -1.08138  -1.07072
 Alpha  occ. eigenvalues --   -1.05963  -1.04314  -1.03142  -1.02336  -1.01274
 Alpha  occ. eigenvalues --   -0.92159  -0.91677  -0.90579  -0.89497  -0.89252
 Alpha  occ. eigenvalues --   -0.88844  -0.87849  -0.87804  -0.87305  -0.86872
 Alpha  occ. eigenvalues --   -0.86011  -0.85380  -0.84336  -0.83581  -0.83238
 Alpha  occ. eigenvalues --   -0.82982  -0.82440  -0.81867  -0.81058  -0.80664
 Alpha  occ. eigenvalues --   -0.80265  -0.78496  -0.77952  -0.76898  -0.76662
 Alpha  occ. eigenvalues --   -0.76001  -0.75483  -0.75068  -0.74836  -0.74444
 Alpha  occ. eigenvalues --   -0.73086  -0.72398  -0.71404  -0.70762  -0.69741
 Alpha  occ. eigenvalues --   -0.68633  -0.68010  -0.67206  -0.66252  -0.65862
 Alpha  occ. eigenvalues --   -0.65469  -0.64683  -0.64462  -0.64411  -0.63901
 Alpha  occ. eigenvalues --   -0.63777  -0.63640  -0.62659  -0.61255  -0.60496
 Alpha  occ. eigenvalues --   -0.60192  -0.59717  -0.59012  -0.58321  -0.57604
 Alpha  occ. eigenvalues --   -0.57071  -0.56306  -0.55862  -0.55647  -0.55308
 Alpha  occ. eigenvalues --   -0.55132  -0.54634  -0.54545  -0.54431  -0.53919
 Alpha  occ. eigenvalues --   -0.53894  -0.53747  -0.53185  -0.53175  -0.52985
 Alpha  occ. eigenvalues --   -0.52708  -0.52614  -0.52383  -0.51961  -0.51820
 Alpha  occ. eigenvalues --   -0.51681  -0.51544  -0.51238  -0.51019  -0.50923
 Alpha  occ. eigenvalues --   -0.50886  -0.50605  -0.50508  -0.49664  -0.49631
 Alpha  occ. eigenvalues --   -0.49414  -0.49337  -0.48962  -0.48840  -0.48566
 Alpha  occ. eigenvalues --   -0.48497  -0.48225  -0.48107  -0.47770  -0.47576
 Alpha  occ. eigenvalues --   -0.47397  -0.47136  -0.46877  -0.46579  -0.46492
 Alpha  occ. eigenvalues --   -0.46428  -0.46333  -0.46008  -0.45918  -0.45902
 Alpha  occ. eigenvalues --   -0.45859  -0.45530  -0.45342  -0.45107  -0.44863
 Alpha  occ. eigenvalues --   -0.44818  -0.44403  -0.44133  -0.43911  -0.43845
 Alpha  occ. eigenvalues --   -0.43763  -0.43555  -0.43511  -0.43230  -0.43116
 Alpha  occ. eigenvalues --   -0.42896  -0.42859  -0.42638  -0.42432  -0.42027
 Alpha  occ. eigenvalues --   -0.41927  -0.41500  -0.41269  -0.41208  -0.41017
 Alpha  occ. eigenvalues --   -0.40920  -0.40911  -0.40830  -0.40676  -0.40221
 Alpha  occ. eigenvalues --   -0.39955  -0.39829  -0.39314  -0.38893  -0.38832
 Alpha  occ. eigenvalues --   -0.38352  -0.38154  -0.38071  -0.37996  -0.37955
 Alpha  occ. eigenvalues --   -0.37191  -0.37072  -0.36806  -0.36521  -0.36132
 Alpha  occ. eigenvalues --   -0.36062  -0.35530  -0.35020  -0.34368  -0.33495
 Alpha  occ. eigenvalues --   -0.33382  -0.33333  -0.33111  -0.31685  -0.31021
 Alpha  occ. eigenvalues --   -0.30460  -0.30097  -0.29413  -0.29029  -0.24072
 Alpha  occ. eigenvalues --   -0.21222
 Alpha virt. eigenvalues --   -0.08837  -0.01706  -0.00221   0.01762   0.02773
 Alpha virt. eigenvalues --    0.04463   0.05150   0.05672   0.06063   0.06714
 Alpha virt. eigenvalues --    0.06884   0.07903   0.08297   0.08642   0.08942

 Mulliken charges:
               1
     1  Mg   0.838126
     2  C   -0.078731
     3  C   -0.074178
     4  C   -0.068197
     5  C   -0.096123
     6  N   -0.241089
     7  C   -0.044050
     8  C   -0.054535
     9  C   -0.044195
    10  C    0.066065
    11  C    0.056194
    12  C    0.079151
    13  C    0.100540
    14  C    0.110104
    15  O   -0.243491
    16  O   -0.345811
    17  N   -0.421789
    18  C    0.164104
    19  C   -0.120230
    20  C   -0.039676
    21  C    0.132957
    22  C    0.070896
    23  C    0.025087
    24  O   -0.233509
    25  C    0.061165
    26  N   -0.356629
    27  C    0.083019
    28  C   -0.044883
    29  C    0.009486
    30  C    0.059350
    31  C    0.055979
    32  C    0.027993
    33  C   -0.003992
    34  N   -0.342508
    35  C    0.139155
    36  C   -0.186524
    37  C    0.008421
    38  C    0.164744
    39  C    0.126632
    40  C    0.035488
    41  O   -0.188823
    42  C    0.025829
    43  C    0.180437
    44  O   -0.227292
    45  O   -0.349612
    46  C    0.183123
    47  C    0.252242
    48  C   -0.128248
    49  C   -0.206205
    50  C    0.135320
    51  C    0.108807
    52  C   -0.057653
    53  C    0.066268
    54  C   -0.111004
    55  C    0.036417
    56  C    0.051364
    57  C    0.020101
    58  C    0.041804
    59  C   -0.148656
    60  C    0.062508
    61  C    0.034963
    62  C    0.012963
    63  C    0.054521
    64  C   -0.161720
    65  C    0.043931
    66  C    0.056105
    67  H   -0.034829
    68  H   -0.008917
    69  H   -0.025990
    70  H    0.037327
    71  H    0.017027
    72  H    0.011828
    73  H    0.031339
    74  H    0.006723
    75  H    0.008633
    76  H    0.007580
    77  H    0.021582
    78  H    0.040375
    79  H    0.025207
    80  H    0.015860
    81  H    0.032280
    82  H    0.051824
    83  H    0.018451
    84  H    0.042067
    85  H    0.018447
    86  H    0.005914
    87  H    0.010870
    88  H    0.024569
    89  H    0.015417
    90  H    0.003096
    91  H   -0.004446
    92  H    0.009508
    93  H    0.017669
    94  H    0.034335
    95  H    0.038860
    96  H    0.017632
    97  H    0.034467
    98  H    0.029855
    99  H    0.054496
   100  H    0.055815
   101  H    0.042664
   102  H    0.059837
   103  H    0.036629
   104  H    0.009428
   105  H    0.033143
   106  H    0.003459
   107  H    0.026829
   108  H    0.001046
   109  H   -0.016641
   110  H    0.007388
   111  H   -0.002861
   112  H   -0.002900
   113  H   -0.001977
   114  H   -0.004718
   115  H    0.005656
   116  H    0.005033
   117  H   -0.013112
   118  H    0.006565
   119  H   -0.014480
   120  H   -0.005627
   121  H    0.003346
   122  H    0.002776
   123  H   -0.006410
   124  H   -0.000335
   125  H    0.002096
   126  H    0.011703
   127  H   -0.002397
   128  H   -0.015146
   129  H   -0.001134
   130  H   -0.022068
   131  H   -0.011420
   132  H    0.001089
   133  H   -0.005031
   134  H   -0.002643
   135  H    0.009358
   136  H    0.007829
   137  H   -0.000665
   138  H    0.023174
   139  H   -0.003265
   140  H    0.006903
 Sum of Mulliken charges =  -0.00000

 Dipole moment (field-independent basis, Debye):
    X=              4.7475    Y=              3.6815    Z=             -3.5868  Tot=              6.9969
 Quadrupole moment (field-independent basis, Debye-Ang):
   XX=           -384.9557   YY=           -441.4716   ZZ=           -403.8669
   XY=            -10.5221   XZ=              9.8059   YZ=              3.1706

 Normal termination of Gaussian 16 at Wed May  4 02:15:02 2022.
