 Gaussian 16, Revision A.03,
 Gaussian 16:  ES64L-G16RevA.03 25-Dec-2016

 ---------------------------------
 #p PBE1PBE/Def2SVP td=(nstates=5)
 ---------------------------------

 -----------------------------------------------------
 step_1251_chromophore_9 TDDFT with PBE1PBE functional
 -----------------------------------------------------
 Symbolic Z-matrix:
 Charge =  0 Multiplicity = 1

                         Standard orientation:
 ---------------------------------------------------------------------
 Center     Atomic      Atomic             Coordinates (Angstroms)
 Number     Number       Type             X           Y           Z
 ---------------------------------------------------------------------
      1         12           0       -4.952765    0.809075   -0.173065
      2          6           0       -3.757614   -2.531221    0.312430
      3          6           0       -1.735135    1.741859   -0.452253
      4          6           0       -6.037364    4.042616   -0.030410
      5          6           0       -8.128900   -0.388007    0.506104
      6          7           0       -2.962826   -0.311448    0.024848
      7          6           0       -2.690520   -1.642654    0.030165
      8          6           0       -1.248187   -1.976759   -0.318355
      9          6           0       -0.537032   -0.537235   -0.058538
     10          6           0       -1.816608    0.390519   -0.122517
     11          6           0        0.178387   -0.555249    1.324968
     12          6           0       -1.122051   -2.430107   -1.826670
     13          6           0       -0.136225   -3.579632   -2.100431
     14          6           0        1.132516   -3.545015   -1.238688
     15          8           0        1.470182   -4.502577   -0.544211
     16          8           0        1.860953   -2.395024   -1.274325
     17          7           0       -4.053170    2.629102   -0.311064
     18          6           0       -2.688885    2.776422   -0.505190
     19          6           0       -2.442281    4.197163   -0.733003
     20          6           0       -3.622356    4.955236   -0.382932
     21          6           0       -4.633448    3.908098   -0.229091
     22          6           0       -1.065910    4.702955   -0.999187
     23          6           0       -3.919750    6.460070   -0.369199
     24          8           0       -5.047708    6.960702   -0.082716
     25          6           0       -2.795604    7.341296   -0.640500
     26          7           0       -6.770808    1.736106   -0.006918
     27          6           0       -7.005646    3.061878    0.096709
     28          6           0       -8.492167    3.337705    0.320934
     29          6           0       -9.184967    1.946171    0.186265
     30          6           0       -7.967280    0.970311    0.215378
     31          6           0       -8.815251    3.993442    1.703193
     32          6           0      -10.206928    1.827094   -0.912551
     33          6           0       -9.925914    0.784894   -2.068962
     34          7           0       -5.823942   -1.021419    0.354094
     35          6           0       -7.124890   -1.330398    0.688665
     36          6           0       -7.230274   -2.732527    0.979482
     37          6           0       -5.912826   -3.257103    0.821735
     38          6           0       -5.099370   -2.150144    0.493107
     39          6           0       -8.535068   -3.498535    1.161229
     40          6           0       -5.172298   -4.473733    0.777915
     41          8           0       -5.579923   -5.643279    0.801567
     42          6           0       -3.652196   -4.067764    0.530624
     43          6           0       -2.714742   -4.372747    1.681911
     44          8           0       -2.874482   -4.000674    2.835201
     45          8           0       -1.629019   -5.123250    1.361529
     46          6           0       -0.860814   -5.776603    2.473381
     47          6           0        3.145694   -2.508934   -0.477895
     48          6           0        4.123528   -2.903013   -1.587250
     49          6           0        5.493886   -2.917812   -1.439760
     50          6           0        6.349078   -2.735795   -0.218956
     51          6           0        6.227522   -3.150850   -2.656549
     52          6           0        6.499872   -1.815713   -3.386026
     53          6           0        7.955739   -1.483848   -3.957402
     54          6           0        8.425491   -0.133164   -3.404419
     55          6           0        8.949406    0.739676   -4.576786
     56          6           0        9.432916   -0.240766   -2.269005
     57          6           0        9.140990    0.714592   -1.024117
     58          6           0       10.437503    1.259966   -0.503584
     59          6           0       10.330317    2.799807   -0.135120
     60          6           0       11.050249    3.563237   -1.227527
     61          6           0       11.092674    3.019484    1.225124
     62          6           0       10.274470    2.640306    2.495044
     63          6           0       10.789261    1.446835    3.141180
     64          6           0       10.429969    1.443591    4.671583
     65          6           0       11.648162    1.992315    5.448578
     66          6           0        9.968162    0.072137    5.249865
     67          1           0       -0.724798    2.084969   -0.683355
     68          1           0       -6.440889    5.054044    0.056736
     69          1           0       -9.141250   -0.781874    0.609356
     70          1           0       -0.848149   -2.771148    0.311947
     71          1           0        0.232633   -0.347380   -0.806258
     72          1           0        1.197547   -0.917747    1.185343
     73          1           0       -0.246788   -1.134104    2.144532
     74          1           0        0.204293    0.474126    1.684461
     75          1           0       -0.948094   -1.704748   -2.621341
     76          1           0       -2.089251   -2.806537   -2.156645
     77          1           0        0.343785   -3.458970   -3.071662
     78          1           0       -0.574459   -4.572205   -1.991281
     79          1           0       -0.901208    5.638052   -1.535408
     80          1           0       -0.447798    3.978589   -1.530819
     81          1           0       -0.534040    4.778194   -0.050431
     82          1           0       -1.933663    7.118695   -0.011477
     83          1           0       -3.138533    8.367398   -0.507236
     84          1           0       -2.617529    7.354244   -1.715328
     85          1           0       -8.857814    4.048486   -0.420259
     86          1           0       -9.670781    1.590201    1.094362
     87          1           0       -9.414800    4.886002    1.524466
     88          1           0       -7.944892    4.346568    2.254879
     89          1           0       -9.409419    3.346857    2.348748
     90          1           0      -10.480126    2.784017   -1.357825
     91          1           0      -11.143441    1.523884   -0.444209
     92          1           0      -10.249225    1.214449   -3.016991
     93          1           0      -10.476039   -0.143083   -1.910673
     94          1           0       -8.858075    0.591010   -2.168317
     95          1           0       -8.401154   -4.551832    0.914958
     96          1           0       -9.230620   -3.115688    0.414321
     97          1           0       -8.864678   -3.257659    2.171352
     98          1           0       -3.378807   -4.680121   -0.329052
     99          1           0       -0.480527   -6.710956    2.060491
    100          1           0       -1.516229   -5.916011    3.333025
    101          1           0       -0.107516   -5.005477    2.640538
    102          1           0        3.149605   -3.218096    0.349266
    103          1           0        3.507181   -1.571892   -0.054584
    104          1           0        3.720026   -2.925932   -2.599713
    105          1           0        6.928985   -3.658079   -0.191506
    106          1           0        5.647725   -2.660191    0.611888
    107          1           0        6.974439   -1.854935   -0.369150
    108          1           0        5.623787   -3.720357   -3.362993
    109          1           0        7.226615   -3.587019   -2.643309
    110          1           0        6.136661   -1.028678   -2.724476
    111          1           0        5.882981   -1.784007   -4.283465
    112          1           0        7.782002   -1.450696   -5.033343
    113          1           0        8.676523   -2.263015   -3.712305
    114          1           0        7.525293    0.335431   -3.007420
    115          1           0        8.244012    1.437471   -5.027411
    116          1           0        9.453040    0.221979   -5.392959
    117          1           0        9.742791    1.419714   -4.266314
    118          1           0       10.426473   -0.223447   -2.717196
    119          1           0        9.287666   -1.217767   -1.807241
    120          1           0        8.661664    0.119851   -0.245982
    121          1           0        8.456801    1.557673   -1.124074
    122          1           0       11.256909    1.124313   -1.209193
    123          1           0       10.646349    0.609576    0.345879
    124          1           0        9.388689    3.334269   -0.008076
    125          1           0       10.766714    3.054254   -2.148281
    126          1           0       12.135003    3.627462   -1.151794
    127          1           0       10.647376    4.575426   -1.266027
    128          1           0       11.259503    4.095521    1.277670
    129          1           0       12.022510    2.454603    1.158226
    130          1           0        9.245744    2.424367    2.202220
    131          1           0       10.129347    3.444502    3.215944
    132          1           0       11.861015    1.492205    2.951431
    133          1           0       10.222547    0.682212    2.609082
    134          1           0        9.598799    2.135786    4.806202
    135          1           0       12.516056    2.184424    4.818917
    136          1           0       11.909587    1.433895    6.347880
    137          1           0       11.334441    2.967588    5.821311
    138          1           0       10.517541   -0.789693    4.871574
    139          1           0        8.914679   -0.049840    4.999376
    140          1           0        9.989875    0.298345    6.316510
 ---------------------------------------------------------------------

 SCF Done:  E(RPBE1PBE) =  -3005.34036568     A.U. after   15 cycles

 Excitation energies and oscillator strengths:

 Excited State   1:      Singlet-A      1.8338 eV  676.12 nm  f=0.3663  <S**2>=0.000
     245 -> 248        0.17167
     246 -> 247        0.69336
     246 <- 247       -0.10791
 This state for optimization and/or second-order correction.
 Total Energy, E(TD-HF/TD-DFT) =  -3005.27297599
 Copying the excited state density for this state as the 1-particle RhoCI density.

 Excited State   2:      Singlet-A      2.2141 eV  559.97 nm  f=0.1101  <S**2>=0.000
     245 -> 247        0.65405
     246 -> 248       -0.25535

 Excited State   3:      Singlet-A      2.9464 eV  420.80 nm  f=0.0002  <S**2>=0.000
     242 -> 247        0.57599
     242 -> 249        0.14220
     242 -> 250        0.12103
     243 -> 247        0.35675

 Excited State   4:      Singlet-A      3.0168 eV  410.99 nm  f=0.0016  <S**2>=0.000
     241 -> 247       -0.18391
     242 -> 247       -0.33947
     243 -> 247        0.57795

 Excited State   5:      Singlet-A      3.1247 eV  396.79 nm  f=0.0054  <S**2>=0.000
     240 -> 247       -0.36502
     240 -> 249        0.13552
     241 -> 247        0.53738
     243 -> 247        0.15394
     246 -> 248        0.11934

 The electronic state is 1-A.
 Alpha  occ. eigenvalues --  -46.91303 -19.26899 -19.24479 -19.19607 -19.19433
 Alpha  occ. eigenvalues --  -19.18842 -19.18620 -14.41893 -14.41217 -14.39271
 Alpha  occ. eigenvalues --  -14.38858 -10.36442 -10.35673 -10.32834 -10.31867
 Alpha  occ. eigenvalues --  -10.30441 -10.29016 -10.28985 -10.28891 -10.28706
 Alpha  occ. eigenvalues --  -10.28392 -10.28220 -10.28060 -10.27072 -10.26834
 Alpha  occ. eigenvalues --  -10.26678 -10.26546 -10.26416 -10.26259 -10.26150
 Alpha  occ. eigenvalues --  -10.25558 -10.25508 -10.25478 -10.25344 -10.25279
 Alpha  occ. eigenvalues --  -10.24908 -10.24800 -10.24561 -10.24463 -10.24418
 Alpha  occ. eigenvalues --  -10.24343 -10.23669 -10.23657 -10.23554 -10.23490
 Alpha  occ. eigenvalues --  -10.23412 -10.23389 -10.23387 -10.23349 -10.23307
 Alpha  occ. eigenvalues --  -10.23089 -10.22937 -10.22855 -10.22827 -10.22820
 Alpha  occ. eigenvalues --  -10.22621 -10.22601 -10.22411 -10.22404 -10.22237
 Alpha  occ. eigenvalues --  -10.22027 -10.22003 -10.21739 -10.21660 -10.21521
 Alpha  occ. eigenvalues --  -10.21480  -3.13555  -1.86395  -1.85925  -1.85787
 Alpha  occ. eigenvalues --   -1.11497  -1.10148  -1.03214  -1.02724  -1.01947
 Alpha  occ. eigenvalues --   -1.00784  -0.98924  -0.97891  -0.96911  -0.95880
 Alpha  occ. eigenvalues --   -0.86558  -0.85813  -0.84660  -0.83660  -0.83402
 Alpha  occ. eigenvalues --   -0.83155  -0.82086  -0.81962  -0.81472  -0.81230
 Alpha  occ. eigenvalues --   -0.80418  -0.79622  -0.78485  -0.77765  -0.77567
 Alpha  occ. eigenvalues --   -0.77143  -0.76654  -0.76047  -0.75348  -0.74870
 Alpha  occ. eigenvalues --   -0.74594  -0.72729  -0.72245  -0.71239  -0.70817
 Alpha  occ. eigenvalues --   -0.70331  -0.69565  -0.69218  -0.69173  -0.68593
 Alpha  occ. eigenvalues --   -0.67435  -0.66831  -0.65843  -0.65078  -0.64140
 Alpha  occ. eigenvalues --   -0.63079  -0.62216  -0.61622  -0.60501  -0.60236
 Alpha  occ. eigenvalues --   -0.59655  -0.59234  -0.58907  -0.58574  -0.58531
 Alpha  occ. eigenvalues --   -0.58225  -0.57866  -0.56863  -0.55858  -0.54876
 Alpha  occ. eigenvalues --   -0.54652  -0.54194  -0.53609  -0.53034  -0.52080
 Alpha  occ. eigenvalues --   -0.51631  -0.50767  -0.50268  -0.50210  -0.49932
 Alpha  occ. eigenvalues --   -0.49483  -0.49199  -0.49023  -0.48919  -0.48483
 Alpha  occ. eigenvalues --   -0.48385  -0.48199  -0.47711  -0.47531  -0.47490
 Alpha  occ. eigenvalues --   -0.47220  -0.47137  -0.46940  -0.46512  -0.46449
 Alpha  occ. eigenvalues --   -0.46258  -0.46179  -0.45757  -0.45606  -0.45505
 Alpha  occ. eigenvalues --   -0.45407  -0.45161  -0.45027  -0.44253  -0.44187
 Alpha  occ. eigenvalues --   -0.43980  -0.43916  -0.43581  -0.43435  -0.43202
 Alpha  occ. eigenvalues --   -0.43048  -0.42887  -0.42686  -0.42440  -0.42298
 Alpha  occ. eigenvalues --   -0.41987  -0.41850  -0.41596  -0.41213  -0.41147
 Alpha  occ. eigenvalues --   -0.41042  -0.41017  -0.40752  -0.40670  -0.40632
 Alpha  occ. eigenvalues --   -0.40507  -0.40235  -0.39990  -0.39743  -0.39613
 Alpha  occ. eigenvalues --   -0.39588  -0.39151  -0.38826  -0.38695  -0.38596
 Alpha  occ. eigenvalues --   -0.38567  -0.38333  -0.38283  -0.38022  -0.37834
 Alpha  occ. eigenvalues --   -0.37687  -0.37559  -0.37375  -0.37320  -0.36882
 Alpha  occ. eigenvalues --   -0.36803  -0.36392  -0.36114  -0.35992  -0.35828
 Alpha  occ. eigenvalues --   -0.35807  -0.35643  -0.35630  -0.35526  -0.35004
 Alpha  occ. eigenvalues --   -0.34739  -0.34560  -0.34083  -0.33806  -0.33672
 Alpha  occ. eigenvalues --   -0.33156  -0.33128  -0.32974  -0.32967  -0.32828
 Alpha  occ. eigenvalues --   -0.32245  -0.31969  -0.31720  -0.31330  -0.31232
 Alpha  occ. eigenvalues --   -0.30924  -0.30449  -0.29969  -0.29610  -0.28971
 Alpha  occ. eigenvalues --   -0.28337  -0.28214  -0.27952  -0.26664  -0.26303
 Alpha  occ. eigenvalues --   -0.25642  -0.25442  -0.25161  -0.24368  -0.21008
 Alpha  occ. eigenvalues --   -0.18848
 Alpha virt. eigenvalues --   -0.11297  -0.05231  -0.04388  -0.02658  -0.00120
 Alpha virt. eigenvalues --    0.00077   0.00707   0.01002   0.01479   0.03133
 Alpha virt. eigenvalues --    0.03551   0.04121   0.04396   0.04929   0.05384

 Mulliken charges:
               1
     1  Mg   0.990346
     2  C   -0.084647
     3  C   -0.071793
     4  C   -0.058657
     5  C   -0.085714
     6  N   -0.343488
     7  C    0.030313
     8  C   -0.129769
     9  C   -0.117448
    10  C    0.103466
    11  C   -0.002059
    12  C    0.035658
    13  C    0.022821
    14  C    0.175715
    15  O   -0.275121
    16  O   -0.372683
    17  N   -0.534575
    18  C    0.186962
    19  C   -0.152148
    20  C   -0.077322
    21  C    0.161273
    22  C    0.011553
    23  C    0.070198
    24  O   -0.271612
    25  C   -0.013153
    26  N   -0.460731
    27  C    0.117452
    28  C   -0.127831
    29  C   -0.053286
    30  C    0.082719
    31  C    0.002212
    32  C   -0.030874
    33  C   -0.079752
    34  N   -0.469916
    35  C    0.158574
    36  C   -0.194502
    37  C   -0.042747
    38  C    0.209355
    39  C    0.069356
    40  C    0.130012
    41  O   -0.233265
    42  C   -0.075718
    43  C    0.269634
    44  O   -0.261815
    45  O   -0.383058
    46  C    0.129297
    47  C    0.204426
    48  C   -0.130273
    49  C   -0.256030
    50  C    0.061503
    51  C    0.040288
    52  C   -0.109345
    53  C    0.011717
    54  C   -0.199376
    55  C   -0.024067
    56  C   -0.006844
    57  C   -0.040718
    58  C   -0.010679
    59  C   -0.238915
    60  C   -0.000846
    61  C   -0.022678
    62  C   -0.038759
    63  C   -0.009205
    64  C   -0.253069
    65  C   -0.013737
    66  C   -0.008220
    67  H   -0.003506
    68  H    0.023414
    69  H    0.005527
    70  H    0.081390
    71  H    0.050908
    72  H    0.044564
    73  H    0.057081
    74  H    0.036022
    75  H    0.039458
    76  H    0.042298
    77  H    0.055378
    78  H    0.071276
    79  H    0.051350
    80  H    0.042824
    81  H    0.060201
    82  H    0.077225
    83  H    0.046327
    84  H    0.068967
    85  H    0.054412
    86  H    0.042869
    87  H    0.038287
    88  H    0.051867
    89  H    0.042123
    90  H    0.034937
    91  H    0.028743
    92  H    0.038519
    93  H    0.044576
    94  H    0.064974
    95  H    0.066777
    96  H    0.044956
    97  H    0.063334
    98  H    0.065728
    99  H    0.075298
   100  H    0.076080
   101  H    0.064003
   102  H    0.085218
   103  H    0.062002
   104  H    0.038297
   105  H    0.061107
   106  H    0.032359
   107  H    0.060512
   108  H    0.034671
   109  H    0.016549
   110  H    0.038964
   111  H    0.029879
   112  H    0.030268
   113  H    0.028876
   114  H    0.035083
   115  H    0.033646
   116  H    0.032105
   117  H    0.016987
   118  H    0.036796
   119  H    0.020930
   120  H    0.029212
   121  H    0.034089
   122  H    0.034248
   123  H    0.028477
   124  H    0.035211
   125  H    0.034837
   126  H    0.038735
   127  H    0.026605
   128  H    0.019319
   129  H    0.030350
   130  H    0.011932
   131  H    0.020524
   132  H    0.033243
   133  H    0.029165
   134  H    0.034523
   135  H    0.035973
   136  H    0.034419
   137  H    0.027164
   138  H    0.050068
   139  H    0.025857
   140  H    0.035206
 Sum of Mulliken charges =  -0.00000

 Dipole moment (field-independent basis, Debye):
    X=              4.4843    Y=              3.4813    Z=             -3.5979  Tot=              6.7211
 Quadrupole moment (field-independent basis, Debye-Ang):
   XX=           -377.3535   YY=           -439.6828   ZZ=           -401.2013
   XY=             -9.6550   XZ=              9.2779   YZ=              3.4470

 Normal termination of Gaussian 16 at Wed May  4 02:36:18 2022.
