 Gaussian 16, Revision A.03,
 Gaussian 16:  ES64L-G16RevA.03 25-Dec-2016

 --------------------------------
 #p wB97XD/Def2SVP td=(nstates=5)
 --------------------------------

 ----------------------------------------------------
 step_1251_chromophore_9 TDDFT with wB97XD functional
 ----------------------------------------------------
 Symbolic Z-matrix:
 Charge =  0 Multiplicity = 1

                         Standard orientation:
 ---------------------------------------------------------------------
 Center     Atomic      Atomic             Coordinates (Angstroms)
 Number     Number       Type             X           Y           Z
 ---------------------------------------------------------------------
      1         12           0       -4.952765    0.809075   -0.173065
      2          6           0       -3.757614   -2.531221    0.312430
      3          6           0       -1.735135    1.741859   -0.452253
      4          6           0       -6.037364    4.042616   -0.030410
      5          6           0       -8.128900   -0.388007    0.506104
      6          7           0       -2.962826   -0.311448    0.024848
      7          6           0       -2.690520   -1.642654    0.030165
      8          6           0       -1.248187   -1.976759   -0.318355
      9          6           0       -0.537032   -0.537235   -0.058538
     10          6           0       -1.816608    0.390519   -0.122517
     11          6           0        0.178387   -0.555249    1.324968
     12          6           0       -1.122051   -2.430107   -1.826670
     13          6           0       -0.136225   -3.579632   -2.100431
     14          6           0        1.132516   -3.545015   -1.238688
     15          8           0        1.470182   -4.502577   -0.544211
     16          8           0        1.860953   -2.395024   -1.274325
     17          7           0       -4.053170    2.629102   -0.311064
     18          6           0       -2.688885    2.776422   -0.505190
     19          6           0       -2.442281    4.197163   -0.733003
     20          6           0       -3.622356    4.955236   -0.382932
     21          6           0       -4.633448    3.908098   -0.229091
     22          6           0       -1.065910    4.702955   -0.999187
     23          6           0       -3.919750    6.460070   -0.369199
     24          8           0       -5.047708    6.960702   -0.082716
     25          6           0       -2.795604    7.341296   -0.640500
     26          7           0       -6.770808    1.736106   -0.006918
     27          6           0       -7.005646    3.061878    0.096709
     28          6           0       -8.492167    3.337705    0.320934
     29          6           0       -9.184967    1.946171    0.186265
     30          6           0       -7.967280    0.970311    0.215378
     31          6           0       -8.815251    3.993442    1.703193
     32          6           0      -10.206928    1.827094   -0.912551
     33          6           0       -9.925914    0.784894   -2.068962
     34          7           0       -5.823942   -1.021419    0.354094
     35          6           0       -7.124890   -1.330398    0.688665
     36          6           0       -7.230274   -2.732527    0.979482
     37          6           0       -5.912826   -3.257103    0.821735
     38          6           0       -5.099370   -2.150144    0.493107
     39          6           0       -8.535068   -3.498535    1.161229
     40          6           0       -5.172298   -4.473733    0.777915
     41          8           0       -5.579923   -5.643279    0.801567
     42          6           0       -3.652196   -4.067764    0.530624
     43          6           0       -2.714742   -4.372747    1.681911
     44          8           0       -2.874482   -4.000674    2.835201
     45          8           0       -1.629019   -5.123250    1.361529
     46          6           0       -0.860814   -5.776603    2.473381
     47          6           0        3.145694   -2.508934   -0.477895
     48          6           0        4.123528   -2.903013   -1.587250
     49          6           0        5.493886   -2.917812   -1.439760
     50          6           0        6.349078   -2.735795   -0.218956
     51          6           0        6.227522   -3.150850   -2.656549
     52          6           0        6.499872   -1.815713   -3.386026
     53          6           0        7.955739   -1.483848   -3.957402
     54          6           0        8.425491   -0.133164   -3.404419
     55          6           0        8.949406    0.739676   -4.576786
     56          6           0        9.432916   -0.240766   -2.269005
     57          6           0        9.140990    0.714592   -1.024117
     58          6           0       10.437503    1.259966   -0.503584
     59          6           0       10.330317    2.799807   -0.135120
     60          6           0       11.050249    3.563237   -1.227527
     61          6           0       11.092674    3.019484    1.225124
     62          6           0       10.274470    2.640306    2.495044
     63          6           0       10.789261    1.446835    3.141180
     64          6           0       10.429969    1.443591    4.671583
     65          6           0       11.648162    1.992315    5.448578
     66          6           0        9.968162    0.072137    5.249865
     67          1           0       -0.724798    2.084969   -0.683355
     68          1           0       -6.440889    5.054044    0.056736
     69          1           0       -9.141250   -0.781874    0.609356
     70          1           0       -0.848149   -2.771148    0.311947
     71          1           0        0.232633   -0.347380   -0.806258
     72          1           0        1.197547   -0.917747    1.185343
     73          1           0       -0.246788   -1.134104    2.144532
     74          1           0        0.204293    0.474126    1.684461
     75          1           0       -0.948094   -1.704748   -2.621341
     76          1           0       -2.089251   -2.806537   -2.156645
     77          1           0        0.343785   -3.458970   -3.071662
     78          1           0       -0.574459   -4.572205   -1.991281
     79          1           0       -0.901208    5.638052   -1.535408
     80          1           0       -0.447798    3.978589   -1.530819
     81          1           0       -0.534040    4.778194   -0.050431
     82          1           0       -1.933663    7.118695   -0.011477
     83          1           0       -3.138533    8.367398   -0.507236
     84          1           0       -2.617529    7.354244   -1.715328
     85          1           0       -8.857814    4.048486   -0.420259
     86          1           0       -9.670781    1.590201    1.094362
     87          1           0       -9.414800    4.886002    1.524466
     88          1           0       -7.944892    4.346568    2.254879
     89          1           0       -9.409419    3.346857    2.348748
     90          1           0      -10.480126    2.784017   -1.357825
     91          1           0      -11.143441    1.523884   -0.444209
     92          1           0      -10.249225    1.214449   -3.016991
     93          1           0      -10.476039   -0.143083   -1.910673
     94          1           0       -8.858075    0.591010   -2.168317
     95          1           0       -8.401154   -4.551832    0.914958
     96          1           0       -9.230620   -3.115688    0.414321
     97          1           0       -8.864678   -3.257659    2.171352
     98          1           0       -3.378807   -4.680121   -0.329052
     99          1           0       -0.480527   -6.710956    2.060491
    100          1           0       -1.516229   -5.916011    3.333025
    101          1           0       -0.107516   -5.005477    2.640538
    102          1           0        3.149605   -3.218096    0.349266
    103          1           0        3.507181   -1.571892   -0.054584
    104          1           0        3.720026   -2.925932   -2.599713
    105          1           0        6.928985   -3.658079   -0.191506
    106          1           0        5.647725   -2.660191    0.611888
    107          1           0        6.974439   -1.854935   -0.369150
    108          1           0        5.623787   -3.720357   -3.362993
    109          1           0        7.226615   -3.587019   -2.643309
    110          1           0        6.136661   -1.028678   -2.724476
    111          1           0        5.882981   -1.784007   -4.283465
    112          1           0        7.782002   -1.450696   -5.033343
    113          1           0        8.676523   -2.263015   -3.712305
    114          1           0        7.525293    0.335431   -3.007420
    115          1           0        8.244012    1.437471   -5.027411
    116          1           0        9.453040    0.221979   -5.392959
    117          1           0        9.742791    1.419714   -4.266314
    118          1           0       10.426473   -0.223447   -2.717196
    119          1           0        9.287666   -1.217767   -1.807241
    120          1           0        8.661664    0.119851   -0.245982
    121          1           0        8.456801    1.557673   -1.124074
    122          1           0       11.256909    1.124313   -1.209193
    123          1           0       10.646349    0.609576    0.345879
    124          1           0        9.388689    3.334269   -0.008076
    125          1           0       10.766714    3.054254   -2.148281
    126          1           0       12.135003    3.627462   -1.151794
    127          1           0       10.647376    4.575426   -1.266027
    128          1           0       11.259503    4.095521    1.277670
    129          1           0       12.022510    2.454603    1.158226
    130          1           0        9.245744    2.424367    2.202220
    131          1           0       10.129347    3.444502    3.215944
    132          1           0       11.861015    1.492205    2.951431
    133          1           0       10.222547    0.682212    2.609082
    134          1           0        9.598799    2.135786    4.806202
    135          1           0       12.516056    2.184424    4.818917
    136          1           0       11.909587    1.433895    6.347880
    137          1           0       11.334441    2.967588    5.821311
    138          1           0       10.517541   -0.789693    4.871574
    139          1           0        8.914679   -0.049840    4.999376
    140          1           0        9.989875    0.298345    6.316510
 ---------------------------------------------------------------------

 SCF Done:  E(RwB97XD) =  -3007.85104599     A.U. after   20 cycles

 Excitation energies and oscillator strengths:

 Excited State   1:      Singlet-A      1.6249 eV  763.04 nm  f=0.3737  <S**2>=0.000
     245 -> 248        0.18740
     246 -> 247        0.68329
     245 <- 248        0.11913
 This state for optimization and/or second-order correction.
 Total Energy, E(TD-HF/TD-DFT) =  -3007.79133326
 Copying the excited state density for this state as the 1-particle RhoCI density.

 Excited State   2:      Singlet-A      2.1594 eV  574.16 nm  f=0.1126  <S**2>=0.000
     245 -> 247        0.64063
     246 -> 248       -0.28502

 Excited State   3:      Singlet-A      3.3570 eV  369.33 nm  f=0.0144  <S**2>=0.000
     242 -> 247       -0.42578
     243 -> 247        0.52476
     246 -> 248       -0.13002

 Excited State   4:      Singlet-A      3.4696 eV  357.34 nm  f=0.1068  <S**2>=0.000
     241 -> 247        0.31315
     241 -> 249        0.12217
     241 -> 250        0.12966
     242 -> 247        0.30144
     243 -> 247        0.33457
     246 -> 248        0.35882

 Excited State   5:      Singlet-A      3.5294 eV  351.29 nm  f=0.0185  <S**2>=0.000
     240 -> 247        0.10982
     241 -> 247        0.44798
     241 -> 249        0.25339
     241 -> 250        0.25650
     242 -> 247       -0.22803
     243 -> 247       -0.23094
     246 -> 248       -0.15936

 The electronic state is 1-A.
 Alpha  occ. eigenvalues --  -46.94225 -19.31423 -19.29017 -19.24386 -19.24206
 Alpha  occ. eigenvalues --  -19.23529 -19.23315 -14.47090 -14.46187 -14.44259
 Alpha  occ. eigenvalues --  -14.43706 -10.43159 -10.42479 -10.39835 -10.38641
 Alpha  occ. eigenvalues --  -10.36916 -10.35439 -10.35192 -10.35076 -10.35059
 Alpha  occ. eigenvalues --  -10.34946 -10.34637 -10.34589 -10.33835 -10.32923
 Alpha  occ. eigenvalues --  -10.32921 -10.32835 -10.32647 -10.32569 -10.32494
 Alpha  occ. eigenvalues --  -10.32120 -10.31880 -10.31669 -10.31652 -10.31487
 Alpha  occ. eigenvalues --  -10.31485 -10.31144 -10.30933 -10.30910 -10.30807
 Alpha  occ. eigenvalues --  -10.30667 -10.30058 -10.30034 -10.29901 -10.29831
 Alpha  occ. eigenvalues --  -10.29822 -10.29774 -10.29736 -10.29709 -10.29607
 Alpha  occ. eigenvalues --  -10.29476 -10.29328 -10.29203 -10.29185 -10.29182
 Alpha  occ. eigenvalues --  -10.28955 -10.28794 -10.28780 -10.28740 -10.28599
 Alpha  occ. eigenvalues --  -10.28464 -10.28444 -10.28186 -10.28089 -10.27899
 Alpha  occ. eigenvalues --  -10.27872  -3.20324  -1.93914  -1.93447  -1.93306
 Alpha  occ. eigenvalues --   -1.18842  -1.17521  -1.10596  -1.10380  -1.09247
 Alpha  occ. eigenvalues --   -1.08134  -1.06311  -1.05151  -1.04370  -1.03311
 Alpha  occ. eigenvalues --   -0.94117  -0.93483  -0.92336  -0.91305  -0.91057
 Alpha  occ. eigenvalues --   -0.90736  -0.89739  -0.89630  -0.89292  -0.88789
 Alpha  occ. eigenvalues --   -0.87936  -0.87254  -0.86160  -0.85509  -0.85146
 Alpha  occ. eigenvalues --   -0.84855  -0.84343  -0.83709  -0.82956  -0.82525
 Alpha  occ. eigenvalues --   -0.82215  -0.80482  -0.79845  -0.78817  -0.78501
 Alpha  occ. eigenvalues --   -0.77923  -0.77273  -0.76898  -0.76762  -0.76271
 Alpha  occ. eigenvalues --   -0.75013  -0.74361  -0.73378  -0.72679  -0.71648
 Alpha  occ. eigenvalues --   -0.70638  -0.69874  -0.69221  -0.68134  -0.67816
 Alpha  occ. eigenvalues --   -0.67316  -0.66696  -0.66336  -0.66271  -0.65905
 Alpha  occ. eigenvalues --   -0.65676  -0.65527  -0.64504  -0.63246  -0.62414
 Alpha  occ. eigenvalues --   -0.62204  -0.61660  -0.60989  -0.60318  -0.59547
 Alpha  occ. eigenvalues --   -0.59059  -0.58208  -0.57733  -0.57636  -0.57264
 Alpha  occ. eigenvalues --   -0.56985  -0.56579  -0.56401  -0.56354  -0.55823
 Alpha  occ. eigenvalues --   -0.55806  -0.55622  -0.55124  -0.55076  -0.54879
 Alpha  occ. eigenvalues --   -0.54611  -0.54532  -0.54342  -0.53834  -0.53744
 Alpha  occ. eigenvalues --   -0.53596  -0.53461  -0.53124  -0.52934  -0.52854
 Alpha  occ. eigenvalues --   -0.52774  -0.52542  -0.52428  -0.51636  -0.51535
 Alpha  occ. eigenvalues --   -0.51295  -0.51244  -0.50917  -0.50749  -0.50477
 Alpha  occ. eigenvalues --   -0.50378  -0.50145  -0.50060  -0.49658  -0.49484
 Alpha  occ. eigenvalues --   -0.49255  -0.49040  -0.48808  -0.48556  -0.48360
 Alpha  occ. eigenvalues --   -0.48291  -0.48277  -0.47895  -0.47836  -0.47813
 Alpha  occ. eigenvalues --   -0.47723  -0.47407  -0.47210  -0.46971  -0.46754
 Alpha  occ. eigenvalues --   -0.46707  -0.46328  -0.46014  -0.45845  -0.45770
 Alpha  occ. eigenvalues --   -0.45683  -0.45482  -0.45419  -0.45154  -0.45050
 Alpha  occ. eigenvalues --   -0.44860  -0.44719  -0.44504  -0.44333  -0.43945
 Alpha  occ. eigenvalues --   -0.43846  -0.43433  -0.43148  -0.43108  -0.43041
 Alpha  occ. eigenvalues --   -0.42827  -0.42772  -0.42763  -0.42560  -0.42078
 Alpha  occ. eigenvalues --   -0.41824  -0.41661  -0.41161  -0.40783  -0.40720
 Alpha  occ. eigenvalues --   -0.40208  -0.40060  -0.39946  -0.39898  -0.39888
 Alpha  occ. eigenvalues --   -0.39206  -0.38998  -0.38728  -0.38362  -0.38083
 Alpha  occ. eigenvalues --   -0.37947  -0.37518  -0.36842  -0.36357  -0.35647
 Alpha  occ. eigenvalues --   -0.35268  -0.35227  -0.35064  -0.33644  -0.33226
 Alpha  occ. eigenvalues --   -0.32429  -0.32307  -0.31562  -0.31058  -0.25994
 Alpha  occ. eigenvalues --   -0.23029
 Alpha virt. eigenvalues --   -0.07183   0.00207   0.01818   0.03859   0.05862
 Alpha virt. eigenvalues --    0.06731   0.07426   0.07819   0.08330   0.09586
 Alpha virt. eigenvalues --    0.10164   0.10523   0.11271   0.11673   0.12154

 Mulliken charges:
               1
     1  Mg   0.977101
     2  C   -0.086385
     3  C   -0.083751
     4  C   -0.079737
     5  C   -0.104637
     6  N   -0.306779
     7  C   -0.004318
     8  C   -0.096549
     9  C   -0.094013
    10  C    0.085642
    11  C    0.012409
    12  C    0.040375
    13  C    0.041067
    14  C    0.160676
    15  O   -0.272842
    16  O   -0.371281
    17  N   -0.504698
    18  C    0.179791
    19  C   -0.137908
    20  C   -0.076535
    21  C    0.157291
    22  C    0.021886
    23  C    0.070942
    24  O   -0.264114
    25  C   -0.005880
    26  N   -0.431209
    27  C    0.106931
    28  C   -0.100939
    29  C   -0.030405
    30  C    0.077023
    31  C    0.011110
    32  C   -0.022221
    33  C   -0.058448
    34  N   -0.430776
    35  C    0.150022
    36  C   -0.194224
    37  C   -0.037309
    38  C    0.192825
    39  C    0.080766
    40  C    0.110151
    41  O   -0.224677
    42  C   -0.040970
    43  C    0.247272
    44  O   -0.256755
    45  O   -0.381230
    46  C    0.144505
    47  C    0.220591
    48  C   -0.144010
    49  C   -0.234918
    50  C    0.083288
    51  C    0.057369
    52  C   -0.093182
    53  C    0.024030
    54  C   -0.166407
    55  C   -0.011735
    56  C    0.009590
    57  C   -0.024056
    58  C    0.007061
    59  C   -0.209337
    60  C    0.013389
    61  C   -0.003887
    62  C   -0.026956
    63  C    0.011979
    64  C   -0.222526
    65  C   -0.004399
    66  C    0.005307
    67  H   -0.009991
    68  H    0.018809
    69  H   -0.000387
    70  H    0.060205
    71  H    0.043246
    72  H    0.033899
    73  H    0.052778
    74  H    0.028798
    75  H    0.033493
    76  H    0.032699
    77  H    0.048801
    78  H    0.067745
    79  H    0.047774
    80  H    0.038506
    81  H    0.056147
    82  H    0.073366
    83  H    0.045547
    84  H    0.064945
    85  H    0.045191
    86  H    0.030880
    87  H    0.032906
    88  H    0.046018
    89  H    0.036541
    90  H    0.027335
    91  H    0.021778
    92  H    0.032932
    93  H    0.038939
    94  H    0.054066
    95  H    0.063376
    96  H    0.037865
    97  H    0.057840
    98  H    0.060858
    99  H    0.072512
   100  H    0.072221
   101  H    0.060491
   102  H    0.080829
   103  H    0.057456
   104  H    0.033396
   105  H    0.055468
   106  H    0.026556
   107  H    0.047730
   108  H    0.027687
   109  H    0.007347
   110  H    0.024804
   111  H    0.022734
   112  H    0.022850
   113  H    0.020116
   114  H    0.019398
   115  H    0.028690
   116  H    0.026119
   117  H    0.008365
   118  H    0.028690
   119  H    0.009083
   120  H    0.019712
   121  H    0.024277
   122  H    0.023711
   123  H    0.016014
   124  H    0.024546
   125  H    0.023301
   126  H    0.033346
   127  H    0.021233
   128  H    0.011327
   129  H    0.019132
   130  H    0.001368
   131  H    0.011654
   132  H    0.020979
   133  H    0.017542
   134  H    0.022809
   135  H    0.030137
   136  H    0.029130
   137  H    0.021036
   138  H    0.045236
   139  H    0.019712
   140  H    0.027967
 Sum of Mulliken charges =  -0.00000

 Dipole moment (field-independent basis, Debye):
    X=              4.8332    Y=              3.8676    Z=             -3.6761  Tot=              7.1995
 Quadrupole moment (field-independent basis, Debye-Ang):
   XX=           -380.6563   YY=           -437.3637   ZZ=           -400.7056
   XY=            -10.5549   XZ=              9.9336   YZ=              3.0739

 Normal termination of Gaussian 16 at Wed May  4 03:05:34 2022.
