 Gaussian 16, Revision A.03,
 Gaussian 16:  ES64L-G16RevA.03 25-Dec-2016

 --------------------
 #p ZINDO=(nstates=5)
 --------------------

 -----------------------------
 step_1251_chromophore_9 ZINDO
 -----------------------------
 Symbolic Z-matrix:
 Charge =  0 Multiplicity = 1

                         Standard orientation:
 ---------------------------------------------------------------------
 Center     Atomic      Atomic             Coordinates (Angstroms)
 Number     Number       Type             X           Y           Z
 ---------------------------------------------------------------------
      1         12           0       -4.952765    0.809075   -0.173065
      2          6           0       -3.757614   -2.531221    0.312430
      3          6           0       -1.735135    1.741859   -0.452253
      4          6           0       -6.037364    4.042616   -0.030410
      5          6           0       -8.128900   -0.388007    0.506104
      6          7           0       -2.962826   -0.311448    0.024848
      7          6           0       -2.690520   -1.642654    0.030165
      8          6           0       -1.248187   -1.976759   -0.318355
      9          6           0       -0.537032   -0.537235   -0.058538
     10          6           0       -1.816608    0.390519   -0.122517
     11          6           0        0.178387   -0.555249    1.324968
     12          6           0       -1.122051   -2.430107   -1.826670
     13          6           0       -0.136225   -3.579632   -2.100431
     14          6           0        1.132516   -3.545015   -1.238688
     15          8           0        1.470182   -4.502577   -0.544211
     16          8           0        1.860953   -2.395024   -1.274325
     17          7           0       -4.053170    2.629102   -0.311064
     18          6           0       -2.688885    2.776422   -0.505190
     19          6           0       -2.442281    4.197163   -0.733003
     20          6           0       -3.622356    4.955236   -0.382932
     21          6           0       -4.633448    3.908098   -0.229091
     22          6           0       -1.065910    4.702955   -0.999187
     23          6           0       -3.919750    6.460070   -0.369199
     24          8           0       -5.047708    6.960702   -0.082716
     25          6           0       -2.795604    7.341296   -0.640500
     26          7           0       -6.770808    1.736106   -0.006918
     27          6           0       -7.005646    3.061878    0.096709
     28          6           0       -8.492167    3.337705    0.320934
     29          6           0       -9.184967    1.946171    0.186265
     30          6           0       -7.967280    0.970311    0.215378
     31          6           0       -8.815251    3.993442    1.703193
     32          6           0      -10.206928    1.827094   -0.912551
     33          6           0       -9.925914    0.784894   -2.068962
     34          7           0       -5.823942   -1.021419    0.354094
     35          6           0       -7.124890   -1.330398    0.688665
     36          6           0       -7.230274   -2.732527    0.979482
     37          6           0       -5.912826   -3.257103    0.821735
     38          6           0       -5.099370   -2.150144    0.493107
     39          6           0       -8.535068   -3.498535    1.161229
     40          6           0       -5.172298   -4.473733    0.777915
     41          8           0       -5.579923   -5.643279    0.801567
     42          6           0       -3.652196   -4.067764    0.530624
     43          6           0       -2.714742   -4.372747    1.681911
     44          8           0       -2.874482   -4.000674    2.835201
     45          8           0       -1.629019   -5.123250    1.361529
     46          6           0       -0.860814   -5.776603    2.473381
     47          6           0        3.145694   -2.508934   -0.477895
     48          6           0        4.123528   -2.903013   -1.587250
     49          6           0        5.493886   -2.917812   -1.439760
     50          6           0        6.349078   -2.735795   -0.218956
     51          6           0        6.227522   -3.150850   -2.656549
     52          6           0        6.499872   -1.815713   -3.386026
     53          6           0        7.955739   -1.483848   -3.957402
     54          6           0        8.425491   -0.133164   -3.404419
     55          6           0        8.949406    0.739676   -4.576786
     56          6           0        9.432916   -0.240766   -2.269005
     57          6           0        9.140990    0.714592   -1.024117
     58          6           0       10.437503    1.259966   -0.503584
     59          6           0       10.330317    2.799807   -0.135120
     60          6           0       11.050249    3.563237   -1.227527
     61          6           0       11.092674    3.019484    1.225124
     62          6           0       10.274470    2.640306    2.495044
     63          6           0       10.789261    1.446835    3.141180
     64          6           0       10.429969    1.443591    4.671583
     65          6           0       11.648162    1.992315    5.448578
     66          6           0        9.968162    0.072137    5.249865
     67          1           0       -0.724798    2.084969   -0.683355
     68          1           0       -6.440889    5.054044    0.056736
     69          1           0       -9.141250   -0.781874    0.609356
     70          1           0       -0.848149   -2.771148    0.311947
     71          1           0        0.232633   -0.347380   -0.806258
     72          1           0        1.197547   -0.917747    1.185343
     73          1           0       -0.246788   -1.134104    2.144532
     74          1           0        0.204293    0.474126    1.684461
     75          1           0       -0.948094   -1.704748   -2.621341
     76          1           0       -2.089251   -2.806537   -2.156645
     77          1           0        0.343785   -3.458970   -3.071662
     78          1           0       -0.574459   -4.572205   -1.991281
     79          1           0       -0.901208    5.638052   -1.535408
     80          1           0       -0.447798    3.978589   -1.530819
     81          1           0       -0.534040    4.778194   -0.050431
     82          1           0       -1.933663    7.118695   -0.011477
     83          1           0       -3.138533    8.367398   -0.507236
     84          1           0       -2.617529    7.354244   -1.715328
     85          1           0       -8.857814    4.048486   -0.420259
     86          1           0       -9.670781    1.590201    1.094362
     87          1           0       -9.414800    4.886002    1.524466
     88          1           0       -7.944892    4.346568    2.254879
     89          1           0       -9.409419    3.346857    2.348748
     90          1           0      -10.480126    2.784017   -1.357825
     91          1           0      -11.143441    1.523884   -0.444209
     92          1           0      -10.249225    1.214449   -3.016991
     93          1           0      -10.476039   -0.143083   -1.910673
     94          1           0       -8.858075    0.591010   -2.168317
     95          1           0       -8.401154   -4.551832    0.914958
     96          1           0       -9.230620   -3.115688    0.414321
     97          1           0       -8.864678   -3.257659    2.171352
     98          1           0       -3.378807   -4.680121   -0.329052
     99          1           0       -0.480527   -6.710956    2.060491
    100          1           0       -1.516229   -5.916011    3.333025
    101          1           0       -0.107516   -5.005477    2.640538
    102          1           0        3.149605   -3.218096    0.349266
    103          1           0        3.507181   -1.571892   -0.054584
    104          1           0        3.720026   -2.925932   -2.599713
    105          1           0        6.928985   -3.658079   -0.191506
    106          1           0        5.647725   -2.660191    0.611888
    107          1           0        6.974439   -1.854935   -0.369150
    108          1           0        5.623787   -3.720357   -3.362993
    109          1           0        7.226615   -3.587019   -2.643309
    110          1           0        6.136661   -1.028678   -2.724476
    111          1           0        5.882981   -1.784007   -4.283465
    112          1           0        7.782002   -1.450696   -5.033343
    113          1           0        8.676523   -2.263015   -3.712305
    114          1           0        7.525293    0.335431   -3.007420
    115          1           0        8.244012    1.437471   -5.027411
    116          1           0        9.453040    0.221979   -5.392959
    117          1           0        9.742791    1.419714   -4.266314
    118          1           0       10.426473   -0.223447   -2.717196
    119          1           0        9.287666   -1.217767   -1.807241
    120          1           0        8.661664    0.119851   -0.245982
    121          1           0        8.456801    1.557673   -1.124074
    122          1           0       11.256909    1.124313   -1.209193
    123          1           0       10.646349    0.609576    0.345879
    124          1           0        9.388689    3.334269   -0.008076
    125          1           0       10.766714    3.054254   -2.148281
    126          1           0       12.135003    3.627462   -1.151794
    127          1           0       10.647376    4.575426   -1.266027
    128          1           0       11.259503    4.095521    1.277670
    129          1           0       12.022510    2.454603    1.158226
    130          1           0        9.245744    2.424367    2.202220
    131          1           0       10.129347    3.444502    3.215944
    132          1           0       11.861015    1.492205    2.951431
    133          1           0       10.222547    0.682212    2.609082
    134          1           0        9.598799    2.135786    4.806202
    135          1           0       12.516056    2.184424    4.818917
    136          1           0       11.909587    1.433895    6.347880
    137          1           0       11.334441    2.967588    5.821311
    138          1           0       10.517541   -0.789693    4.871574
    139          1           0        8.914679   -0.049840    4.999376
    140          1           0        9.989875    0.298345    6.316510
 ---------------------------------------------------------------------

 SCF Done:  E(RZINDO/S) =  -474.148950486     A.U. after   20 cycles

 Excitation energies and oscillator strengths:

 Excited State   1:      Singlet-A      1.2273 eV 1010.22 nm  f=0.6141  <S**2>=0.000
     175 ->178         0.19158
     176 ->177         0.66316
 This state for optimization and/or second-order correction.
 Total Energy, E(CIS/TDA) =  -474.103847910
 Copying the excited state density for this state as the 1-particle RhoCI density.

 Excited State   2:      Singlet-A      1.9244 eV  644.27 nm  f=0.0555  <S**2>=0.000
     175 ->177         0.55384
     176 ->178        -0.41335

 Excited State   3:      Singlet-A      2.9692 eV  417.57 nm  f=0.2582  <S**2>=0.000
     168 ->177         0.12126
     168 ->179        -0.21701
     168 ->180         0.10210
     168 ->186        -0.10656
     170 ->177         0.19900
     170 ->179         0.12615
     170 ->180         0.21980
     175 ->177         0.17838
     176 ->178         0.28236
     176 ->179         0.33110
     176 ->180         0.10734

 Excited State   4:      Singlet-A      2.9891 eV  414.79 nm  f=0.0897  <S**2>=0.000
     167 ->179         0.10585
     168 ->177         0.25504
     168 ->179        -0.38790
     168 ->180         0.24035
     168 ->186        -0.18513
     168 ->187        -0.11081
     170 ->177        -0.11693
     170 ->179        -0.13792
     170 ->180        -0.13624
     175 ->177        -0.11367
     176 ->178        -0.16625

 Excited State   5:      Singlet-A      3.0198 eV  410.57 nm  f=0.3613  <S**2>=0.000
     169 ->180        -0.10103
     170 ->177        -0.26025
     170 ->178        -0.11547
     170 ->179        -0.19376
     170 ->180        -0.27880
     170 ->186        -0.12793
     170 ->187         0.12179
     175 ->177         0.20978
     176 ->178         0.31209
     176 ->179         0.22994

 The electronic state is 1-A.
 Alpha  occ. eigenvalues --   -1.83485  -1.79394  -1.78932  -1.73771  -1.71254
 Alpha  occ. eigenvalues --   -1.69323  -1.67069  -1.63318  -1.57658  -1.57078
 Alpha  occ. eigenvalues --   -1.56949  -1.52399  -1.47430  -1.46688  -1.46196
 Alpha  occ. eigenvalues --   -1.43659  -1.41935  -1.39224  -1.39159  -1.38142
 Alpha  occ. eigenvalues --   -1.35392  -1.33630  -1.32948  -1.32693  -1.29317
 Alpha  occ. eigenvalues --   -1.28922  -1.24940  -1.22989  -1.19906  -1.18112
 Alpha  occ. eigenvalues --   -1.16859  -1.16120  -1.15446  -1.14325  -1.12596
 Alpha  occ. eigenvalues --   -1.12287  -1.11414  -1.11191  -1.04816  -1.04029
 Alpha  occ. eigenvalues --   -1.01859  -1.00647  -0.98838  -0.98341  -0.97290
 Alpha  occ. eigenvalues --   -0.96912  -0.94916  -0.94086  -0.92952  -0.92285
 Alpha  occ. eigenvalues --   -0.91058  -0.89472  -0.89047  -0.87978  -0.86224
 Alpha  occ. eigenvalues --   -0.85612  -0.84557  -0.82505  -0.81624  -0.80381
 Alpha  occ. eigenvalues --   -0.79971  -0.78534  -0.78382  -0.76366  -0.76073
 Alpha  occ. eigenvalues --   -0.75405  -0.74710  -0.74520  -0.73953  -0.73566
 Alpha  occ. eigenvalues --   -0.73220  -0.72506  -0.72111  -0.72063  -0.71156
 Alpha  occ. eigenvalues --   -0.70841  -0.70109  -0.69201  -0.68731  -0.68174
 Alpha  occ. eigenvalues --   -0.67858  -0.66825  -0.66537  -0.66166  -0.65643
 Alpha  occ. eigenvalues --   -0.65505  -0.64445  -0.64253  -0.63824  -0.63532
 Alpha  occ. eigenvalues --   -0.63128  -0.62985  -0.62733  -0.62202  -0.61747
 Alpha  occ. eigenvalues --   -0.61513  -0.61113  -0.60576  -0.60348  -0.59755
 Alpha  occ. eigenvalues --   -0.59744  -0.59474  -0.59058  -0.58767  -0.58723
 Alpha  occ. eigenvalues --   -0.57682  -0.57473  -0.57298  -0.57232  -0.56943
 Alpha  occ. eigenvalues --   -0.55745  -0.55172  -0.55056  -0.54887  -0.54650
 Alpha  occ. eigenvalues --   -0.54358  -0.54139  -0.53547  -0.53272  -0.53212
 Alpha  occ. eigenvalues --   -0.52963  -0.52582  -0.52235  -0.51912  -0.51834
 Alpha  occ. eigenvalues --   -0.51415  -0.51197  -0.50925  -0.50088  -0.49885
 Alpha  occ. eigenvalues --   -0.49805  -0.49657  -0.49263  -0.49129  -0.48897
 Alpha  occ. eigenvalues --   -0.48830  -0.48779  -0.48539  -0.48329  -0.47967
 Alpha  occ. eigenvalues --   -0.47690  -0.47270  -0.47031  -0.46715  -0.46617
 Alpha  occ. eigenvalues --   -0.46232  -0.46096  -0.46001  -0.45116  -0.44896
 Alpha  occ. eigenvalues --   -0.44774  -0.44703  -0.44529  -0.44162  -0.43783
 Alpha  occ. eigenvalues --   -0.43573  -0.43234  -0.42884  -0.42548  -0.41897
 Alpha  occ. eigenvalues --   -0.41562  -0.40947  -0.40653  -0.38997  -0.38055
 Alpha  occ. eigenvalues --   -0.37679  -0.37349  -0.36049  -0.35144  -0.34735
 Alpha  occ. eigenvalues --   -0.33446  -0.32552  -0.32083  -0.30958  -0.26773
 Alpha  occ. eigenvalues --   -0.21926
 Alpha virt. eigenvalues --   -0.08826  -0.02155  -0.00827   0.01028   0.02097
 Alpha virt. eigenvalues --    0.02474   0.02598   0.03141   0.04398   0.04725
 Alpha virt. eigenvalues --    0.06087   0.06648   0.07017   0.07743   0.08060

 Mulliken charges:
               1
     1  Mg   0.426038
     2  C   -0.033442
     3  C   -0.066169
     4  C   -0.072495
     5  C   -0.057338
     6  N   -0.270945
     7  C    0.120540
     8  C    0.007800
     9  C   -0.000992
    10  C    0.133953
    11  C   -0.049718
    12  C   -0.023904
    13  C    0.006676
    14  C    0.464224
    15  O   -0.535133
    16  O   -0.270702
    17  N   -0.338407
    18  C    0.112042
    19  C    0.028410
    20  C   -0.054814
    21  C    0.146093
    22  C   -0.045108
    23  C    0.339785
    24  O   -0.536815
    25  C   -0.028202
    26  N   -0.285560
    27  C    0.166553
    28  C    0.011313
    29  C    0.003651
    30  C    0.102875
    31  C   -0.052571
    32  C   -0.025750
    33  C   -0.058535
    34  N   -0.321193
    35  C    0.096885
    36  C    0.019524
    37  C   -0.050904
    38  C    0.118311
    39  C   -0.040346
    40  C    0.333447
    41  O   -0.531303
    42  C    0.052459
    43  C    0.487374
    44  O   -0.531845
    45  O   -0.285076
    46  C    0.076959
    47  C    0.099086
    48  C   -0.120400
    49  C    0.012720
    50  C   -0.040981
    51  C   -0.019916
    52  C   -0.047429
    53  C   -0.037617
    54  C   -0.005237
    55  C   -0.062411
    56  C   -0.033254
    57  C   -0.038131
    58  C   -0.030991
    59  C   -0.022019
    60  C   -0.057963
    61  C   -0.045523
    62  C   -0.035157
    63  C   -0.037770
    64  C   -0.018462
    65  C   -0.060659
    66  C   -0.062606
    67  H    0.019314
    68  H    0.041839
    69  H    0.028557
    70  H    0.049686
    71  H    0.037388
    72  H    0.019732
    73  H    0.034254
    74  H    0.013510
    75  H    0.031375
    76  H    0.014562
    77  H    0.039236
    78  H    0.049317
    79  H    0.027420
    80  H    0.018369
    81  H    0.030474
    82  H    0.044326
    83  H    0.031042
    84  H    0.043951
    85  H    0.034649
    86  H    0.026929
    87  H    0.015691
    88  H    0.027482
    89  H    0.022554
    90  H    0.021268
    91  H    0.011046
    92  H    0.014219
    93  H    0.024049
    94  H    0.026844
    95  H    0.040092
    96  H    0.022298
    97  H    0.039494
    98  H    0.053715
    99  H    0.044804
   100  H    0.057047
   101  H    0.045879
   102  H    0.065002
   103  H    0.037657
   104  H    0.039368
   105  H    0.035995
   106  H    0.025286
   107  H    0.039560
   108  H    0.018463
   109  H    0.020891
   110  H    0.021269
   111  H    0.012560
   112  H    0.019829
   113  H    0.024757
   114  H    0.020822
   115  H    0.017229
   116  H    0.019503
   117  H    0.004417
   118  H    0.032397
   119  H    0.009620
   120  H    0.012782
   121  H    0.024666
   122  H    0.025248
   123  H    0.015890
   124  H    0.036233
   125  H    0.011914
   126  H    0.024365
   127  H    0.009159
   128  H    0.010257
   129  H    0.025440
   130  H    0.005491
   131  H    0.017014
   132  H    0.030656
   133  H    0.020485
   134  H    0.022369
   135  H    0.022876
   136  H    0.021374
   137  H    0.008478
   138  H    0.032258
   139  H    0.009966
   140  H    0.023117
 Sum of Mulliken charges =  -0.00000

 Dipole moment (field-independent basis, Debye):
    X=              6.3623    Y=              5.6506    Z=             -5.7863  Tot=             10.2902
 N-N= 4.395302016064D+03 E-N= 0.000000000000D+00  KE=-9.464758464089D+03
 Leave Link  601 at Wed May  4 03:18:10 2022, MaxMem=  6710886400 cpu:               0.7 elap:               0.0
 (Enter /sw/apps/gaussian-16.0/g16/l9999.exe)
 1\1\GINC-BP1-COMPUTE065\SP\RZINDO CIS\STO-3G\C55H74Mg1N4O6\OF15641\04-
 May-2022\0\\#p ZINDO=(nstates=5)\\step_1251_chromophore_9 ZINDO\\0,1\M
 g,0,35.83,0.661,30.274\C,0,33.427,1.804,32.67\C,0,38.132,0.912,32.711\
 C,0,38.204,0.164,27.872\C,0,33.322,0.841,27.895\N,0,35.756,1.396,32.44
 4\C,0,34.7,1.628,33.267\C,0,35.059,1.621,34.745\C,0,36.67,1.829,34.662
 \C,0,36.903,1.391,33.16\C,0,37.016,3.318,34.961\C,0,34.679,0.24,35.412
 \C,0,34.106,0.32,36.838\C,0,34.741,1.406,37.716\O,0,34.063,2.272,38.26

 Normal termination of Gaussian 16 at Wed May  4 03:18:10 2022.
