 Gaussian 16, Revision A.03,
 Gaussian 16:  ES64L-G16RevA.03 25-Dec-2016

 ------------------------------
 #p blyp/Def2SVP td=(nstates=5)
 ------------------------------

 -------------------------------------------------
 step_101_chromophore_7 TDDFT with blyp functional
 -------------------------------------------------
 Symbolic Z-matrix:
 Charge =  0 Multiplicity = 1

                         Standard orientation:
 ---------------------------------------------------------------------
 Center     Atomic      Atomic             Coordinates (Angstroms)
 Number     Number       Type             X           Y           Z
 ---------------------------------------------------------------------
      1         12           0       -5.904798    0.347606   -0.096977
      2          6           0       -3.373686   -2.051188    0.081523
      3          6           0       -3.707577    2.549490    1.440024
      4          6           0       -8.229312    2.682651   -0.389533
      5          6           0       -8.180158   -2.049714   -1.162724
      6          7           0       -3.686867    0.284772    0.637823
      7          6           0       -2.936155   -0.851572    0.687361
      8          6           0       -1.528305   -0.387628    1.270976
      9          6           0       -1.725363    1.064673    1.787403
     10          6           0       -3.099071    1.286167    1.331519
     11          6           0       -1.664180    1.370416    3.306721
     12          6           0       -0.452663   -0.330269    0.131631
     13          6           0        0.847752   -1.165177    0.435167
     14          6           0        2.096475   -0.736959   -0.336940
     15          8           0        2.387536    0.329378   -0.827900
     16          8           0        2.919188   -1.859453   -0.264578
     17          7           0       -5.975201    2.326322    0.463443
     18          6           0       -5.018553    3.034515    1.099543
     19          6           0       -5.511423    4.413117    1.330604
     20          6           0       -6.806977    4.454626    0.780520
     21          6           0       -7.066608    3.127184    0.234026
     22          6           0       -4.739347    5.485866    2.016777
     23          6           0       -7.785978    5.617210    0.778198
     24          8           0       -8.884929    5.519693    0.328578
     25          6           0       -7.406944    6.874971    1.398294
     26          7           0       -8.013457    0.269880   -0.376512
     27          6           0       -8.651181    1.403539   -0.749215
     28          6           0       -9.972231    1.160365   -1.425434
     29          6           0      -10.104832   -0.376637   -1.411113
     30          6           0       -8.695905   -0.735039   -0.931812
     31          6           0      -11.174466    1.917816   -0.926027
     32          6           0      -10.532842   -1.097811   -2.742421
     33          6           0      -11.759935   -2.085906   -2.478425
     34          7           0       -5.822704   -1.564214   -0.555897
     35          6           0       -6.837289   -2.489519   -0.878617
     36          6           0       -6.258396   -3.805316   -1.034614
     37          6           0       -4.855967   -3.762381   -0.808031
     38          6           0       -4.689681   -2.342006   -0.446351
     39          6           0       -7.035563   -5.156927   -1.343030
     40          6           0       -3.596694   -4.448482   -0.683072
     41          8           0       -3.318412   -5.661239   -0.765983
     42          6           0       -2.555772   -3.345802   -0.141865
     43          6           0       -1.870297   -3.862583    1.120591
     44          8           0       -2.422185   -3.877703    2.260897
     45          8           0       -0.649686   -4.490223    0.870950
     46          6           0        0.194796   -5.058509    1.905393
     47          6           0        4.328586   -1.767003   -0.761717
     48          6           0        5.139559   -1.022318    0.201633
     49          6           0        6.441914   -0.978239    0.382239
     50          6           0        7.484895   -1.654409   -0.525864
     51          6           0        6.978023   -0.111398    1.499308
     52          6           0        8.037369   -0.778471    2.438979
     53          6           0        9.481663   -0.056889    2.413313
     54          6           0       10.675531   -1.056010    2.361577
     55          6           0       11.037019   -1.512941    3.883686
     56          6           0       11.875354   -0.424990    1.690710
     57          6           0       12.218116   -0.995459    0.281373
     58          6           0       12.377813    0.071383   -0.794947
     59          6           0       13.797059    0.493961   -1.207036
     60          6           0       14.483809    1.522706   -0.245542
     61          6           0       13.778285    1.151776   -2.634877
     62          6           0       12.999530    2.482192   -2.777338
     63          6           0       11.597815    2.248905   -3.344596
     64          6           0       10.473746    2.896386   -2.463093
     65          6           0        9.338921    1.879756   -2.128916
     66          6           0        9.929389    4.181110   -3.191550
     67          1           0       -2.977640    3.232603    1.879140
     68          1           0       -8.958677    3.448991   -0.661284
     69          1           0       -8.883339   -2.851259   -1.401004
     70          1           0       -1.252522   -1.142513    2.006561
     71          1           0       -1.182208    1.883945    1.317652
     72          1           0       -0.941467    0.866064    3.948558
     73          1           0       -2.614792    1.185564    3.807791
     74          1           0       -1.528377    2.450840    3.361433
     75          1           0       -0.146800    0.695713   -0.075806
     76          1           0       -0.903615   -0.733071   -0.774915
     77          1           0        0.577431   -2.202599    0.241212
     78          1           0        1.174000   -1.039020    1.468100
     79          1           0       -3.726507    5.198143    2.299173
     80          1           0       -5.416060    5.736639    2.833645
     81          1           0       -4.742429    6.358767    1.362968
     82          1           0       -6.496835    7.301849    0.975075
     83          1           0       -7.286492    6.523320    2.422462
     84          1           0       -8.263561    7.544414    1.323938
     85          1           0       -9.807600    1.550146   -2.430649
     86          1           0      -10.636666   -0.728526   -0.526766
     87          1           0      -11.593760    2.463966   -1.770388
     88          1           0      -10.939887    2.523888   -0.050432
     89          1           0      -11.936000    1.255153   -0.515149
     90          1           0       -9.695998   -1.722261   -3.057185
     91          1           0      -10.817306   -0.478790   -3.592753
     92          1           0      -12.501098   -1.665600   -1.797671
     93          1           0      -11.472835   -3.066531   -2.098949
     94          1           0      -12.309450   -2.287434   -3.398697
     95          1           0       -7.983522   -5.016062   -1.861064
     96          1           0       -7.095381   -5.683206   -0.390564
     97          1           0       -6.370170   -5.683951   -2.026949
     98          1           0       -1.692213   -3.360853   -0.806844
     99          1           0       -0.201572   -5.253542    2.901664
    100          1           0        1.069772   -4.429344    2.067538
    101          1           0        0.743689   -5.957597    1.624494
    102          1           0        4.436190   -1.348049   -1.762597
    103          1           0        4.720630   -2.783861   -0.781995
    104          1           0        4.532656   -0.457871    0.909707
    105          1           0        7.068778   -1.867828   -1.510196
    106          1           0        7.792483   -2.514722    0.069138
    107          1           0        8.397409   -1.071844   -0.651055
    108          1           0        6.129997    0.067876    2.160341
    109          1           0        7.226529    0.871126    1.099041
    110          1           0        8.188105   -1.839716    2.242674
    111          1           0        7.671516   -0.768513    3.465459
    112          1           0        9.569181    0.493029    3.349476
    113          1           0        9.532684    0.776687    1.714432
    114          1           0       10.399654   -1.962292    1.823151
    115          1           0       10.328154   -2.282692    4.186307
    116          1           0       10.919967   -0.639674    4.525057
    117          1           0       12.025719   -1.969070    3.923746
    118          1           0       12.740472   -0.573722    2.336574
    119          1           0       11.851785    0.664514    1.681202
    120          1           0       11.370756   -1.539196   -0.135221
    121          1           0       13.168465   -1.528706    0.262569
    122          1           0       11.970784    1.049773   -0.539974
    123          1           0       11.783486   -0.145659   -1.681991
    124          1           0       14.425673   -0.395627   -1.219437
    125          1           0       15.170658    1.064438    0.466261
    126          1           0       13.685108    1.901083    0.392301
    127          1           0       15.020725    2.343447   -0.723532
    128          1           0       13.481825    0.322569   -3.276243
    129          1           0       14.829981    1.340088   -2.851693
    130          1           0       13.454917    3.136894   -3.521137
    131          1           0       12.958241    3.013533   -1.826560
    132          1           0       11.384442    1.206891   -3.586862
    133          1           0       11.622240    2.727496   -4.322699
    134          1           0       10.761025    3.302361   -1.493689
    135          1           0        8.356127    2.208076   -2.469175
    136          1           0        9.241280    1.724059   -1.055124
    137          1           0        9.541659    0.895865   -2.551277
    138          1           0       10.525844    4.367042   -4.084051
    139          1           0        9.985873    5.036094   -2.517258
    140          1           0        8.891542    3.946698   -3.430319
 ---------------------------------------------------------------------

 SCF Done:  E(RB-LYP) =  -3007.35969964     A.U. after   22 cycles

 Excitation energies and oscillator strengths:

 Excited State   1:      Singlet-A      1.7688 eV  700.95 nm  f=0.2813  <S**2>=0.000
     245 -> 248       -0.18969
     246 -> 247        0.68817
     246 <- 247       -0.15078
 This state for optimization and/or second-order correction.
 Total Energy, E(TD-HF/TD-DFT) =  -3007.29469716
 Copying the excited state density for this state as the 1-particle RhoCI density.

 Excited State   2:      Singlet-A      1.9740 eV  628.08 nm  f=0.0725  <S**2>=0.000
     243 -> 247        0.21222
     244 -> 247        0.15952
     245 -> 247        0.60999
     246 -> 248        0.20437

 Excited State   3:      Singlet-A      2.0667 eV  599.90 nm  f=0.0059  <S**2>=0.000
     243 -> 247       -0.10825
     244 -> 247        0.68357
     245 -> 247       -0.12073

 Excited State   4:      Singlet-A      2.1490 eV  576.93 nm  f=0.0118  <S**2>=0.000
     243 -> 247        0.66190
     245 -> 247       -0.19035
     246 -> 248       -0.12145

 Excited State   5:      Singlet-A      2.4236 eV  511.57 nm  f=0.0000  <S**2>=0.000
     242 -> 247        0.70709

 The electronic state is 1-A.
 Alpha  occ. eigenvalues --  -46.26838 -18.82569 -18.81504 -18.77645 -18.76080
 Alpha  occ. eigenvalues --  -18.75877 -18.75490 -14.02988 -14.02778 -14.01502
 Alpha  occ. eigenvalues --  -14.01174 -10.04304 -10.04279 -10.00317  -9.99446
 Alpha  occ. eigenvalues --   -9.97919  -9.97753  -9.96677  -9.96253  -9.96041
 Alpha  occ. eigenvalues --   -9.95953  -9.95921  -9.95843  -9.95787  -9.95631
 Alpha  occ. eigenvalues --   -9.94680  -9.94494  -9.94310  -9.94183  -9.94101
 Alpha  occ. eigenvalues --   -9.93980  -9.93845  -9.93488  -9.93399  -9.93386
 Alpha  occ. eigenvalues --   -9.93342  -9.92790  -9.92770  -9.92706  -9.92606
 Alpha  occ. eigenvalues --   -9.92540  -9.92409  -9.92351  -9.92264  -9.92230
 Alpha  occ. eigenvalues --   -9.92199  -9.92101  -9.92075  -9.92045  -9.91968
 Alpha  occ. eigenvalues --   -9.91863  -9.91716  -9.91668  -9.91593  -9.91450
 Alpha  occ. eigenvalues --   -9.91445  -9.91375  -9.91115  -9.90865  -9.90860
 Alpha  occ. eigenvalues --   -9.90758  -9.90728  -9.90718  -9.90631  -9.90589
 Alpha  occ. eigenvalues --   -9.90405  -2.91611  -1.72032  -1.71511  -1.71317
 Alpha  occ. eigenvalues --   -0.96990  -0.96110  -0.93579  -0.90145  -0.90037
 Alpha  occ. eigenvalues --   -0.87619  -0.87465  -0.86242  -0.85462  -0.84493
 Alpha  occ. eigenvalues --   -0.74349  -0.73601  -0.73042  -0.72600  -0.72486
 Alpha  occ. eigenvalues --   -0.71879  -0.71757  -0.71210  -0.70987  -0.70374
 Alpha  occ. eigenvalues --   -0.69094  -0.68998  -0.67919  -0.67062  -0.67004
 Alpha  occ. eigenvalues --   -0.66649  -0.66243  -0.65196  -0.64706  -0.64238
 Alpha  occ. eigenvalues --   -0.63720  -0.62607  -0.62364  -0.61889  -0.60800
 Alpha  occ. eigenvalues --   -0.60754  -0.59965  -0.59909  -0.59551  -0.58717
 Alpha  occ. eigenvalues --   -0.58129  -0.57550  -0.56978  -0.55499  -0.54930
 Alpha  occ. eigenvalues --   -0.54226  -0.53985  -0.52841  -0.52486  -0.52027
 Alpha  occ. eigenvalues --   -0.51637  -0.51379  -0.50981  -0.50186  -0.50011
 Alpha  occ. eigenvalues --   -0.49354  -0.48745  -0.48611  -0.47711  -0.46647
 Alpha  occ. eigenvalues --   -0.46550  -0.45845  -0.45300  -0.44736  -0.44089
 Alpha  occ. eigenvalues --   -0.43786  -0.43044  -0.42799  -0.42248  -0.42052
 Alpha  occ. eigenvalues --   -0.41992  -0.41483  -0.41109  -0.40934  -0.40783
 Alpha  occ. eigenvalues --   -0.40699  -0.40484  -0.40387  -0.40212  -0.40137
 Alpha  occ. eigenvalues --   -0.39852  -0.39680  -0.39586  -0.39393  -0.39119
 Alpha  occ. eigenvalues --   -0.38839  -0.38534  -0.38491  -0.38117  -0.38069
 Alpha  occ. eigenvalues --   -0.37981  -0.37775  -0.37655  -0.37501  -0.37389
 Alpha  occ. eigenvalues --   -0.37208  -0.36896  -0.36770  -0.36588  -0.36527
 Alpha  occ. eigenvalues --   -0.36255  -0.36135  -0.36004  -0.35866  -0.35685
 Alpha  occ. eigenvalues --   -0.35533  -0.35322  -0.34853  -0.34665  -0.34569
 Alpha  occ. eigenvalues --   -0.34387  -0.34103  -0.33948  -0.33660  -0.33629
 Alpha  occ. eigenvalues --   -0.33628  -0.33470  -0.33403  -0.33337  -0.33199
 Alpha  occ. eigenvalues --   -0.32933  -0.32843  -0.32674  -0.32417  -0.32164
 Alpha  occ. eigenvalues --   -0.31917  -0.31843  -0.31737  -0.31577  -0.31527
 Alpha  occ. eigenvalues --   -0.31190  -0.31036  -0.30993  -0.30904  -0.30861
 Alpha  occ. eigenvalues --   -0.30651  -0.30562  -0.30377  -0.30272  -0.30037
 Alpha  occ. eigenvalues --   -0.29662  -0.29482  -0.29245  -0.29060  -0.28962
 Alpha  occ. eigenvalues --   -0.28757  -0.28616  -0.28193  -0.28066  -0.27797
 Alpha  occ. eigenvalues --   -0.27417  -0.27283  -0.27056  -0.26890  -0.26745
 Alpha  occ. eigenvalues --   -0.26226  -0.25858  -0.25855  -0.25414  -0.25202
 Alpha  occ. eigenvalues --   -0.24646  -0.24188  -0.24034  -0.23907  -0.23396
 Alpha  occ. eigenvalues --   -0.23347  -0.22537  -0.21796  -0.21128  -0.20794
 Alpha  occ. eigenvalues --   -0.20687  -0.20238  -0.19016  -0.18839  -0.16996
 Alpha  occ. eigenvalues --   -0.15496
 Alpha virt. eigenvalues --   -0.11332  -0.06708  -0.06360  -0.04516  -0.03638
 Alpha virt. eigenvalues --   -0.02473  -0.01537  -0.01252  -0.00712   0.00177
 Alpha virt. eigenvalues --    0.01041   0.01312   0.01557   0.02136   0.02291

 Mulliken charges:
               1
     1  Mg   0.715826
     2  C    0.077759
     3  C   -0.060020
     4  C   -0.071292
     5  C   -0.076722
     6  N   -0.183000
     7  C   -0.055143
     8  C    0.047003
     9  C    0.031641
    10  C   -0.053284
    11  C    0.114324
    12  C    0.115988
    13  C    0.057008
    14  C    0.094846
    15  O   -0.164712
    16  O   -0.303040
    17  N   -0.275497
    18  C    0.144907
    19  C   -0.186918
    20  C    0.040127
    21  C    0.110219
    22  C    0.226227
    23  C   -0.120407
    24  O   -0.130946
    25  C    0.161211
    26  N   -0.198021
    27  C   -0.007434
    28  C    0.027464
    29  C    0.097161
    30  C   -0.044079
    31  C    0.156278
    32  C    0.110852
    33  C    0.021067
    34  N   -0.339203
    35  C    0.146232
    36  C   -0.200732
    37  C    0.103261
    38  C    0.053604
    39  C    0.153812
    40  C   -0.012720
    41  O   -0.151495
    42  C    0.024646
    43  C    0.114777
    44  O   -0.221182
    45  O   -0.268196
    46  C    0.226017
    47  C    0.361072
    48  C   -0.148245
    49  C   -0.169008
    50  C    0.145109
    51  C    0.152693
    52  C    0.056506
    53  C    0.084467
    54  C   -0.077891
    55  C    0.077422
    56  C    0.130227
    57  C    0.152267
    58  C    0.030508
    59  C   -0.086974
    60  C    0.102565
    61  C    0.081697
    62  C    0.099215
    63  C    0.109940
    64  C   -0.120491
    65  C    0.076537
    66  C    0.105127
    67  H   -0.086638
    68  H   -0.043717
    69  H   -0.050944
    70  H   -0.017658
    71  H   -0.003274
    72  H   -0.003849
    73  H   -0.008062
    74  H   -0.013859
    75  H   -0.009201
    76  H   -0.013568
    77  H    0.022701
    78  H    0.006524
    79  H   -0.003627
    80  H   -0.002518
    81  H   -0.004847
    82  H    0.013203
    83  H    0.003626
    84  H   -0.009107
    85  H   -0.023389
    86  H   -0.013537
    87  H   -0.006556
    88  H    0.002357
    89  H   -0.026324
    90  H   -0.014290
    91  H   -0.013291
    92  H   -0.003803
    93  H   -0.002239
    94  H   -0.016921
    95  H   -0.008624
    96  H    0.022876
    97  H    0.008287
    98  H   -0.008897
    99  H    0.020475
   100  H   -0.005370
   101  H    0.007766
   102  H    0.010243
   103  H   -0.002637
   104  H   -0.032604
   105  H   -0.004389
   106  H    0.000915
   107  H   -0.001604
   108  H   -0.045505
   109  H   -0.003370
   110  H   -0.026423
   111  H   -0.026563
   112  H   -0.041144
   113  H   -0.025791
   114  H   -0.030282
   115  H   -0.017655
   116  H   -0.007057
   117  H   -0.006728
   118  H   -0.056698
   119  H   -0.038368
   120  H   -0.025320
   121  H   -0.026511
   122  H   -0.037299
   123  H   -0.043195
   124  H   -0.046867
   125  H   -0.025024
   126  H   -0.026442
   127  H   -0.004467
   128  H   -0.034391
   129  H   -0.042586
   130  H   -0.034742
   131  H   -0.022203
   132  H   -0.029764
   133  H   -0.040597
   134  H   -0.024495
   135  H   -0.019202
   136  H   -0.007031
   137  H   -0.011625
   138  H   -0.014327
   139  H   -0.014361
   140  H   -0.018556
 Sum of Mulliken charges =  -0.00000

 Dipole moment (field-independent basis, Debye):
    X=              2.0628    Y=              3.0736    Z=              0.7399  Tot=              3.7749
 Quadrupole moment (field-independent basis, Debye-Ang):
   XX=           -371.7621   YY=           -422.6431   ZZ=           -400.3423
   XY=             -8.9315   XZ=             15.4203   YZ=              8.8100

 Normal termination of Gaussian 16 at Wed Apr 27 02:42:58 2022.
