 Gaussian 16, Revision A.03,
 Gaussian 16:  ES64L-G16RevA.03 25-Dec-2016

 -----------------------------------
 #p cam-b3lyp/Def2SVP td=(nstates=5)
 -----------------------------------

 ------------------------------------------------------
 step_101_chromophore_7 TDDFT with cam-b3lyp functional
 ------------------------------------------------------
 Symbolic Z-matrix:
 Charge =  0 Multiplicity = 1

                         Standard orientation:
 ---------------------------------------------------------------------
 Center     Atomic      Atomic             Coordinates (Angstroms)
 Number     Number       Type             X           Y           Z
 ---------------------------------------------------------------------
      1         12           0       -5.904798    0.347606   -0.096977
      2          6           0       -3.373686   -2.051188    0.081523
      3          6           0       -3.707577    2.549490    1.440024
      4          6           0       -8.229312    2.682651   -0.389533
      5          6           0       -8.180158   -2.049714   -1.162724
      6          7           0       -3.686867    0.284772    0.637823
      7          6           0       -2.936155   -0.851572    0.687361
      8          6           0       -1.528305   -0.387628    1.270976
      9          6           0       -1.725363    1.064673    1.787403
     10          6           0       -3.099071    1.286167    1.331519
     11          6           0       -1.664180    1.370416    3.306721
     12          6           0       -0.452663   -0.330269    0.131631
     13          6           0        0.847752   -1.165177    0.435167
     14          6           0        2.096475   -0.736959   -0.336940
     15          8           0        2.387536    0.329378   -0.827900
     16          8           0        2.919188   -1.859453   -0.264578
     17          7           0       -5.975201    2.326322    0.463443
     18          6           0       -5.018553    3.034515    1.099543
     19          6           0       -5.511423    4.413117    1.330604
     20          6           0       -6.806977    4.454626    0.780520
     21          6           0       -7.066608    3.127184    0.234026
     22          6           0       -4.739347    5.485866    2.016777
     23          6           0       -7.785978    5.617210    0.778198
     24          8           0       -8.884929    5.519693    0.328578
     25          6           0       -7.406944    6.874971    1.398294
     26          7           0       -8.013457    0.269880   -0.376512
     27          6           0       -8.651181    1.403539   -0.749215
     28          6           0       -9.972231    1.160365   -1.425434
     29          6           0      -10.104832   -0.376637   -1.411113
     30          6           0       -8.695905   -0.735039   -0.931812
     31          6           0      -11.174466    1.917816   -0.926027
     32          6           0      -10.532842   -1.097811   -2.742421
     33          6           0      -11.759935   -2.085906   -2.478425
     34          7           0       -5.822704   -1.564214   -0.555897
     35          6           0       -6.837289   -2.489519   -0.878617
     36          6           0       -6.258396   -3.805316   -1.034614
     37          6           0       -4.855967   -3.762381   -0.808031
     38          6           0       -4.689681   -2.342006   -0.446351
     39          6           0       -7.035563   -5.156927   -1.343030
     40          6           0       -3.596694   -4.448482   -0.683072
     41          8           0       -3.318412   -5.661239   -0.765983
     42          6           0       -2.555772   -3.345802   -0.141865
     43          6           0       -1.870297   -3.862583    1.120591
     44          8           0       -2.422185   -3.877703    2.260897
     45          8           0       -0.649686   -4.490223    0.870950
     46          6           0        0.194796   -5.058509    1.905393
     47          6           0        4.328586   -1.767003   -0.761717
     48          6           0        5.139559   -1.022318    0.201633
     49          6           0        6.441914   -0.978239    0.382239
     50          6           0        7.484895   -1.654409   -0.525864
     51          6           0        6.978023   -0.111398    1.499308
     52          6           0        8.037369   -0.778471    2.438979
     53          6           0        9.481663   -0.056889    2.413313
     54          6           0       10.675531   -1.056010    2.361577
     55          6           0       11.037019   -1.512941    3.883686
     56          6           0       11.875354   -0.424990    1.690710
     57          6           0       12.218116   -0.995459    0.281373
     58          6           0       12.377813    0.071383   -0.794947
     59          6           0       13.797059    0.493961   -1.207036
     60          6           0       14.483809    1.522706   -0.245542
     61          6           0       13.778285    1.151776   -2.634877
     62          6           0       12.999530    2.482192   -2.777338
     63          6           0       11.597815    2.248905   -3.344596
     64          6           0       10.473746    2.896386   -2.463093
     65          6           0        9.338921    1.879756   -2.128916
     66          6           0        9.929389    4.181110   -3.191550
     67          1           0       -2.977640    3.232603    1.879140
     68          1           0       -8.958677    3.448991   -0.661284
     69          1           0       -8.883339   -2.851259   -1.401004
     70          1           0       -1.252522   -1.142513    2.006561
     71          1           0       -1.182208    1.883945    1.317652
     72          1           0       -0.941467    0.866064    3.948558
     73          1           0       -2.614792    1.185564    3.807791
     74          1           0       -1.528377    2.450840    3.361433
     75          1           0       -0.146800    0.695713   -0.075806
     76          1           0       -0.903615   -0.733071   -0.774915
     77          1           0        0.577431   -2.202599    0.241212
     78          1           0        1.174000   -1.039020    1.468100
     79          1           0       -3.726507    5.198143    2.299173
     80          1           0       -5.416060    5.736639    2.833645
     81          1           0       -4.742429    6.358767    1.362968
     82          1           0       -6.496835    7.301849    0.975075
     83          1           0       -7.286492    6.523320    2.422462
     84          1           0       -8.263561    7.544414    1.323938
     85          1           0       -9.807600    1.550146   -2.430649
     86          1           0      -10.636666   -0.728526   -0.526766
     87          1           0      -11.593760    2.463966   -1.770388
     88          1           0      -10.939887    2.523888   -0.050432
     89          1           0      -11.936000    1.255153   -0.515149
     90          1           0       -9.695998   -1.722261   -3.057185
     91          1           0      -10.817306   -0.478790   -3.592753
     92          1           0      -12.501098   -1.665600   -1.797671
     93          1           0      -11.472835   -3.066531   -2.098949
     94          1           0      -12.309450   -2.287434   -3.398697
     95          1           0       -7.983522   -5.016062   -1.861064
     96          1           0       -7.095381   -5.683206   -0.390564
     97          1           0       -6.370170   -5.683951   -2.026949
     98          1           0       -1.692213   -3.360853   -0.806844
     99          1           0       -0.201572   -5.253542    2.901664
    100          1           0        1.069772   -4.429344    2.067538
    101          1           0        0.743689   -5.957597    1.624494
    102          1           0        4.436190   -1.348049   -1.762597
    103          1           0        4.720630   -2.783861   -0.781995
    104          1           0        4.532656   -0.457871    0.909707
    105          1           0        7.068778   -1.867828   -1.510196
    106          1           0        7.792483   -2.514722    0.069138
    107          1           0        8.397409   -1.071844   -0.651055
    108          1           0        6.129997    0.067876    2.160341
    109          1           0        7.226529    0.871126    1.099041
    110          1           0        8.188105   -1.839716    2.242674
    111          1           0        7.671516   -0.768513    3.465459
    112          1           0        9.569181    0.493029    3.349476
    113          1           0        9.532684    0.776687    1.714432
    114          1           0       10.399654   -1.962292    1.823151
    115          1           0       10.328154   -2.282692    4.186307
    116          1           0       10.919967   -0.639674    4.525057
    117          1           0       12.025719   -1.969070    3.923746
    118          1           0       12.740472   -0.573722    2.336574
    119          1           0       11.851785    0.664514    1.681202
    120          1           0       11.370756   -1.539196   -0.135221
    121          1           0       13.168465   -1.528706    0.262569
    122          1           0       11.970784    1.049773   -0.539974
    123          1           0       11.783486   -0.145659   -1.681991
    124          1           0       14.425673   -0.395627   -1.219437
    125          1           0       15.170658    1.064438    0.466261
    126          1           0       13.685108    1.901083    0.392301
    127          1           0       15.020725    2.343447   -0.723532
    128          1           0       13.481825    0.322569   -3.276243
    129          1           0       14.829981    1.340088   -2.851693
    130          1           0       13.454917    3.136894   -3.521137
    131          1           0       12.958241    3.013533   -1.826560
    132          1           0       11.384442    1.206891   -3.586862
    133          1           0       11.622240    2.727496   -4.322699
    134          1           0       10.761025    3.302361   -1.493689
    135          1           0        8.356127    2.208076   -2.469175
    136          1           0        9.241280    1.724059   -1.055124
    137          1           0        9.541659    0.895865   -2.551277
    138          1           0       10.525844    4.367042   -4.084051
    139          1           0        9.985873    5.036094   -2.517258
    140          1           0        8.891542    3.946698   -3.430319
 ---------------------------------------------------------------------

 SCF Done:  E(RCAM-B3LYP) =  -3007.14712605     A.U. after   19 cycles

 Excitation energies and oscillator strengths:

 Excited State   1:      Singlet-A      1.6616 eV  746.19 nm  f=0.3639  <S**2>=0.000
     245 -> 248       -0.18477
     246 -> 247        0.68524
     245 <- 248       -0.11177
 This state for optimization and/or second-order correction.
 Total Energy, E(TD-HF/TD-DFT) =  -3007.08606452
 Copying the excited state density for this state as the 1-particle RhoCI density.

 Excited State   2:      Singlet-A      2.2169 eV  559.26 nm  f=0.1145  <S**2>=0.000
     245 -> 247        0.63559
     246 -> 248        0.30122

 Excited State   3:      Singlet-A      3.4582 eV  358.52 nm  f=0.5217  <S**2>=0.000
     241 -> 247       -0.16402
     242 -> 247       -0.11241
     244 -> 247       -0.15950
     245 -> 247       -0.25429
     246 -> 248        0.56889
     245 <- 247        0.10044

 Excited State   4:      Singlet-A      3.5191 eV  352.32 nm  f=0.0898  <S**2>=0.000
     239 -> 247       -0.16130
     240 -> 247        0.17026
     240 -> 249        0.15268
     241 -> 249        0.16608
     242 -> 247       -0.13269
     244 -> 247        0.52018
     246 -> 248        0.20503

 Excited State   5:      Singlet-A      3.6299 eV  341.56 nm  f=0.0453  <S**2>=0.000
     239 -> 247       -0.10053
     239 -> 249       -0.11197
     240 -> 247        0.22237
     240 -> 249        0.16632
     241 -> 247        0.37408
     241 -> 249        0.12543
     242 -> 247        0.20501
     244 -> 247       -0.33212
     246 -> 248        0.12033
     246 -> 249        0.14435

 The electronic state is 1-A.
 Alpha  occ. eigenvalues --  -46.88332 -19.25493 -19.24381 -19.20662 -19.19209
 Alpha  occ. eigenvalues --  -19.18936 -19.18854 -14.41817 -14.41646 -14.39863
 Alpha  occ. eigenvalues --  -14.39770 -10.39922 -10.39647 -10.35688 -10.34680
 Alpha  occ. eigenvalues --  -10.31984 -10.31680 -10.31148 -10.30695 -10.30543
 Alpha  occ. eigenvalues --  -10.30489 -10.30424 -10.30283 -10.30086 -10.29941
 Alpha  occ. eigenvalues --  -10.29136 -10.28896 -10.28617 -10.28565 -10.28478
 Alpha  occ. eigenvalues --  -10.28092 -10.27686 -10.27517 -10.27474 -10.27239
 Alpha  occ. eigenvalues --  -10.27081 -10.26915 -10.26877 -10.26766 -10.26722
 Alpha  occ. eigenvalues --  -10.26395 -10.26336 -10.26224 -10.26190 -10.26172
 Alpha  occ. eigenvalues --  -10.26043 -10.25995 -10.25973 -10.25716 -10.25707
 Alpha  occ. eigenvalues --  -10.25593 -10.25537 -10.25423 -10.25362 -10.25344
 Alpha  occ. eigenvalues --  -10.25104 -10.25048 -10.24776 -10.24661 -10.24555
 Alpha  occ. eigenvalues --  -10.24520 -10.24443 -10.24353 -10.24260 -10.24194
 Alpha  occ. eigenvalues --  -10.24087  -3.17018  -1.91912  -1.91478  -1.91336
 Alpha  occ. eigenvalues --   -1.15481  -1.14506  -1.12239  -1.08263  -1.07996
 Alpha  occ. eigenvalues --   -1.05545  -1.05213  -1.04027  -1.03199  -1.01831
 Alpha  occ. eigenvalues --   -0.91369  -0.90509  -0.89885  -0.89355  -0.89107
 Alpha  occ. eigenvalues --   -0.88787  -0.88455  -0.88045  -0.87616  -0.86929
 Alpha  occ. eigenvalues --   -0.85492  -0.85340  -0.84188  -0.83274  -0.83097
 Alpha  occ. eigenvalues --   -0.82959  -0.82292  -0.81044  -0.80489  -0.80133
 Alpha  occ. eigenvalues --   -0.79475  -0.78419  -0.77973  -0.77366  -0.76208
 Alpha  occ. eigenvalues --   -0.76160  -0.75278  -0.75260  -0.74860  -0.73957
 Alpha  occ. eigenvalues --   -0.73197  -0.72513  -0.71926  -0.70318  -0.69515
 Alpha  occ. eigenvalues --   -0.68872  -0.68569  -0.67407  -0.66920  -0.66089
 Alpha  occ. eigenvalues --   -0.65901  -0.65620  -0.64976  -0.64107  -0.64035
 Alpha  occ. eigenvalues --   -0.63352  -0.62362  -0.62224  -0.61498  -0.60314
 Alpha  occ. eigenvalues --   -0.60235  -0.59311  -0.58872  -0.58003  -0.57426
 Alpha  occ. eigenvalues --   -0.57315  -0.56366  -0.56176  -0.55452  -0.55192
 Alpha  occ. eigenvalues --   -0.55072  -0.54509  -0.54297  -0.53816  -0.53738
 Alpha  occ. eigenvalues --   -0.53585  -0.53290  -0.53183  -0.52972  -0.52842
 Alpha  occ. eigenvalues --   -0.52765  -0.52406  -0.52159  -0.51982  -0.51863
 Alpha  occ. eigenvalues --   -0.51409  -0.51093  -0.50847  -0.50736  -0.50649
 Alpha  occ. eigenvalues --   -0.50307  -0.50098  -0.50016  -0.49933  -0.49715
 Alpha  occ. eigenvalues --   -0.49677  -0.49431  -0.49040  -0.48901  -0.48651
 Alpha  occ. eigenvalues --   -0.48608  -0.48498  -0.48171  -0.48069  -0.48016
 Alpha  occ. eigenvalues --   -0.47770  -0.47609  -0.46870  -0.46560  -0.46467
 Alpha  occ. eigenvalues --   -0.46295  -0.45838  -0.45799  -0.45643  -0.45418
 Alpha  occ. eigenvalues --   -0.45327  -0.45240  -0.45154  -0.44969  -0.44859
 Alpha  occ. eigenvalues --   -0.44581  -0.44415  -0.44334  -0.44103  -0.43893
 Alpha  occ. eigenvalues --   -0.43696  -0.43536  -0.43225  -0.43109  -0.42978
 Alpha  occ. eigenvalues --   -0.42915  -0.42817  -0.42581  -0.42326  -0.42224
 Alpha  occ. eigenvalues --   -0.42072  -0.41925  -0.41616  -0.41547  -0.41387
 Alpha  occ. eigenvalues --   -0.41115  -0.40865  -0.40710  -0.40336  -0.40191
 Alpha  occ. eigenvalues --   -0.39767  -0.39759  -0.39137  -0.39075  -0.38739
 Alpha  occ. eigenvalues --   -0.38539  -0.38378  -0.37986  -0.37870  -0.37722
 Alpha  occ. eigenvalues --   -0.37042  -0.36689  -0.36402  -0.36338  -0.36252
 Alpha  occ. eigenvalues --   -0.35540  -0.35237  -0.34809  -0.34520  -0.34469
 Alpha  occ. eigenvalues --   -0.33778  -0.33335  -0.32690  -0.31331  -0.31187
 Alpha  occ. eigenvalues --   -0.30858  -0.30432  -0.29978  -0.29942  -0.23739
 Alpha  occ. eigenvalues --   -0.20752
 Alpha virt. eigenvalues --   -0.08418  -0.01562   0.00130   0.02383   0.03506
 Alpha virt. eigenvalues --    0.03863   0.05442   0.05897   0.06349   0.06450
 Alpha virt. eigenvalues --    0.07622   0.07929   0.08299   0.08358   0.09141

 Mulliken charges:
               1
     1  Mg   0.850318
     2  C    0.040943
     3  C   -0.075402
     4  C   -0.091713
     5  C   -0.084025
     6  N   -0.248504
     7  C   -0.015125
     8  C   -0.002662
     9  C   -0.032504
    10  C   -0.024272
    11  C    0.058613
    12  C    0.064985
    13  C   -0.007136
    14  C    0.177802
    15  O   -0.205370
    16  O   -0.369008
    17  N   -0.367709
    18  C    0.158743
    19  C   -0.187423
    20  C   -0.032530
    21  C    0.137215
    22  C    0.164510
    23  C   -0.030564
    24  O   -0.172258
    25  C    0.071153
    26  N   -0.269711
    27  C    0.019236
    28  C   -0.029849
    29  C    0.032465
    30  C   -0.014299
    31  C    0.090585
    32  C    0.047923
    33  C   -0.033735
    34  N   -0.428747
    35  C    0.146546
    36  C   -0.200733
    37  C    0.023423
    38  C    0.091084
    39  C    0.110297
    40  C    0.084589
    41  O   -0.191153
    42  C   -0.043785
    43  C    0.203369
    44  O   -0.256967
    45  O   -0.335312
    46  C    0.189858
    47  C    0.326216
    48  C   -0.166979
    49  C   -0.188613
    50  C    0.091684
    51  C    0.093342
    52  C    0.001837
    53  C    0.034934
    54  C   -0.135747
    55  C    0.026324
    56  C    0.074978
    57  C    0.094099
    58  C   -0.011777
    59  C   -0.135058
    60  C    0.041017
    61  C    0.026494
    62  C    0.040764
    63  C    0.052738
    64  C   -0.183011
    65  C    0.028811
    66  C    0.053789
    67  H   -0.053239
    68  H   -0.002426
    69  H   -0.019110
    70  H    0.016408
    71  H    0.032622
    72  H    0.022589
    73  H    0.019512
    74  H    0.008929
    75  H    0.023212
    76  H    0.016791
    77  H    0.050577
    78  H    0.035439
    79  H    0.025638
    80  H    0.024388
    81  H    0.022134
    82  H    0.040635
    83  H    0.029574
    84  H    0.028643
    85  H    0.012610
    86  H    0.021593
    87  H    0.018958
    88  H    0.028843
    89  H    0.000403
    90  H    0.017480
    91  H    0.015753
    92  H    0.017140
    93  H    0.018436
    94  H    0.008409
    95  H    0.013707
    96  H    0.047422
    97  H    0.032818
    98  H    0.032757
    99  H    0.046261
   100  H    0.014127
   101  H    0.030432
   102  H    0.039712
   103  H    0.026829
   104  H   -0.001444
   105  H    0.019139
   106  H    0.023660
   107  H    0.017642
   108  H   -0.012614
   109  H    0.023836
   110  H   -0.000506
   111  H    0.003016
   112  H   -0.012301
   113  H   -0.000309
   114  H   -0.000729
   115  H    0.005857
   116  H    0.014458
   117  H    0.016701
   118  H   -0.024733
   119  H   -0.010519
   120  H    0.001520
   121  H    0.001721
   122  H   -0.015973
   123  H   -0.016187
   124  H   -0.014681
   125  H    0.000949
   126  H   -0.005206
   127  H    0.019830
   128  H   -0.004944
   129  H   -0.011539
   130  H   -0.003456
   131  H    0.004865
   132  H   -0.002583
   133  H   -0.010097
   134  H    0.005908
   135  H    0.005443
   136  H    0.009243
   137  H    0.007793
   138  H    0.007987
   139  H    0.008996
   140  H    0.004247
 Sum of Mulliken charges =  -0.00000

 Dipole moment (field-independent basis, Debye):
    X=              2.1313    Y=              3.8959    Z=              0.9859  Tot=              4.5489
 Quadrupole moment (field-independent basis, Debye-Ang):
   XX=           -369.8409   YY=           -419.1664   ZZ=           -399.4959
   XY=            -13.6883   XZ=             15.6372   YZ=             10.3023

 Normal termination of Gaussian 16 at Wed Apr 27 01:34:36 2022.
