 Gaussian 16, Revision A.03,
 Gaussian 16:  ES64L-G16RevA.03 25-Dec-2016

 ---------------------------------
 #p PBE1PBE/Def2SVP td=(nstates=5)
 ---------------------------------

 ----------------------------------------------------
 step_101_chromophore_7 TDDFT with PBE1PBE functional
 ----------------------------------------------------
 Symbolic Z-matrix:
 Charge =  0 Multiplicity = 1

                         Standard orientation:
 ---------------------------------------------------------------------
 Center     Atomic      Atomic             Coordinates (Angstroms)
 Number     Number       Type             X           Y           Z
 ---------------------------------------------------------------------
      1         12           0       -5.904798    0.347606   -0.096977
      2          6           0       -3.373686   -2.051188    0.081523
      3          6           0       -3.707577    2.549490    1.440024
      4          6           0       -8.229312    2.682651   -0.389533
      5          6           0       -8.180158   -2.049714   -1.162724
      6          7           0       -3.686867    0.284772    0.637823
      7          6           0       -2.936155   -0.851572    0.687361
      8          6           0       -1.528305   -0.387628    1.270976
      9          6           0       -1.725363    1.064673    1.787403
     10          6           0       -3.099071    1.286167    1.331519
     11          6           0       -1.664180    1.370416    3.306721
     12          6           0       -0.452663   -0.330269    0.131631
     13          6           0        0.847752   -1.165177    0.435167
     14          6           0        2.096475   -0.736959   -0.336940
     15          8           0        2.387536    0.329378   -0.827900
     16          8           0        2.919188   -1.859453   -0.264578
     17          7           0       -5.975201    2.326322    0.463443
     18          6           0       -5.018553    3.034515    1.099543
     19          6           0       -5.511423    4.413117    1.330604
     20          6           0       -6.806977    4.454626    0.780520
     21          6           0       -7.066608    3.127184    0.234026
     22          6           0       -4.739347    5.485866    2.016777
     23          6           0       -7.785978    5.617210    0.778198
     24          8           0       -8.884929    5.519693    0.328578
     25          6           0       -7.406944    6.874971    1.398294
     26          7           0       -8.013457    0.269880   -0.376512
     27          6           0       -8.651181    1.403539   -0.749215
     28          6           0       -9.972231    1.160365   -1.425434
     29          6           0      -10.104832   -0.376637   -1.411113
     30          6           0       -8.695905   -0.735039   -0.931812
     31          6           0      -11.174466    1.917816   -0.926027
     32          6           0      -10.532842   -1.097811   -2.742421
     33          6           0      -11.759935   -2.085906   -2.478425
     34          7           0       -5.822704   -1.564214   -0.555897
     35          6           0       -6.837289   -2.489519   -0.878617
     36          6           0       -6.258396   -3.805316   -1.034614
     37          6           0       -4.855967   -3.762381   -0.808031
     38          6           0       -4.689681   -2.342006   -0.446351
     39          6           0       -7.035563   -5.156927   -1.343030
     40          6           0       -3.596694   -4.448482   -0.683072
     41          8           0       -3.318412   -5.661239   -0.765983
     42          6           0       -2.555772   -3.345802   -0.141865
     43          6           0       -1.870297   -3.862583    1.120591
     44          8           0       -2.422185   -3.877703    2.260897
     45          8           0       -0.649686   -4.490223    0.870950
     46          6           0        0.194796   -5.058509    1.905393
     47          6           0        4.328586   -1.767003   -0.761717
     48          6           0        5.139559   -1.022318    0.201633
     49          6           0        6.441914   -0.978239    0.382239
     50          6           0        7.484895   -1.654409   -0.525864
     51          6           0        6.978023   -0.111398    1.499308
     52          6           0        8.037369   -0.778471    2.438979
     53          6           0        9.481663   -0.056889    2.413313
     54          6           0       10.675531   -1.056010    2.361577
     55          6           0       11.037019   -1.512941    3.883686
     56          6           0       11.875354   -0.424990    1.690710
     57          6           0       12.218116   -0.995459    0.281373
     58          6           0       12.377813    0.071383   -0.794947
     59          6           0       13.797059    0.493961   -1.207036
     60          6           0       14.483809    1.522706   -0.245542
     61          6           0       13.778285    1.151776   -2.634877
     62          6           0       12.999530    2.482192   -2.777338
     63          6           0       11.597815    2.248905   -3.344596
     64          6           0       10.473746    2.896386   -2.463093
     65          6           0        9.338921    1.879756   -2.128916
     66          6           0        9.929389    4.181110   -3.191550
     67          1           0       -2.977640    3.232603    1.879140
     68          1           0       -8.958677    3.448991   -0.661284
     69          1           0       -8.883339   -2.851259   -1.401004
     70          1           0       -1.252522   -1.142513    2.006561
     71          1           0       -1.182208    1.883945    1.317652
     72          1           0       -0.941467    0.866064    3.948558
     73          1           0       -2.614792    1.185564    3.807791
     74          1           0       -1.528377    2.450840    3.361433
     75          1           0       -0.146800    0.695713   -0.075806
     76          1           0       -0.903615   -0.733071   -0.774915
     77          1           0        0.577431   -2.202599    0.241212
     78          1           0        1.174000   -1.039020    1.468100
     79          1           0       -3.726507    5.198143    2.299173
     80          1           0       -5.416060    5.736639    2.833645
     81          1           0       -4.742429    6.358767    1.362968
     82          1           0       -6.496835    7.301849    0.975075
     83          1           0       -7.286492    6.523320    2.422462
     84          1           0       -8.263561    7.544414    1.323938
     85          1           0       -9.807600    1.550146   -2.430649
     86          1           0      -10.636666   -0.728526   -0.526766
     87          1           0      -11.593760    2.463966   -1.770388
     88          1           0      -10.939887    2.523888   -0.050432
     89          1           0      -11.936000    1.255153   -0.515149
     90          1           0       -9.695998   -1.722261   -3.057185
     91          1           0      -10.817306   -0.478790   -3.592753
     92          1           0      -12.501098   -1.665600   -1.797671
     93          1           0      -11.472835   -3.066531   -2.098949
     94          1           0      -12.309450   -2.287434   -3.398697
     95          1           0       -7.983522   -5.016062   -1.861064
     96          1           0       -7.095381   -5.683206   -0.390564
     97          1           0       -6.370170   -5.683951   -2.026949
     98          1           0       -1.692213   -3.360853   -0.806844
     99          1           0       -0.201572   -5.253542    2.901664
    100          1           0        1.069772   -4.429344    2.067538
    101          1           0        0.743689   -5.957597    1.624494
    102          1           0        4.436190   -1.348049   -1.762597
    103          1           0        4.720630   -2.783861   -0.781995
    104          1           0        4.532656   -0.457871    0.909707
    105          1           0        7.068778   -1.867828   -1.510196
    106          1           0        7.792483   -2.514722    0.069138
    107          1           0        8.397409   -1.071844   -0.651055
    108          1           0        6.129997    0.067876    2.160341
    109          1           0        7.226529    0.871126    1.099041
    110          1           0        8.188105   -1.839716    2.242674
    111          1           0        7.671516   -0.768513    3.465459
    112          1           0        9.569181    0.493029    3.349476
    113          1           0        9.532684    0.776687    1.714432
    114          1           0       10.399654   -1.962292    1.823151
    115          1           0       10.328154   -2.282692    4.186307
    116          1           0       10.919967   -0.639674    4.525057
    117          1           0       12.025719   -1.969070    3.923746
    118          1           0       12.740472   -0.573722    2.336574
    119          1           0       11.851785    0.664514    1.681202
    120          1           0       11.370756   -1.539196   -0.135221
    121          1           0       13.168465   -1.528706    0.262569
    122          1           0       11.970784    1.049773   -0.539974
    123          1           0       11.783486   -0.145659   -1.681991
    124          1           0       14.425673   -0.395627   -1.219437
    125          1           0       15.170658    1.064438    0.466261
    126          1           0       13.685108    1.901083    0.392301
    127          1           0       15.020725    2.343447   -0.723532
    128          1           0       13.481825    0.322569   -3.276243
    129          1           0       14.829981    1.340088   -2.851693
    130          1           0       13.454917    3.136894   -3.521137
    131          1           0       12.958241    3.013533   -1.826560
    132          1           0       11.384442    1.206891   -3.586862
    133          1           0       11.622240    2.727496   -4.322699
    134          1           0       10.761025    3.302361   -1.493689
    135          1           0        8.356127    2.208076   -2.469175
    136          1           0        9.241280    1.724059   -1.055124
    137          1           0        9.541659    0.895865   -2.551277
    138          1           0       10.525844    4.367042   -4.084051
    139          1           0        9.985873    5.036094   -2.517258
    140          1           0        8.891542    3.946698   -3.430319
 ---------------------------------------------------------------------

 SCF Done:  E(RPBE1PBE) =  -3005.33599396     A.U. after   15 cycles

 Excitation energies and oscillator strengths:

 Excited State   1:      Singlet-A      1.8165 eV  682.53 nm  f=0.3516  <S**2>=0.000
     245 -> 248        0.17780
     246 -> 247        0.69275
     246 <- 247       -0.10831
 This state for optimization and/or second-order correction.
 Total Energy, E(TD-HF/TD-DFT) =  -3005.26923729
 Copying the excited state density for this state as the 1-particle RhoCI density.

 Excited State   2:      Singlet-A      2.2213 eV  558.17 nm  f=0.1130  <S**2>=0.000
     245 -> 247        0.64855
     246 -> 248       -0.27191

 Excited State   3:      Singlet-A      3.0896 eV  401.30 nm  f=0.0049  <S**2>=0.000
     240 -> 247       -0.20444
     240 -> 249       -0.10398
     241 -> 247        0.22836
     241 -> 249        0.10100
     243 -> 247        0.57095
     243 -> 249        0.11406
     246 -> 248        0.12513

 Excited State   4:      Singlet-A      3.2416 eV  382.48 nm  f=0.0384  <S**2>=0.000
     242 -> 247        0.62838
     242 -> 249       -0.10324
     246 -> 248        0.20939
     246 -> 249       -0.12197

 Excited State   5:      Singlet-A      3.2534 eV  381.09 nm  f=0.1431  <S**2>=0.000
     241 -> 247        0.25133
     242 -> 247       -0.24496
     243 -> 247       -0.24290
     245 -> 247        0.14627
     246 -> 248        0.43004
     246 -> 249       -0.28685

 The electronic state is 1-A.
 Alpha  occ. eigenvalues --  -46.91756 -19.26182 -19.25128 -19.20924 -19.19477
 Alpha  occ. eigenvalues --  -19.19313 -19.18943 -14.41320 -14.41151 -14.39645
 Alpha  occ. eigenvalues --  -14.39343 -10.37001 -10.36691 -10.32941 -10.31669
 Alpha  occ. eigenvalues --  -10.29361 -10.28985 -10.28940 -10.28357 -10.28204
 Alpha  occ. eigenvalues --  -10.28137 -10.28003 -10.27983 -10.27903 -10.27791
 Alpha  occ. eigenvalues --  -10.26834 -10.26465 -10.26450 -10.26383 -10.26371
 Alpha  occ. eigenvalues --  -10.25862 -10.25581 -10.25040 -10.25018 -10.24791
 Alpha  occ. eigenvalues --  -10.24790 -10.24551 -10.24543 -10.24422 -10.24378
 Alpha  occ. eigenvalues --  -10.23996 -10.23976 -10.23910 -10.23863 -10.23592
 Alpha  occ. eigenvalues --  -10.23553 -10.23546 -10.23423 -10.23383 -10.23205
 Alpha  occ. eigenvalues --  -10.23162 -10.23155 -10.23123 -10.22943 -10.22824
 Alpha  occ. eigenvalues --  -10.22636 -10.22478 -10.22314 -10.22164 -10.22142
 Alpha  occ. eigenvalues --  -10.22074 -10.22030 -10.21749 -10.21666 -10.21624
 Alpha  occ. eigenvalues --  -10.21598  -3.14017  -1.86853  -1.86397  -1.86261
 Alpha  occ. eigenvalues --   -1.10280  -1.09302  -1.06882  -1.03110  -1.02890
 Alpha  occ. eigenvalues --   -1.00355  -0.99857  -0.98606  -0.97777  -0.96633
 Alpha  occ. eigenvalues --   -0.85770  -0.84654  -0.83956  -0.83637  -0.83430
 Alpha  occ. eigenvalues --   -0.82967  -0.82558  -0.82259  -0.81894  -0.81044
 Alpha  occ. eigenvalues --   -0.79892  -0.79637  -0.78380  -0.77452  -0.77399
 Alpha  occ. eigenvalues --   -0.77114  -0.76507  -0.75323  -0.74772  -0.74421
 Alpha  occ. eigenvalues --   -0.73654  -0.72694  -0.72230  -0.71713  -0.70560
 Alpha  occ. eigenvalues --   -0.70311  -0.69636  -0.69350  -0.68974  -0.68109
 Alpha  occ. eigenvalues --   -0.67504  -0.67001  -0.66327  -0.64641  -0.63875
 Alpha  occ. eigenvalues --   -0.63255  -0.62948  -0.61780  -0.61169  -0.60568
 Alpha  occ. eigenvalues --   -0.60314  -0.59828  -0.59539  -0.58702  -0.58180
 Alpha  occ. eigenvalues --   -0.57521  -0.56967  -0.56831  -0.55705  -0.54763
 Alpha  occ. eigenvalues --   -0.54554  -0.53960  -0.53395  -0.52656  -0.52112
 Alpha  occ. eigenvalues --   -0.51705  -0.50877  -0.50726  -0.49992  -0.49710
 Alpha  occ. eigenvalues --   -0.49675  -0.48938  -0.48663  -0.48398  -0.48229
 Alpha  occ. eigenvalues --   -0.48031  -0.47920  -0.47685  -0.47422  -0.47362
 Alpha  occ. eigenvalues --   -0.47292  -0.46868  -0.46654  -0.46566  -0.46368
 Alpha  occ. eigenvalues --   -0.45971  -0.45626  -0.45384  -0.45304  -0.45204
 Alpha  occ. eigenvalues --   -0.44909  -0.44655  -0.44561  -0.44507  -0.44223
 Alpha  occ. eigenvalues --   -0.44173  -0.44089  -0.43689  -0.43587  -0.43304
 Alpha  occ. eigenvalues --   -0.43202  -0.43145  -0.42801  -0.42731  -0.42623
 Alpha  occ. eigenvalues --   -0.42345  -0.42208  -0.41563  -0.41299  -0.41094
 Alpha  occ. eigenvalues --   -0.41042  -0.40590  -0.40465  -0.40346  -0.40222
 Alpha  occ. eigenvalues --   -0.39998  -0.39935  -0.39705  -0.39677  -0.39642
 Alpha  occ. eigenvalues --   -0.39429  -0.39101  -0.39030  -0.38820  -0.38587
 Alpha  occ. eigenvalues --   -0.38535  -0.38341  -0.37991  -0.37864  -0.37714
 Alpha  occ. eigenvalues --   -0.37636  -0.37596  -0.37362  -0.37186  -0.36973
 Alpha  occ. eigenvalues --   -0.36928  -0.36797  -0.36538  -0.36465  -0.36169
 Alpha  occ. eigenvalues --   -0.35965  -0.35635  -0.35607  -0.35216  -0.35088
 Alpha  occ. eigenvalues --   -0.34740  -0.34570  -0.34097  -0.33915  -0.33524
 Alpha  occ. eigenvalues --   -0.33495  -0.33230  -0.32972  -0.32686  -0.32512
 Alpha  occ. eigenvalues --   -0.31919  -0.31531  -0.31458  -0.31429  -0.31141
 Alpha  occ. eigenvalues --   -0.30516  -0.30190  -0.29976  -0.29442  -0.29366
 Alpha  occ. eigenvalues --   -0.28717  -0.28590  -0.27835  -0.26743  -0.26212
 Alpha  occ. eigenvalues --   -0.26028  -0.25854  -0.25502  -0.25230  -0.20691
 Alpha  occ. eigenvalues --   -0.18407
 Alpha virt. eigenvalues --   -0.10909  -0.05058  -0.04125  -0.01954  -0.00763
 Alpha virt. eigenvalues --    0.00774   0.00838   0.01528   0.02304   0.03031
 Alpha virt. eigenvalues --    0.03725   0.04129   0.04517   0.04939   0.05230

 Mulliken charges:
               1
     1  Mg   1.006284
     2  C    0.015627
     3  C   -0.064494
     4  C   -0.078803
     5  C   -0.081963
     6  N   -0.346309
     7  C    0.060160
     8  C   -0.076394
     9  C   -0.117071
    10  C    0.020616
    11  C    0.005487
    12  C    0.021195
    13  C   -0.090667
    14  C    0.247610
    15  O   -0.239974
    16  O   -0.398688
    17  N   -0.490006
    18  C    0.185636
    19  C   -0.214876
    20  C   -0.086107
    21  C    0.166718
    22  C    0.096599
    23  C    0.029605
    24  O   -0.212637
    25  C   -0.008192
    26  N   -0.372287
    27  C    0.046592
    28  C   -0.104815
    29  C   -0.048652
    30  C    0.033364
    31  C    0.032539
    32  C   -0.015922
    33  C   -0.104286
    34  N   -0.551946
    35  C    0.167236
    36  C   -0.219236
    37  C   -0.013339
    38  C    0.134477
    39  C    0.056135
    40  C    0.169437
    41  O   -0.233713
    42  C   -0.140496
    43  C    0.290623
    44  O   -0.289718
    45  O   -0.369954
    46  C    0.137481
    47  C    0.281902
    48  C   -0.175788
    49  C   -0.231127
    50  C    0.027185
    51  C    0.027295
    52  C   -0.058455
    53  C   -0.016558
    54  C   -0.226250
    55  C   -0.034170
    56  C    0.026887
    57  C    0.024221
    58  C   -0.060631
    59  C   -0.220548
    60  C   -0.017481
    61  C   -0.034989
    62  C   -0.020591
    63  C   -0.002393
    64  C   -0.272749
    65  C   -0.032219
    66  C   -0.004002
    67  H   -0.019306
    68  H    0.030163
    69  H    0.015081
    70  H    0.053857
    71  H    0.068544
    72  H    0.050095
    73  H    0.047883
    74  H    0.036074
    75  H    0.054296
    76  H    0.050602
    77  H    0.087863
    78  H    0.068067
    79  H    0.052370
    80  H    0.053378
    81  H    0.051026
    82  H    0.067232
    83  H    0.058280
    84  H    0.056243
    85  H    0.051228
    86  H    0.059781
    87  H    0.045809
    88  H    0.055851
    89  H    0.028480
    90  H    0.050956
    91  H    0.047645
    92  H    0.045100
    93  H    0.045208
    94  H    0.037031
    95  H    0.040031
    96  H    0.075530
    97  H    0.060876
    98  H    0.069284
    99  H    0.066831
   100  H    0.035846
   101  H    0.052332
   102  H    0.065823
   103  H    0.053912
   104  H    0.028411
   105  H    0.045925
   106  H    0.051236
   107  H    0.049530
   108  H    0.020712
   109  H    0.055879
   110  H    0.031361
   111  H    0.035256
   112  H    0.020718
   113  H    0.032393
   114  H    0.036013
   115  H    0.034159
   116  H    0.041124
   117  H    0.043950
   118  H    0.008619
   119  H    0.020163
   120  H    0.034783
   121  H    0.033987
   122  H    0.019874
   123  H    0.017448
   124  H    0.023251
   125  H    0.029565
   126  H    0.022295
   127  H    0.046216
   128  H    0.028345
   129  H    0.022982
   130  H    0.029842
   131  H    0.036029
   132  H    0.026436
   133  H    0.022791
   134  H    0.041228
   135  H    0.032148
   136  H    0.039394
   137  H    0.033928
   138  H    0.034755
   139  H    0.036258
   140  H    0.031281
 Sum of Mulliken charges =  -0.00000

 Dipole moment (field-independent basis, Debye):
    X=              2.0805    Y=              3.5761    Z=              0.9276  Tot=              4.2400
 Quadrupole moment (field-independent basis, Debye-Ang):
   XX=           -363.7012   YY=           -416.5301   ZZ=           -396.7727
   XY=            -11.2705   XZ=             17.2044   YZ=             10.4752

 Normal termination of Gaussian 16 at Wed Apr 27 01:58:56 2022.
