 Gaussian 16, Revision A.03,
 Gaussian 16:  ES64L-G16RevA.03 25-Dec-2016

 --------------------------------
 #p wB97XD/Def2SVP td=(nstates=5)
 --------------------------------

 ---------------------------------------------------
 step_101_chromophore_7 TDDFT with wB97XD functional
 ---------------------------------------------------
 Symbolic Z-matrix:
 Charge =  0 Multiplicity = 1

                         Standard orientation:
 ---------------------------------------------------------------------
 Center     Atomic      Atomic             Coordinates (Angstroms)
 Number     Number       Type             X           Y           Z
 ---------------------------------------------------------------------
      1         12           0       -5.904798    0.347606   -0.096977
      2          6           0       -3.373686   -2.051188    0.081523
      3          6           0       -3.707577    2.549490    1.440024
      4          6           0       -8.229312    2.682651   -0.389533
      5          6           0       -8.180158   -2.049714   -1.162724
      6          7           0       -3.686867    0.284772    0.637823
      7          6           0       -2.936155   -0.851572    0.687361
      8          6           0       -1.528305   -0.387628    1.270976
      9          6           0       -1.725363    1.064673    1.787403
     10          6           0       -3.099071    1.286167    1.331519
     11          6           0       -1.664180    1.370416    3.306721
     12          6           0       -0.452663   -0.330269    0.131631
     13          6           0        0.847752   -1.165177    0.435167
     14          6           0        2.096475   -0.736959   -0.336940
     15          8           0        2.387536    0.329378   -0.827900
     16          8           0        2.919188   -1.859453   -0.264578
     17          7           0       -5.975201    2.326322    0.463443
     18          6           0       -5.018553    3.034515    1.099543
     19          6           0       -5.511423    4.413117    1.330604
     20          6           0       -6.806977    4.454626    0.780520
     21          6           0       -7.066608    3.127184    0.234026
     22          6           0       -4.739347    5.485866    2.016777
     23          6           0       -7.785978    5.617210    0.778198
     24          8           0       -8.884929    5.519693    0.328578
     25          6           0       -7.406944    6.874971    1.398294
     26          7           0       -8.013457    0.269880   -0.376512
     27          6           0       -8.651181    1.403539   -0.749215
     28          6           0       -9.972231    1.160365   -1.425434
     29          6           0      -10.104832   -0.376637   -1.411113
     30          6           0       -8.695905   -0.735039   -0.931812
     31          6           0      -11.174466    1.917816   -0.926027
     32          6           0      -10.532842   -1.097811   -2.742421
     33          6           0      -11.759935   -2.085906   -2.478425
     34          7           0       -5.822704   -1.564214   -0.555897
     35          6           0       -6.837289   -2.489519   -0.878617
     36          6           0       -6.258396   -3.805316   -1.034614
     37          6           0       -4.855967   -3.762381   -0.808031
     38          6           0       -4.689681   -2.342006   -0.446351
     39          6           0       -7.035563   -5.156927   -1.343030
     40          6           0       -3.596694   -4.448482   -0.683072
     41          8           0       -3.318412   -5.661239   -0.765983
     42          6           0       -2.555772   -3.345802   -0.141865
     43          6           0       -1.870297   -3.862583    1.120591
     44          8           0       -2.422185   -3.877703    2.260897
     45          8           0       -0.649686   -4.490223    0.870950
     46          6           0        0.194796   -5.058509    1.905393
     47          6           0        4.328586   -1.767003   -0.761717
     48          6           0        5.139559   -1.022318    0.201633
     49          6           0        6.441914   -0.978239    0.382239
     50          6           0        7.484895   -1.654409   -0.525864
     51          6           0        6.978023   -0.111398    1.499308
     52          6           0        8.037369   -0.778471    2.438979
     53          6           0        9.481663   -0.056889    2.413313
     54          6           0       10.675531   -1.056010    2.361577
     55          6           0       11.037019   -1.512941    3.883686
     56          6           0       11.875354   -0.424990    1.690710
     57          6           0       12.218116   -0.995459    0.281373
     58          6           0       12.377813    0.071383   -0.794947
     59          6           0       13.797059    0.493961   -1.207036
     60          6           0       14.483809    1.522706   -0.245542
     61          6           0       13.778285    1.151776   -2.634877
     62          6           0       12.999530    2.482192   -2.777338
     63          6           0       11.597815    2.248905   -3.344596
     64          6           0       10.473746    2.896386   -2.463093
     65          6           0        9.338921    1.879756   -2.128916
     66          6           0        9.929389    4.181110   -3.191550
     67          1           0       -2.977640    3.232603    1.879140
     68          1           0       -8.958677    3.448991   -0.661284
     69          1           0       -8.883339   -2.851259   -1.401004
     70          1           0       -1.252522   -1.142513    2.006561
     71          1           0       -1.182208    1.883945    1.317652
     72          1           0       -0.941467    0.866064    3.948558
     73          1           0       -2.614792    1.185564    3.807791
     74          1           0       -1.528377    2.450840    3.361433
     75          1           0       -0.146800    0.695713   -0.075806
     76          1           0       -0.903615   -0.733071   -0.774915
     77          1           0        0.577431   -2.202599    0.241212
     78          1           0        1.174000   -1.039020    1.468100
     79          1           0       -3.726507    5.198143    2.299173
     80          1           0       -5.416060    5.736639    2.833645
     81          1           0       -4.742429    6.358767    1.362968
     82          1           0       -6.496835    7.301849    0.975075
     83          1           0       -7.286492    6.523320    2.422462
     84          1           0       -8.263561    7.544414    1.323938
     85          1           0       -9.807600    1.550146   -2.430649
     86          1           0      -10.636666   -0.728526   -0.526766
     87          1           0      -11.593760    2.463966   -1.770388
     88          1           0      -10.939887    2.523888   -0.050432
     89          1           0      -11.936000    1.255153   -0.515149
     90          1           0       -9.695998   -1.722261   -3.057185
     91          1           0      -10.817306   -0.478790   -3.592753
     92          1           0      -12.501098   -1.665600   -1.797671
     93          1           0      -11.472835   -3.066531   -2.098949
     94          1           0      -12.309450   -2.287434   -3.398697
     95          1           0       -7.983522   -5.016062   -1.861064
     96          1           0       -7.095381   -5.683206   -0.390564
     97          1           0       -6.370170   -5.683951   -2.026949
     98          1           0       -1.692213   -3.360853   -0.806844
     99          1           0       -0.201572   -5.253542    2.901664
    100          1           0        1.069772   -4.429344    2.067538
    101          1           0        0.743689   -5.957597    1.624494
    102          1           0        4.436190   -1.348049   -1.762597
    103          1           0        4.720630   -2.783861   -0.781995
    104          1           0        4.532656   -0.457871    0.909707
    105          1           0        7.068778   -1.867828   -1.510196
    106          1           0        7.792483   -2.514722    0.069138
    107          1           0        8.397409   -1.071844   -0.651055
    108          1           0        6.129997    0.067876    2.160341
    109          1           0        7.226529    0.871126    1.099041
    110          1           0        8.188105   -1.839716    2.242674
    111          1           0        7.671516   -0.768513    3.465459
    112          1           0        9.569181    0.493029    3.349476
    113          1           0        9.532684    0.776687    1.714432
    114          1           0       10.399654   -1.962292    1.823151
    115          1           0       10.328154   -2.282692    4.186307
    116          1           0       10.919967   -0.639674    4.525057
    117          1           0       12.025719   -1.969070    3.923746
    118          1           0       12.740472   -0.573722    2.336574
    119          1           0       11.851785    0.664514    1.681202
    120          1           0       11.370756   -1.539196   -0.135221
    121          1           0       13.168465   -1.528706    0.262569
    122          1           0       11.970784    1.049773   -0.539974
    123          1           0       11.783486   -0.145659   -1.681991
    124          1           0       14.425673   -0.395627   -1.219437
    125          1           0       15.170658    1.064438    0.466261
    126          1           0       13.685108    1.901083    0.392301
    127          1           0       15.020725    2.343447   -0.723532
    128          1           0       13.481825    0.322569   -3.276243
    129          1           0       14.829981    1.340088   -2.851693
    130          1           0       13.454917    3.136894   -3.521137
    131          1           0       12.958241    3.013533   -1.826560
    132          1           0       11.384442    1.206891   -3.586862
    133          1           0       11.622240    2.727496   -4.322699
    134          1           0       10.761025    3.302361   -1.493689
    135          1           0        8.356127    2.208076   -2.469175
    136          1           0        9.241280    1.724059   -1.055124
    137          1           0        9.541659    0.895865   -2.551277
    138          1           0       10.525844    4.367042   -4.084051
    139          1           0        9.985873    5.036094   -2.517258
    140          1           0        8.891542    3.946698   -3.430319
 ---------------------------------------------------------------------

 SCF Done:  E(RwB97XD) =  -3007.84803534     A.U. after   20 cycles

 Excitation energies and oscillator strengths:

 Excited State   1:      Singlet-A      1.6059 eV  772.04 nm  f=0.3627  <S**2>=0.000
     245 -> 248       -0.18988
     246 -> 247        0.68320
     245 <- 248       -0.12107
 This state for optimization and/or second-order correction.
 Total Energy, E(TD-HF/TD-DFT) =  -3007.78901823
 Copying the excited state density for this state as the 1-particle RhoCI density.

 Excited State   2:      Singlet-A      2.1626 eV  573.32 nm  f=0.1110  <S**2>=0.000
     245 -> 247        0.63354
     246 -> 248        0.30410

 Excited State   3:      Singlet-A      3.4740 eV  356.89 nm  f=0.5864  <S**2>=0.000
     241 -> 247       -0.13968
     242 -> 247       -0.12778
     243 -> 247       -0.12529
     245 -> 247       -0.26559
     246 -> 248        0.58912
     245 <- 247        0.11007

 Excited State   4:      Singlet-A      3.5472 eV  349.53 nm  f=0.0419  <S**2>=0.000
     239 -> 247       -0.15202
     240 -> 249        0.11482
     241 -> 249        0.20190
     242 -> 247       -0.18863
     243 -> 247        0.54978
     243 -> 249        0.10572
     246 -> 248        0.12896

 Excited State   5:      Singlet-A      3.6618 eV  338.59 nm  f=0.0515  <S**2>=0.000
     239 -> 249       -0.13521
     240 -> 247        0.18910
     240 -> 249        0.14275
     241 -> 247        0.43156
     241 -> 249        0.18550
     242 -> 247        0.19040
     243 -> 247       -0.25422
     243 -> 249        0.11770
     246 -> 248        0.12664
     246 -> 249        0.10340

 The electronic state is 1-A.
 Alpha  occ. eigenvalues --  -46.94680 -19.30719 -19.29661 -19.25598 -19.24171
 Alpha  occ. eigenvalues --  -19.23996 -19.23882 -14.46405 -14.46252 -14.44479
 Alpha  occ. eigenvalues --  -14.44392 -10.43809 -10.43470 -10.39720 -10.38630
 Alpha  occ. eigenvalues --  -10.35862 -10.35417 -10.35180 -10.34808 -10.34594
 Alpha  occ. eigenvalues --  -10.34467 -10.34462 -10.34386 -10.34102 -10.33945
 Alpha  occ. eigenvalues --  -10.33199 -10.33099 -10.32722 -10.32699 -10.32593
 Alpha  occ. eigenvalues --  -10.32153 -10.31735 -10.31454 -10.31452 -10.31264
 Alpha  occ. eigenvalues --  -10.31045 -10.31021 -10.31015 -10.30813 -10.30714
 Alpha  occ. eigenvalues --  -10.30322 -10.30297 -10.30192 -10.30087 -10.30064
 Alpha  occ. eigenvalues --  -10.30048 -10.29926 -10.29856 -10.29679 -10.29604
 Alpha  occ. eigenvalues --  -10.29548 -10.29535 -10.29403 -10.29300 -10.29226
 Alpha  occ. eigenvalues --  -10.29021 -10.28908 -10.28689 -10.28568 -10.28489
 Alpha  occ. eigenvalues --  -10.28450 -10.28378 -10.28162 -10.28098 -10.28014
 Alpha  occ. eigenvalues --  -10.28004  -3.20790  -1.94377  -1.93922  -1.93780
 Alpha  occ. eigenvalues --   -1.17654  -1.16688  -1.14469  -1.10498  -1.10221
 Alpha  occ. eigenvalues --   -1.07730  -1.07226  -1.06049  -1.05275  -1.03850
 Alpha  occ. eigenvalues --   -0.93331  -0.92328  -0.91637  -0.91256  -0.90974
 Alpha  occ. eigenvalues --   -0.90744  -0.90233  -0.90002  -0.89519  -0.88703
 Alpha  occ. eigenvalues --   -0.87431  -0.87252  -0.86053  -0.85171  -0.85028
 Alpha  occ. eigenvalues --   -0.84852  -0.84161  -0.82941  -0.82395  -0.82071
 Alpha  occ. eigenvalues --   -0.81324  -0.80410  -0.79876  -0.79281  -0.78137
 Alpha  occ. eigenvalues --   -0.78002  -0.77226  -0.77052  -0.76670  -0.75782
 Alpha  occ. eigenvalues --   -0.75116  -0.74497  -0.73896  -0.72258  -0.71423
 Alpha  occ. eigenvalues --   -0.70802  -0.70523  -0.69421  -0.68805  -0.68026
 Alpha  occ. eigenvalues --   -0.67859  -0.67473  -0.66985  -0.66120  -0.65856
 Alpha  occ. eigenvalues --   -0.65166  -0.64360  -0.64223  -0.63340  -0.62330
 Alpha  occ. eigenvalues --   -0.62106  -0.61308  -0.60858  -0.60003  -0.59443
 Alpha  occ. eigenvalues --   -0.59227  -0.58330  -0.58186  -0.57395  -0.57133
 Alpha  occ. eigenvalues --   -0.57061  -0.56457  -0.56260  -0.55762  -0.55630
 Alpha  occ. eigenvalues --   -0.55469  -0.55220  -0.55113  -0.54834  -0.54779
 Alpha  occ. eigenvalues --   -0.54696  -0.54286  -0.54045  -0.53891  -0.53748
 Alpha  occ. eigenvalues --   -0.53311  -0.52992  -0.52722  -0.52712  -0.52583
 Alpha  occ. eigenvalues --   -0.52199  -0.52035  -0.51959  -0.51842  -0.51704
 Alpha  occ. eigenvalues --   -0.51547  -0.51349  -0.50953  -0.50820  -0.50584
 Alpha  occ. eigenvalues --   -0.50475  -0.50423  -0.50063  -0.50012  -0.49897
 Alpha  occ. eigenvalues --   -0.49764  -0.49495  -0.48773  -0.48498  -0.48337
 Alpha  occ. eigenvalues --   -0.48233  -0.47754  -0.47687  -0.47562  -0.47366
 Alpha  occ. eigenvalues --   -0.47192  -0.47180  -0.46974  -0.46841  -0.46801
 Alpha  occ. eigenvalues --   -0.46507  -0.46288  -0.46242  -0.45989  -0.45837
 Alpha  occ. eigenvalues --   -0.45648  -0.45491  -0.45123  -0.45018  -0.44925
 Alpha  occ. eigenvalues --   -0.44869  -0.44748  -0.44517  -0.44279  -0.44096
 Alpha  occ. eigenvalues --   -0.43981  -0.43835  -0.43540  -0.43478  -0.43257
 Alpha  occ. eigenvalues --   -0.43090  -0.42726  -0.42608  -0.42180  -0.42093
 Alpha  occ. eigenvalues --   -0.41654  -0.41622  -0.40980  -0.40973  -0.40598
 Alpha  occ. eigenvalues --   -0.40470  -0.40287  -0.39919  -0.39709  -0.39568
 Alpha  occ. eigenvalues --   -0.38932  -0.38582  -0.38539  -0.38284  -0.38145
 Alpha  occ. eigenvalues --   -0.37545  -0.37098  -0.36802  -0.36412  -0.36354
 Alpha  occ. eigenvalues --   -0.35612  -0.35375  -0.34820  -0.33458  -0.33168
 Alpha  occ. eigenvalues --   -0.32955  -0.32645  -0.32096  -0.32008  -0.25674
 Alpha  occ. eigenvalues --   -0.22565
 Alpha virt. eigenvalues --   -0.06778   0.00342   0.02192   0.04504   0.05979
 Alpha virt. eigenvalues --    0.06589   0.07726   0.08291   0.09008   0.09262
 Alpha virt. eigenvalues --    0.10320   0.10791   0.11292   0.11542   0.11961

 Mulliken charges:
               1
     1  Mg   0.994564
     2  C    0.020079
     3  C   -0.082491
     4  C   -0.098918
     5  C   -0.092508
     6  N   -0.313231
     7  C    0.025508
     8  C   -0.051913
     9  C   -0.087937
    10  C    0.008468
    11  C    0.014311
    12  C    0.031163
    13  C   -0.063560
    14  C    0.234114
    15  O   -0.236155
    16  O   -0.398107
    17  N   -0.456251
    18  C    0.178578
    19  C   -0.203563
    20  C   -0.079202
    21  C    0.161645
    22  C    0.114286
    23  C    0.025249
    24  O   -0.206177
    25  C    0.005150
    26  N   -0.341422
    27  C    0.040994
    28  C   -0.081554
    29  C   -0.022526
    30  C    0.016513
    31  C    0.040799
    32  C   -0.000575
    33  C   -0.086868
    34  N   -0.519793
    35  C    0.160453
    36  C   -0.217654
    37  C   -0.015457
    38  C    0.121465
    39  C    0.069574
    40  C    0.154962
    41  O   -0.225737
    42  C   -0.104943
    43  C    0.264714
    44  O   -0.283627
    45  O   -0.366990
    46  C    0.152586
    47  C    0.295983
    48  C   -0.182586
    49  C   -0.219113
    50  C    0.043243
    51  C    0.045976
    52  C   -0.041943
    53  C   -0.001543
    54  C   -0.194212
    55  C   -0.019104
    56  C    0.038908
    57  C    0.043102
    58  C   -0.032175
    59  C   -0.192370
    60  C   -0.006692
    61  C   -0.013705
    62  C   -0.006191
    63  C    0.015240
    64  C   -0.247800
    65  C   -0.014221
    66  C    0.010916
    67  H   -0.032160
    68  H    0.023058
    69  H    0.003437
    70  H    0.042612
    71  H    0.058199
    72  H    0.046470
    73  H    0.041252
    74  H    0.029749
    75  H    0.046237
    76  H    0.041299
    77  H    0.072739
    78  H    0.060549
    79  H    0.050635
    80  H    0.046168
    81  H    0.044407
    82  H    0.062137
    83  H    0.050301
    84  H    0.056026
    85  H    0.040692
    86  H    0.047580
    87  H    0.041913
    88  H    0.049794
    89  H    0.022970
    90  H    0.041125
    91  H    0.041421
    92  H    0.037270
    93  H    0.039084
    94  H    0.031542
    95  H    0.034663
    96  H    0.070103
    97  H    0.055319
    98  H    0.062170
    99  H    0.063835
   100  H    0.030800
   101  H    0.048201
   102  H    0.062453
   103  H    0.049627
   104  H    0.022249
   105  H    0.041649
   106  H    0.044130
   107  H    0.039972
   108  H    0.013052
   109  H    0.048399
   110  H    0.019479
   111  H    0.028942
   112  H    0.010939
   113  H    0.020646
   114  H    0.021687
   115  H    0.028185
   116  H    0.033978
   117  H    0.037968
   118  H    0.000197
   119  H    0.009621
   120  H    0.025728
   121  H    0.026310
   122  H   -0.005076
   123  H    0.002544
   124  H    0.012358
   125  H    0.024657
   126  H    0.013120
   127  H    0.040537
   128  H    0.018992
   129  H    0.014026
   130  H    0.023808
   131  H    0.024053
   132  H    0.015722
   133  H    0.013928
   134  H    0.030518
   135  H    0.026202
   136  H    0.029959
   137  H    0.025434
   138  H    0.027611
   139  H    0.031157
   140  H    0.023910
 Sum of Mulliken charges =  -0.00000

 Dipole moment (field-independent basis, Debye):
    X=              2.1372    Y=              4.0401    Z=              1.0491  Tot=              4.6894
 Quadrupole moment (field-independent basis, Debye-Ang):
   XX=           -364.5026   YY=           -414.7197   ZZ=           -396.2851
   XY=            -14.5980   XZ=             16.4009   YZ=             10.8369

 Normal termination of Gaussian 16 at Wed Apr 27 02:30:37 2022.
