 Gaussian 16, Revision A.03,
 Gaussian 16:  ES64L-G16RevA.03 25-Dec-2016

 --------------------
 #p ZINDO=(nstates=5)
 --------------------

 ----------------------------
 step_101_chromophore_7 ZINDO
 ----------------------------
 Symbolic Z-matrix:
 Charge =  0 Multiplicity = 1

                         Standard orientation:
 ---------------------------------------------------------------------
 Center     Atomic      Atomic             Coordinates (Angstroms)
 Number     Number       Type             X           Y           Z
 ---------------------------------------------------------------------
      1         12           0       -5.904798    0.347606   -0.096977
      2          6           0       -3.373686   -2.051188    0.081523
      3          6           0       -3.707577    2.549490    1.440024
      4          6           0       -8.229312    2.682651   -0.389533
      5          6           0       -8.180158   -2.049714   -1.162724
      6          7           0       -3.686867    0.284772    0.637823
      7          6           0       -2.936155   -0.851572    0.687361
      8          6           0       -1.528305   -0.387628    1.270976
      9          6           0       -1.725363    1.064673    1.787403
     10          6           0       -3.099071    1.286167    1.331519
     11          6           0       -1.664180    1.370416    3.306721
     12          6           0       -0.452663   -0.330269    0.131631
     13          6           0        0.847752   -1.165177    0.435167
     14          6           0        2.096475   -0.736959   -0.336940
     15          8           0        2.387536    0.329378   -0.827900
     16          8           0        2.919188   -1.859453   -0.264578
     17          7           0       -5.975201    2.326322    0.463443
     18          6           0       -5.018553    3.034515    1.099543
     19          6           0       -5.511423    4.413117    1.330604
     20          6           0       -6.806977    4.454626    0.780520
     21          6           0       -7.066608    3.127184    0.234026
     22          6           0       -4.739347    5.485866    2.016777
     23          6           0       -7.785978    5.617210    0.778198
     24          8           0       -8.884929    5.519693    0.328578
     25          6           0       -7.406944    6.874971    1.398294
     26          7           0       -8.013457    0.269880   -0.376512
     27          6           0       -8.651181    1.403539   -0.749215
     28          6           0       -9.972231    1.160365   -1.425434
     29          6           0      -10.104832   -0.376637   -1.411113
     30          6           0       -8.695905   -0.735039   -0.931812
     31          6           0      -11.174466    1.917816   -0.926027
     32          6           0      -10.532842   -1.097811   -2.742421
     33          6           0      -11.759935   -2.085906   -2.478425
     34          7           0       -5.822704   -1.564214   -0.555897
     35          6           0       -6.837289   -2.489519   -0.878617
     36          6           0       -6.258396   -3.805316   -1.034614
     37          6           0       -4.855967   -3.762381   -0.808031
     38          6           0       -4.689681   -2.342006   -0.446351
     39          6           0       -7.035563   -5.156927   -1.343030
     40          6           0       -3.596694   -4.448482   -0.683072
     41          8           0       -3.318412   -5.661239   -0.765983
     42          6           0       -2.555772   -3.345802   -0.141865
     43          6           0       -1.870297   -3.862583    1.120591
     44          8           0       -2.422185   -3.877703    2.260897
     45          8           0       -0.649686   -4.490223    0.870950
     46          6           0        0.194796   -5.058509    1.905393
     47          6           0        4.328586   -1.767003   -0.761717
     48          6           0        5.139559   -1.022318    0.201633
     49          6           0        6.441914   -0.978239    0.382239
     50          6           0        7.484895   -1.654409   -0.525864
     51          6           0        6.978023   -0.111398    1.499308
     52          6           0        8.037369   -0.778471    2.438979
     53          6           0        9.481663   -0.056889    2.413313
     54          6           0       10.675531   -1.056010    2.361577
     55          6           0       11.037019   -1.512941    3.883686
     56          6           0       11.875354   -0.424990    1.690710
     57          6           0       12.218116   -0.995459    0.281373
     58          6           0       12.377813    0.071383   -0.794947
     59          6           0       13.797059    0.493961   -1.207036
     60          6           0       14.483809    1.522706   -0.245542
     61          6           0       13.778285    1.151776   -2.634877
     62          6           0       12.999530    2.482192   -2.777338
     63          6           0       11.597815    2.248905   -3.344596
     64          6           0       10.473746    2.896386   -2.463093
     65          6           0        9.338921    1.879756   -2.128916
     66          6           0        9.929389    4.181110   -3.191550
     67          1           0       -2.977640    3.232603    1.879140
     68          1           0       -8.958677    3.448991   -0.661284
     69          1           0       -8.883339   -2.851259   -1.401004
     70          1           0       -1.252522   -1.142513    2.006561
     71          1           0       -1.182208    1.883945    1.317652
     72          1           0       -0.941467    0.866064    3.948558
     73          1           0       -2.614792    1.185564    3.807791
     74          1           0       -1.528377    2.450840    3.361433
     75          1           0       -0.146800    0.695713   -0.075806
     76          1           0       -0.903615   -0.733071   -0.774915
     77          1           0        0.577431   -2.202599    0.241212
     78          1           0        1.174000   -1.039020    1.468100
     79          1           0       -3.726507    5.198143    2.299173
     80          1           0       -5.416060    5.736639    2.833645
     81          1           0       -4.742429    6.358767    1.362968
     82          1           0       -6.496835    7.301849    0.975075
     83          1           0       -7.286492    6.523320    2.422462
     84          1           0       -8.263561    7.544414    1.323938
     85          1           0       -9.807600    1.550146   -2.430649
     86          1           0      -10.636666   -0.728526   -0.526766
     87          1           0      -11.593760    2.463966   -1.770388
     88          1           0      -10.939887    2.523888   -0.050432
     89          1           0      -11.936000    1.255153   -0.515149
     90          1           0       -9.695998   -1.722261   -3.057185
     91          1           0      -10.817306   -0.478790   -3.592753
     92          1           0      -12.501098   -1.665600   -1.797671
     93          1           0      -11.472835   -3.066531   -2.098949
     94          1           0      -12.309450   -2.287434   -3.398697
     95          1           0       -7.983522   -5.016062   -1.861064
     96          1           0       -7.095381   -5.683206   -0.390564
     97          1           0       -6.370170   -5.683951   -2.026949
     98          1           0       -1.692213   -3.360853   -0.806844
     99          1           0       -0.201572   -5.253542    2.901664
    100          1           0        1.069772   -4.429344    2.067538
    101          1           0        0.743689   -5.957597    1.624494
    102          1           0        4.436190   -1.348049   -1.762597
    103          1           0        4.720630   -2.783861   -0.781995
    104          1           0        4.532656   -0.457871    0.909707
    105          1           0        7.068778   -1.867828   -1.510196
    106          1           0        7.792483   -2.514722    0.069138
    107          1           0        8.397409   -1.071844   -0.651055
    108          1           0        6.129997    0.067876    2.160341
    109          1           0        7.226529    0.871126    1.099041
    110          1           0        8.188105   -1.839716    2.242674
    111          1           0        7.671516   -0.768513    3.465459
    112          1           0        9.569181    0.493029    3.349476
    113          1           0        9.532684    0.776687    1.714432
    114          1           0       10.399654   -1.962292    1.823151
    115          1           0       10.328154   -2.282692    4.186307
    116          1           0       10.919967   -0.639674    4.525057
    117          1           0       12.025719   -1.969070    3.923746
    118          1           0       12.740472   -0.573722    2.336574
    119          1           0       11.851785    0.664514    1.681202
    120          1           0       11.370756   -1.539196   -0.135221
    121          1           0       13.168465   -1.528706    0.262569
    122          1           0       11.970784    1.049773   -0.539974
    123          1           0       11.783486   -0.145659   -1.681991
    124          1           0       14.425673   -0.395627   -1.219437
    125          1           0       15.170658    1.064438    0.466261
    126          1           0       13.685108    1.901083    0.392301
    127          1           0       15.020725    2.343447   -0.723532
    128          1           0       13.481825    0.322569   -3.276243
    129          1           0       14.829981    1.340088   -2.851693
    130          1           0       13.454917    3.136894   -3.521137
    131          1           0       12.958241    3.013533   -1.826560
    132          1           0       11.384442    1.206891   -3.586862
    133          1           0       11.622240    2.727496   -4.322699
    134          1           0       10.761025    3.302361   -1.493689
    135          1           0        8.356127    2.208076   -2.469175
    136          1           0        9.241280    1.724059   -1.055124
    137          1           0        9.541659    0.895865   -2.551277
    138          1           0       10.525844    4.367042   -4.084051
    139          1           0        9.985873    5.036094   -2.517258
    140          1           0        8.891542    3.946698   -3.430319
 ---------------------------------------------------------------------

 SCF Done:  E(RZINDO/S) =  -474.062452259     A.U. after   19 cycles

 Excitation energies and oscillator strengths:

 Excited State   1:      Singlet-A      1.2138 eV 1021.49 nm  f=0.5537  <S**2>=0.000
     175 ->178        -0.18926
     176 ->177         0.66308
 This state for optimization and/or second-order correction.
 Total Energy, E(CIS/TDA) =  -474.017847493
 Copying the excited state density for this state as the 1-particle RhoCI density.

 Excited State   2:      Singlet-A      1.8839 eV  658.11 nm  f=0.0273  <S**2>=0.000
     175 ->177         0.52648
     176 ->178         0.44449

 Excited State   3:      Singlet-A      2.7965 eV  443.36 nm  f=0.2693  <S**2>=0.000
     175 ->177        -0.23918
     176 ->178         0.35893
     176 ->179         0.50398
     176 ->182         0.14763

 Excited State   4:      Singlet-A      2.9953 eV  413.93 nm  f=0.4524  <S**2>=0.000
     168 ->179         0.18619
     168 ->180         0.10623
     168 ->185         0.12661
     169 ->177         0.20378
     169 ->179        -0.12732
     169 ->180        -0.21711
     169 ->182         0.13284
     169 ->185        -0.11530
     169 ->187        -0.10614
     175 ->177         0.23303
     176 ->178        -0.25448
     176 ->179         0.28981

 Excited State   5:      Singlet-A      3.0275 eV  409.52 nm  f=0.0046  <S**2>=0.000
     168 ->177         0.26280
     168 ->178         0.16319
     168 ->179         0.23108
     168 ->180        -0.20303
     168 ->182         0.16124
     168 ->187        -0.11590
     169 ->178         0.10032
     169 ->179         0.32256
     169 ->185         0.17148

 The electronic state is 1-A.
 Alpha  occ. eigenvalues --   -1.83903  -1.81294  -1.79959  -1.71818  -1.70884
 Alpha  occ. eigenvalues --   -1.67612  -1.66108  -1.63505  -1.59409  -1.55114
 Alpha  occ. eigenvalues --   -1.54208  -1.50857  -1.47814  -1.46744  -1.46201
 Alpha  occ. eigenvalues --   -1.43807  -1.42592  -1.41514  -1.40949  -1.38574
 Alpha  occ. eigenvalues --   -1.37393  -1.32512  -1.30906  -1.30870  -1.27615
 Alpha  occ. eigenvalues --   -1.26417  -1.24494  -1.22323  -1.20587  -1.17469
 Alpha  occ. eigenvalues --   -1.17364  -1.16762  -1.15624  -1.14432  -1.12936
 Alpha  occ. eigenvalues --   -1.12272  -1.10503  -1.10347  -1.05307  -1.04302
 Alpha  occ. eigenvalues --   -1.03361  -1.01316  -0.99338  -0.98177  -0.97260
 Alpha  occ. eigenvalues --   -0.96454  -0.95312  -0.94129  -0.92693  -0.91846
 Alpha  occ. eigenvalues --   -0.91156  -0.90248  -0.89300  -0.88554  -0.86339
 Alpha  occ. eigenvalues --   -0.85468  -0.84538  -0.82519  -0.81225  -0.80910
 Alpha  occ. eigenvalues --   -0.80548  -0.79078  -0.76281  -0.75955  -0.75862
 Alpha  occ. eigenvalues --   -0.74753  -0.74295  -0.74212  -0.73678  -0.73024
 Alpha  occ. eigenvalues --   -0.72999  -0.71397  -0.71180  -0.70965  -0.70798
 Alpha  occ. eigenvalues --   -0.69869  -0.69346  -0.69245  -0.68649  -0.67766
 Alpha  occ. eigenvalues --   -0.67106  -0.66548  -0.65862  -0.65820  -0.65507
 Alpha  occ. eigenvalues --   -0.65110  -0.64917  -0.64462  -0.63752  -0.63521
 Alpha  occ. eigenvalues --   -0.63130  -0.62343  -0.62037  -0.61937  -0.61748
 Alpha  occ. eigenvalues --   -0.61587  -0.61159  -0.60636  -0.60273  -0.59797
 Alpha  occ. eigenvalues --   -0.59531  -0.59230  -0.58579  -0.58255  -0.57828
 Alpha  occ. eigenvalues --   -0.57807  -0.57649  -0.57124  -0.57012  -0.56934
 Alpha  occ. eigenvalues --   -0.56145  -0.55785  -0.55524  -0.55434  -0.54801
 Alpha  occ. eigenvalues --   -0.54551  -0.54188  -0.53372  -0.53207  -0.53042
 Alpha  occ. eigenvalues --   -0.52631  -0.52436  -0.52095  -0.51969  -0.51732
 Alpha  occ. eigenvalues --   -0.51448  -0.51144  -0.50796  -0.50354  -0.50148
 Alpha  occ. eigenvalues --   -0.49907  -0.49570  -0.49343  -0.49110  -0.48934
 Alpha  occ. eigenvalues --   -0.48586  -0.48279  -0.48217  -0.47988  -0.47688
 Alpha  occ. eigenvalues --   -0.47619  -0.46829  -0.46540  -0.46450  -0.46367
 Alpha  occ. eigenvalues --   -0.46266  -0.46213  -0.45915  -0.45702  -0.45609
 Alpha  occ. eigenvalues --   -0.45234  -0.44653  -0.44584  -0.44191  -0.44004
 Alpha  occ. eigenvalues --   -0.43695  -0.43000  -0.42302  -0.42180  -0.42118
 Alpha  occ. eigenvalues --   -0.41908  -0.41422  -0.40606  -0.39441  -0.38359
 Alpha  occ. eigenvalues --   -0.38003  -0.37661  -0.35356  -0.35087  -0.34258
 Alpha  occ. eigenvalues --   -0.33540  -0.32411  -0.32334  -0.31878  -0.26326
 Alpha  occ. eigenvalues --   -0.21320
 Alpha virt. eigenvalues --   -0.08136  -0.02051  -0.00531   0.01103   0.02037
 Alpha virt. eigenvalues --    0.02152   0.03000   0.03342   0.04928   0.05778
 Alpha virt. eigenvalues --    0.06340   0.06707   0.07230   0.07414   0.08158

 Mulliken charges:
               1
     1  Mg   0.432301
     2  C   -0.046233
     3  C   -0.106401
     4  C   -0.070011
     5  C   -0.085700
     6  N   -0.296750
     7  C    0.106080
     8  C    0.014578
     9  C    0.013050
    10  C    0.165172
    11  C   -0.050885
    12  C   -0.033054
    13  C    0.000648
    14  C    0.472423
    15  O   -0.503821
    16  O   -0.291529
    17  N   -0.319595
    18  C    0.126480
    19  C    0.016834
    20  C   -0.052824
    21  C    0.143735
    22  C   -0.043021
    23  C    0.336619
    24  O   -0.520212
    25  C   -0.030344
    26  N   -0.256271
    27  C    0.154459
    28  C    0.015321
    29  C    0.000400
    30  C    0.112488
    31  C   -0.049503
    32  C   -0.032451
    33  C   -0.064654
    34  N   -0.317764
    35  C    0.072335
    36  C    0.019313
    37  C   -0.061039
    38  C    0.108907
    39  C   -0.049532
    40  C    0.339899
    41  O   -0.525666
    42  C    0.053737
    43  C    0.475421
    44  O   -0.534709
    45  O   -0.264249
    46  C    0.077660
    47  C    0.110024
    48  C   -0.070967
    49  C   -0.017252
    50  C   -0.048549
    51  C   -0.022053
    52  C   -0.039114
    53  C   -0.043593
    54  C   -0.010218
    55  C   -0.065553
    56  C   -0.031316
    57  C   -0.036227
    58  C   -0.041012
    59  C   -0.013375
    60  C   -0.062473
    61  C   -0.034533
    62  C   -0.028960
    63  C   -0.032400
    64  C   -0.020230
    65  C   -0.061580
    66  C   -0.066331
    67  H    0.016838
    68  H    0.040323
    69  H    0.030214
    70  H    0.039907
    71  H    0.046788
    72  H    0.025582
    73  H    0.021264
    74  H    0.015844
    75  H    0.033924
    76  H    0.025080
    77  H    0.047326
    78  H    0.048293
    79  H    0.036032
    80  H    0.036881
    81  H    0.031550
    82  H    0.042010
    83  H    0.043559
    84  H    0.038649
    85  H    0.031392
    86  H    0.044420
    87  H    0.026001
    88  H    0.030701
    89  H    0.014638
    90  H    0.028285
    91  H    0.028379
    92  H    0.018585
    93  H    0.022842
    94  H    0.012944
    95  H    0.025557
    96  H    0.041648
    97  H    0.029761
    98  H    0.055156
    99  H    0.054017
   100  H    0.021466
   101  H    0.037481
   102  H    0.057232
   103  H    0.036676
   104  H    0.028080
   105  H    0.026643
   106  H    0.031472
   107  H    0.024210
   108  H    0.011635
   109  H    0.035676
   110  H    0.023309
   111  H    0.017682
   112  H    0.011909
   113  H    0.024792
   114  H    0.024298
   115  H    0.014427
   116  H    0.027245
   117  H    0.022029
   118  H    0.008698
   119  H    0.022213
   120  H    0.023450
   121  H    0.030007
   122  H    0.013646
   123  H    0.013353
   124  H    0.014990
   125  H    0.011402
   126  H    0.015020
   127  H    0.025186
   128  H    0.017787
   129  H    0.005521
   130  H    0.016600
   131  H    0.028377
   132  H    0.023510
   133  H    0.013721
   134  H    0.025260
   135  H    0.020078
   136  H    0.012977
   137  H    0.017237
   138  H    0.023375
   139  H    0.018036
   140  H    0.022978
 Sum of Mulliken charges =   0.00000

 Dipole moment (field-independent basis, Debye):
    X=              2.9365    Y=              7.1023    Z=              1.9158  Tot=              7.9206
 N-N= 4.277021854786D+03 E-N= 0.000000000000D+00  KE=-9.228401615680D+03
 Leave Link  601 at Wed Apr 27 02:43:04 2022, MaxMem=  6710886400 cpu:               0.8 elap:               0.0
 (Enter /sw/apps/gaussian-16.0/g16/l9999.exe)
 1\1\GINC-BP1-COMPUTE165\SP\RZINDO CIS\STO-3G\C55H74Mg1N4O6\OF15641\27-
 Apr-2022\0\\#p ZINDO=(nstates=5)\\step_101_chromophore_7 ZINDO\\0,1\Mg
 ,0,25.588,0.126,29.074\C,0,27.347,-0.224,32.07\C,0,22.689,0.255,30.976
 \C,0,23.91,0.611,26.265\C,0,28.468,-0.514,27.242\N,0,25.057,0.095,31.3
 5\C,0,25.96,-0.169,32.336\C,0,25.122,-0.098,33.689\C,0,23.625,-0.05,33
 .275\C,0,23.791,0.04,31.823\C,0,22.689,-1.248,33.582\C,0,25.431,1.233,
 34.458\C,0,25.888,1.02,35.95\C,0,25.686,2.221,36.875\O,0,24.909,3.145,

 Normal termination of Gaussian 16 at Wed Apr 27 02:43:04 2022.
