 Gaussian 16, Revision A.03,
 Gaussian 16:  ES64L-G16RevA.03 25-Dec-2016

 ------------------------------
 #p blyp/Def2SVP td=(nstates=5)
 ------------------------------

 ---------------------------------------------------
 step_1851_chromophore_24 TDDFT with blyp functional
 ---------------------------------------------------
 Symbolic Z-matrix:
 Charge =  0 Multiplicity = 1

                         Standard orientation:
 ---------------------------------------------------------------------
 Center     Atomic      Atomic             Coordinates (Angstroms)
 Number     Number       Type             X           Y           Z
 ---------------------------------------------------------------------
      1         12           0        5.147245    1.220099    0.143912
      2          6           0        4.768824   -2.181354    0.018253
      3          6           0        1.644170    1.491859    0.006446
      4          6           0        5.469562    4.542404   -0.333153
      5          6           0        8.555765    0.878261   -0.300293
      6          7           0        3.493838   -0.246802   -0.031195
      7          6           0        3.545841   -1.572299    0.136847
      8          6           0        2.171208   -2.251444    0.331570
      9          6           0        1.234716   -1.002749   -0.021382
     10          6           0        2.144451    0.151497   -0.045258
     11          6           0        0.461754   -1.127144   -1.410570
     12          6           0        1.953617   -2.702418    1.781112
     13          6           0        1.292312   -4.088467    1.955693
     14          6           0        0.348540   -4.641808    0.850012
     15          8           0        0.546349   -5.527879    0.045230
     16          8           0       -0.823338   -3.856219    0.765114
     17          7           0        3.772156    2.734731   -0.057076
     18          6           0        2.409611    2.699745   -0.111133
     19          6           0        1.891445    4.090218   -0.095065
     20          6           0        2.994114    4.928549   -0.036773
     21          6           0        4.171621    4.033240   -0.168392
     22          6           0        0.368837    4.421241    0.001433
     23          6           0        3.019165    6.449552    0.077592
     24          8           0        4.055240    7.099939    0.241142
     25          6           0        1.640615    7.158556    0.268558
     26          7           0        6.836085    2.509936   -0.293974
     27          6           0        6.681717    3.862919   -0.299729
     28          6           0        8.113481    4.532025   -0.496554
     29          6           0        9.116182    3.350232   -0.203590
     30          6           0        8.100700    2.168150   -0.259588
     31          6           0        8.504918    5.062331   -1.922581
     32          6           0        9.874943    3.342144    1.168287
     33          6           0        9.060747    3.160691    2.479574
     34          7           0        6.403368   -0.267004   -0.070427
     35          6           0        7.786697   -0.292724   -0.341934
     36          6           0        8.246624   -1.671360   -0.358989
     37          6           0        7.112995   -2.416795   -0.267518
     38          6           0        5.983581   -1.530220   -0.129133
     39          6           0        9.686164   -2.201211   -0.350642
     40          6           0        6.573000   -3.760300   -0.260767
     41          8           0        7.130222   -4.826933   -0.399927
     42          6           0        5.072269   -3.663512    0.033785
     43          6           0        4.523521   -4.376458   -1.152420
     44          8           0        4.383227   -3.955802   -2.310516
     45          8           0        4.192508   -5.614966   -0.714036
     46          6           0        3.827885   -6.649640   -1.689067
     47          6           0       -1.834491   -4.409372   -0.103768
     48          6           0       -3.090043   -3.661283    0.404816
     49          6           0       -4.338591   -3.992739    0.168852
     50          6           0       -4.780524   -5.269658   -0.661000
     51          6           0       -5.554219   -3.206241    0.827948
     52          6           0       -6.066709   -2.071688   -0.060378
     53          6           0       -6.137125   -0.668761    0.708425
     54          6           0       -7.497824   -0.557961    1.425204
     55          6           0       -7.346260   -0.486995    3.008046
     56          6           0       -8.294293    0.735993    0.929068
     57          6           0       -9.571926    0.409883    0.115295
     58          6           0      -10.723350    0.146555    1.156878
     59          6           0      -11.904438    1.139098    0.910808
     60          6           0      -12.712392    1.277499    2.306689
     61          6           0      -12.965940    0.696589   -0.269357
     62          6           0      -13.559247    1.933947   -0.982601
     63          6           0      -14.733102    1.578929   -1.892958
     64          6           0      -15.985588    2.445981   -1.617072
     65          6           0      -16.832911    2.051472   -0.410820
     66          6           0      -16.846022    2.523587   -2.927770
     67          1           0        0.592316    1.758841    0.122412
     68          1           0        5.544555    5.612609   -0.538784
     69          1           0        9.633197    0.749402   -0.173695
     70          1           0        2.135453   -3.081773   -0.374243
     71          1           0        0.459976   -0.828487    0.725662
     72          1           0        0.623390   -0.209768   -1.976347
     73          1           0       -0.606662   -1.293514   -1.272200
     74          1           0        0.756662   -2.046322   -1.916212
     75          1           0        1.394285   -1.954060    2.342611
     76          1           0        2.933875   -2.702140    2.256550
     77          1           0        0.624261   -4.039447    2.815227
     78          1           0        2.061863   -4.824067    2.192046
     79          1           0        0.044596    4.640807    1.018330
     80          1           0       -0.241831    3.528396   -0.133405
     81          1           0        0.082764    5.247028   -0.650992
     82          1           0        1.021130    6.609331    0.978258
     83          1           0        1.120350    7.199474   -0.688054
     84          1           0        1.847529    8.083888    0.806209
     85          1           0        8.295957    5.306386    0.248266
     86          1           0        9.877679    3.165536   -0.961016
     87          1           0        7.680835    4.706783   -2.540922
     88          1           0        9.501796    4.682267   -2.148756
     89          1           0        8.502382    6.151703   -1.894848
     90          1           0       10.252312    4.343820    1.372676
     91          1           0       10.685590    2.615464    1.211098
     92          1           0        9.147141    2.140953    2.854762
     93          1           0        8.040092    3.322705    2.132606
     94          1           0        9.246900    3.872365    3.284050
     95          1           0       10.509394   -1.582715    0.007229
     96          1           0        9.977841   -2.639940   -1.305331
     97          1           0        9.618260   -3.013183    0.373975
     98          1           0        4.697001   -4.173656    0.921316
     99          1           0        4.078648   -7.584924   -1.190374
    100          1           0        4.327129   -6.610161   -2.658204
    101          1           0        2.749113   -6.635838   -1.843969
    102          1           0       -2.051927   -5.458996    0.098358
    103          1           0       -1.604996   -4.115354   -1.127567
    104          1           0       -2.838458   -2.862118    1.102630
    105          1           0       -3.916592   -5.729149   -1.142121
    106          1           0       -5.484670   -4.993008   -1.444648
    107          1           0       -5.214774   -5.969915    0.051853
    108          1           0       -5.285633   -2.828579    1.814397
    109          1           0       -6.446946   -3.828576    0.897021
    110          1           0       -7.082300   -2.241288   -0.417678
    111          1           0       -5.445051   -2.011277   -0.953178
    112          1           0       -6.029299    0.155708    0.003933
    113          1           0       -5.312698   -0.612606    1.418186
    114          1           0       -8.077350   -1.431801    1.126356
    115          1           0       -7.156158   -1.517223    3.310033
    116          1           0       -8.316679   -0.267068    3.451755
    117          1           0       -6.632889    0.299224    3.257933
    118          1           0       -7.640103    1.307715    0.271161
    119          1           0       -8.543119    1.509672    1.655655
    120          1           0       -9.272289   -0.506585   -0.393709
    121          1           0       -9.812588    1.170333   -0.626489
    122          1           0      -10.365546    0.391158    2.156501
    123          1           0      -11.020837   -0.899734    1.086919
    124          1           0      -11.553364    2.146451    0.685880
    125          1           0      -12.249125    0.704620    3.110036
    126          1           0      -13.731497    0.892408    2.293151
    127          1           0      -12.780717    2.306822    2.656697
    128          1           0      -13.813164    0.216466    0.221776
    129          1           0      -12.607906   -0.026199   -1.002991
    130          1           0      -12.729997    2.329414   -1.569360
    131          1           0      -13.722378    2.721846   -0.247460
    132          1           0      -15.063454    0.545421   -1.788199
    133          1           0      -14.361501    1.682674   -2.912200
    134          1           0      -15.624397    3.458743   -1.439596
    135          1           0      -17.896875    1.926558   -0.609727
    136          1           0      -16.747903    2.867330    0.307394
    137          1           0      -16.311976    1.231525    0.083138
    138          1           0      -16.867800    3.580277   -3.193266
    139          1           0      -17.870724    2.191309   -2.756644
    140          1           0      -16.370404    1.992404   -3.751776
 ---------------------------------------------------------------------

 SCF Done:  E(RB-LYP) =  -3007.38672706     A.U. after   21 cycles

 Excitation energies and oscillator strengths:

 Excited State   1:      Singlet-A      1.8331 eV  676.38 nm  f=0.2929  <S**2>=0.000
     245 -> 248        0.18820
     246 -> 247        0.68457
     246 <- 247       -0.14198
 This state for optimization and/or second-order correction.
 Total Energy, E(TD-HF/TD-DFT) =  -3007.31936318
 Copying the excited state density for this state as the 1-particle RhoCI density.

 Excited State   2:      Singlet-A      2.0388 eV  608.13 nm  f=0.0432  <S**2>=0.000
     243 -> 247        0.16698
     244 -> 247       -0.43198
     245 -> 247        0.49117
     246 -> 248       -0.17511

 Excited State   3:      Singlet-A      2.0641 eV  600.68 nm  f=0.0236  <S**2>=0.000
     243 -> 247        0.16836
     244 -> 247        0.55735
     245 -> 247        0.36305
     246 -> 248       -0.14623

 Excited State   4:      Singlet-A      2.1870 eV  566.93 nm  f=0.0076  <S**2>=0.000
     243 -> 247        0.66243
     245 -> 247       -0.19245
     246 -> 248        0.13115

 Excited State   5:      Singlet-A      2.6558 eV  466.84 nm  f=0.0041  <S**2>=0.000
     241 -> 247       -0.30529
     242 -> 247        0.59044
     246 -> 248       -0.21329

 The electronic state is 1-A.
 Alpha  occ. eigenvalues --  -46.26249 -18.82235 -18.81426 -18.78334 -18.76138
 Alpha  occ. eigenvalues --  -18.75721 -18.75331 -14.03094 -14.02674 -14.01444
 Alpha  occ. eigenvalues --  -14.00653 -10.05190 -10.03077 -10.00427  -9.99208
 Alpha  occ. eigenvalues --   -9.98291  -9.96657  -9.96601  -9.96096  -9.95967
 Alpha  occ. eigenvalues --   -9.95790  -9.95680  -9.95353  -9.95322  -9.94747
 Alpha  occ. eigenvalues --   -9.94497  -9.94230  -9.94213  -9.94135  -9.93876
 Alpha  occ. eigenvalues --   -9.93679  -9.93612  -9.93530  -9.93504  -9.93281
 Alpha  occ. eigenvalues --   -9.93253  -9.93152  -9.92992  -9.92976  -9.92578
 Alpha  occ. eigenvalues --   -9.92571  -9.92541  -9.92484  -9.92438  -9.92420
 Alpha  occ. eigenvalues --   -9.92066  -9.92066  -9.92004  -9.91857  -9.91842
 Alpha  occ. eigenvalues --   -9.91777  -9.91628  -9.91559  -9.91553  -9.91534
 Alpha  occ. eigenvalues --   -9.91437  -9.91435  -9.91392  -9.91221  -9.90970
 Alpha  occ. eigenvalues --   -9.90946  -9.90941  -9.90882  -9.90800  -9.90580
 Alpha  occ. eigenvalues --   -9.90455  -2.91165  -1.71564  -1.71063  -1.70878
 Alpha  occ. eigenvalues --   -0.98313  -0.96864  -0.91782  -0.91259  -0.90839
 Alpha  occ. eigenvalues --   -0.88336  -0.86901  -0.86221  -0.85665  -0.85010
 Alpha  occ. eigenvalues --   -0.75653  -0.73379  -0.72942  -0.72275  -0.71956
 Alpha  occ. eigenvalues --   -0.71703  -0.71338  -0.70891  -0.70295  -0.70104
 Alpha  occ. eigenvalues --   -0.69964  -0.68868  -0.67906  -0.67273  -0.66957
 Alpha  occ. eigenvalues --   -0.66263  -0.65528  -0.65072  -0.64478  -0.64042
 Alpha  occ. eigenvalues --   -0.63653  -0.62622  -0.62374  -0.61394  -0.60599
 Alpha  occ. eigenvalues --   -0.60287  -0.60160  -0.59628  -0.58995  -0.58714
 Alpha  occ. eigenvalues --   -0.58242  -0.57735  -0.56894  -0.55926  -0.54425
 Alpha  occ. eigenvalues --   -0.53718  -0.53083  -0.52651  -0.51897  -0.51439
 Alpha  occ. eigenvalues --   -0.51160  -0.50919  -0.50565  -0.50255  -0.50065
 Alpha  occ. eigenvalues --   -0.49935  -0.49488  -0.48387  -0.47885  -0.46676
 Alpha  occ. eigenvalues --   -0.46452  -0.45777  -0.45632  -0.44959  -0.44073
 Alpha  occ. eigenvalues --   -0.43785  -0.43496  -0.42900  -0.42646  -0.42409
 Alpha  occ. eigenvalues --   -0.42119  -0.41635  -0.41540  -0.41130  -0.40970
 Alpha  occ. eigenvalues --   -0.40687  -0.40417  -0.40178  -0.39878  -0.39862
 Alpha  occ. eigenvalues --   -0.39725  -0.39496  -0.39475  -0.39199  -0.39143
 Alpha  occ. eigenvalues --   -0.38936  -0.38475  -0.38099  -0.37958  -0.37877
 Alpha  occ. eigenvalues --   -0.37850  -0.37673  -0.37499  -0.37400  -0.37182
 Alpha  occ. eigenvalues --   -0.37057  -0.36870  -0.36689  -0.36558  -0.36346
 Alpha  occ. eigenvalues --   -0.36237  -0.36103  -0.35968  -0.35849  -0.35759
 Alpha  occ. eigenvalues --   -0.35464  -0.35379  -0.35067  -0.34850  -0.34634
 Alpha  occ. eigenvalues --   -0.34529  -0.34145  -0.34064  -0.34018  -0.33953
 Alpha  occ. eigenvalues --   -0.33733  -0.33689  -0.33454  -0.33208  -0.33074
 Alpha  occ. eigenvalues --   -0.32847  -0.32561  -0.32526  -0.32438  -0.32344
 Alpha  occ. eigenvalues --   -0.32297  -0.31901  -0.31775  -0.31619  -0.31460
 Alpha  occ. eigenvalues --   -0.31247  -0.31137  -0.31000  -0.30772  -0.30477
 Alpha  occ. eigenvalues --   -0.30438  -0.30230  -0.30158  -0.30137  -0.30070
 Alpha  occ. eigenvalues --   -0.29874  -0.29419  -0.29337  -0.29174  -0.28961
 Alpha  occ. eigenvalues --   -0.28364  -0.28183  -0.28027  -0.27864  -0.27806
 Alpha  occ. eigenvalues --   -0.27307  -0.27252  -0.27023  -0.26679  -0.26374
 Alpha  occ. eigenvalues --   -0.26105  -0.26019  -0.25942  -0.25730  -0.25598
 Alpha  occ. eigenvalues --   -0.25449  -0.24721  -0.24143  -0.23564  -0.23558
 Alpha  occ. eigenvalues --   -0.23353  -0.22793  -0.22257  -0.21326  -0.21286
 Alpha  occ. eigenvalues --   -0.21047  -0.20779  -0.18994  -0.18545  -0.17129
 Alpha  occ. eigenvalues --   -0.15541
 Alpha virt. eigenvalues --   -0.11119  -0.06865  -0.06055  -0.04632  -0.04328
 Alpha virt. eigenvalues --   -0.02644  -0.01363  -0.01199  -0.00917   0.00331
 Alpha virt. eigenvalues --    0.01967   0.02283   0.02332   0.02740   0.02858

 Mulliken charges:
               1
     1  Mg   0.722978
     2  C    0.025495
     3  C   -0.067505
     4  C   -0.050702
     5  C   -0.096211
     6  N   -0.209475
     7  C   -0.122272
     8  C    0.007231
     9  C   -0.002856
    10  C    0.079276
    11  C    0.111120
    12  C    0.152268
    13  C    0.146229
    14  C    0.075932
    15  O   -0.169536
    16  O   -0.310725
    17  N   -0.283440
    18  C    0.074597
    19  C   -0.122591
    20  C    0.017669
    21  C    0.120816
    22  C    0.151283
    23  C   -0.056988
    24  O   -0.170813
    25  C    0.113472
    26  N   -0.170994
    27  C    0.026805
    28  C    0.016527
    29  C    0.013533
    30  C   -0.009253
    31  C    0.137305
    32  C    0.066856
    33  C    0.042800
    34  N   -0.318953
    35  C    0.156952
    36  C   -0.199290
    37  C    0.150078
    38  C    0.104495
    39  C    0.153372
    40  C   -0.078128
    41  O   -0.121121
    42  C    0.078393
    43  C    0.100113
    44  O   -0.203412
    45  O   -0.257539
    46  C    0.218169
    47  C    0.318214
    48  C   -0.147102
    49  C   -0.116589
    50  C    0.117882
    51  C    0.141741
    52  C    0.032539
    53  C    0.116777
    54  C   -0.075797
    55  C    0.102735
    56  C    0.072135
    57  C    0.066216
    58  C    0.112988
    59  C   -0.074806
    60  C    0.072443
    61  C    0.074491
    62  C    0.054483
    63  C    0.122354
    64  C   -0.130090
    65  C    0.135381
    66  C    0.102433
    67  H   -0.069591
    68  H   -0.039946
    69  H   -0.068177
    70  H    0.015830
    71  H   -0.021853
    72  H    0.003365
    73  H   -0.012163
    74  H    0.000544
    75  H   -0.021708
    76  H   -0.019850
    77  H   -0.009213
    78  H    0.003949
    79  H    0.004772
    80  H   -0.022575
    81  H    0.005723
    82  H   -0.003577
    83  H    0.021768
    84  H   -0.005661
    85  H   -0.029497
    86  H   -0.025756
    87  H    0.002870
    88  H    0.000243
    89  H   -0.002169
    90  H   -0.023771
    91  H   -0.014531
    92  H   -0.006490
    93  H   -0.005994
    94  H   -0.003811
    95  H   -0.011134
    96  H    0.011895
    97  H    0.005146
    98  H   -0.005208
    99  H    0.010145
   100  H    0.022445
   101  H    0.018051
   102  H    0.018547
   103  H    0.013499
   104  H   -0.029958
   105  H   -0.010390
   106  H    0.001263
   107  H    0.011281
   108  H   -0.012437
   109  H   -0.039257
   110  H   -0.025771
   111  H   -0.028619
   112  H   -0.033331
   113  H   -0.032861
   114  H   -0.028512
   115  H   -0.015466
   116  H   -0.020187
   117  H    0.002322
   118  H   -0.056662
   119  H   -0.040746
   120  H   -0.038111
   121  H   -0.022725
   122  H   -0.014880
   123  H   -0.025946
   124  H   -0.029580
   125  H   -0.023243
   126  H   -0.019060
   127  H   -0.015214
   128  H   -0.032603
   129  H   -0.028059
   130  H   -0.035881
   131  H   -0.028745
   132  H   -0.031034
   133  H   -0.034928
   134  H   -0.033862
   135  H   -0.005677
   136  H   -0.025369
   137  H   -0.018085
   138  H   -0.018933
   139  H   -0.018563
   140  H   -0.016673
 Sum of Mulliken charges =  -0.00000

 Dipole moment (field-independent basis, Debye):
    X=             -4.0021    Y=              1.0737    Z=              3.2527  Tot=              5.2678
 Quadrupole moment (field-independent basis, Debye-Ang):
   XX=           -394.1098   YY=           -427.4821   ZZ=           -407.1216
   XY=             18.9488   XZ=             13.3275   YZ=             -7.0518

 Normal termination of Gaussian 16 at Fri Apr 29 04:19:02 2022.
