 Gaussian 16, Revision A.03,
 Gaussian 16:  ES64L-G16RevA.03 25-Dec-2016

 -----------------------------------
 #p cam-b3lyp/Def2SVP td=(nstates=5)
 -----------------------------------

 --------------------------------------------------------
 step_1851_chromophore_24 TDDFT with cam-b3lyp functional
 --------------------------------------------------------
 Symbolic Z-matrix:
 Charge =  0 Multiplicity = 1

                         Standard orientation:
 ---------------------------------------------------------------------
 Center     Atomic      Atomic             Coordinates (Angstroms)
 Number     Number       Type             X           Y           Z
 ---------------------------------------------------------------------
      1         12           0        5.147245    1.220099    0.143912
      2          6           0        4.768824   -2.181354    0.018253
      3          6           0        1.644170    1.491859    0.006446
      4          6           0        5.469562    4.542404   -0.333153
      5          6           0        8.555765    0.878261   -0.300293
      6          7           0        3.493838   -0.246802   -0.031195
      7          6           0        3.545841   -1.572299    0.136847
      8          6           0        2.171208   -2.251444    0.331570
      9          6           0        1.234716   -1.002749   -0.021382
     10          6           0        2.144451    0.151497   -0.045258
     11          6           0        0.461754   -1.127144   -1.410570
     12          6           0        1.953617   -2.702418    1.781112
     13          6           0        1.292312   -4.088467    1.955693
     14          6           0        0.348540   -4.641808    0.850012
     15          8           0        0.546349   -5.527879    0.045230
     16          8           0       -0.823338   -3.856219    0.765114
     17          7           0        3.772156    2.734731   -0.057076
     18          6           0        2.409611    2.699745   -0.111133
     19          6           0        1.891445    4.090218   -0.095065
     20          6           0        2.994114    4.928549   -0.036773
     21          6           0        4.171621    4.033240   -0.168392
     22          6           0        0.368837    4.421241    0.001433
     23          6           0        3.019165    6.449552    0.077592
     24          8           0        4.055240    7.099939    0.241142
     25          6           0        1.640615    7.158556    0.268558
     26          7           0        6.836085    2.509936   -0.293974
     27          6           0        6.681717    3.862919   -0.299729
     28          6           0        8.113481    4.532025   -0.496554
     29          6           0        9.116182    3.350232   -0.203590
     30          6           0        8.100700    2.168150   -0.259588
     31          6           0        8.504918    5.062331   -1.922581
     32          6           0        9.874943    3.342144    1.168287
     33          6           0        9.060747    3.160691    2.479574
     34          7           0        6.403368   -0.267004   -0.070427
     35          6           0        7.786697   -0.292724   -0.341934
     36          6           0        8.246624   -1.671360   -0.358989
     37          6           0        7.112995   -2.416795   -0.267518
     38          6           0        5.983581   -1.530220   -0.129133
     39          6           0        9.686164   -2.201211   -0.350642
     40          6           0        6.573000   -3.760300   -0.260767
     41          8           0        7.130222   -4.826933   -0.399927
     42          6           0        5.072269   -3.663512    0.033785
     43          6           0        4.523521   -4.376458   -1.152420
     44          8           0        4.383227   -3.955802   -2.310516
     45          8           0        4.192508   -5.614966   -0.714036
     46          6           0        3.827885   -6.649640   -1.689067
     47          6           0       -1.834491   -4.409372   -0.103768
     48          6           0       -3.090043   -3.661283    0.404816
     49          6           0       -4.338591   -3.992739    0.168852
     50          6           0       -4.780524   -5.269658   -0.661000
     51          6           0       -5.554219   -3.206241    0.827948
     52          6           0       -6.066709   -2.071688   -0.060378
     53          6           0       -6.137125   -0.668761    0.708425
     54          6           0       -7.497824   -0.557961    1.425204
     55          6           0       -7.346260   -0.486995    3.008046
     56          6           0       -8.294293    0.735993    0.929068
     57          6           0       -9.571926    0.409883    0.115295
     58          6           0      -10.723350    0.146555    1.156878
     59          6           0      -11.904438    1.139098    0.910808
     60          6           0      -12.712392    1.277499    2.306689
     61          6           0      -12.965940    0.696589   -0.269357
     62          6           0      -13.559247    1.933947   -0.982601
     63          6           0      -14.733102    1.578929   -1.892958
     64          6           0      -15.985588    2.445981   -1.617072
     65          6           0      -16.832911    2.051472   -0.410820
     66          6           0      -16.846022    2.523587   -2.927770
     67          1           0        0.592316    1.758841    0.122412
     68          1           0        5.544555    5.612609   -0.538784
     69          1           0        9.633197    0.749402   -0.173695
     70          1           0        2.135453   -3.081773   -0.374243
     71          1           0        0.459976   -0.828487    0.725662
     72          1           0        0.623390   -0.209768   -1.976347
     73          1           0       -0.606662   -1.293514   -1.272200
     74          1           0        0.756662   -2.046322   -1.916212
     75          1           0        1.394285   -1.954060    2.342611
     76          1           0        2.933875   -2.702140    2.256550
     77          1           0        0.624261   -4.039447    2.815227
     78          1           0        2.061863   -4.824067    2.192046
     79          1           0        0.044596    4.640807    1.018330
     80          1           0       -0.241831    3.528396   -0.133405
     81          1           0        0.082764    5.247028   -0.650992
     82          1           0        1.021130    6.609331    0.978258
     83          1           0        1.120350    7.199474   -0.688054
     84          1           0        1.847529    8.083888    0.806209
     85          1           0        8.295957    5.306386    0.248266
     86          1           0        9.877679    3.165536   -0.961016
     87          1           0        7.680835    4.706783   -2.540922
     88          1           0        9.501796    4.682267   -2.148756
     89          1           0        8.502382    6.151703   -1.894848
     90          1           0       10.252312    4.343820    1.372676
     91          1           0       10.685590    2.615464    1.211098
     92          1           0        9.147141    2.140953    2.854762
     93          1           0        8.040092    3.322705    2.132606
     94          1           0        9.246900    3.872365    3.284050
     95          1           0       10.509394   -1.582715    0.007229
     96          1           0        9.977841   -2.639940   -1.305331
     97          1           0        9.618260   -3.013183    0.373975
     98          1           0        4.697001   -4.173656    0.921316
     99          1           0        4.078648   -7.584924   -1.190374
    100          1           0        4.327129   -6.610161   -2.658204
    101          1           0        2.749113   -6.635838   -1.843969
    102          1           0       -2.051927   -5.458996    0.098358
    103          1           0       -1.604996   -4.115354   -1.127567
    104          1           0       -2.838458   -2.862118    1.102630
    105          1           0       -3.916592   -5.729149   -1.142121
    106          1           0       -5.484670   -4.993008   -1.444648
    107          1           0       -5.214774   -5.969915    0.051853
    108          1           0       -5.285633   -2.828579    1.814397
    109          1           0       -6.446946   -3.828576    0.897021
    110          1           0       -7.082300   -2.241288   -0.417678
    111          1           0       -5.445051   -2.011277   -0.953178
    112          1           0       -6.029299    0.155708    0.003933
    113          1           0       -5.312698   -0.612606    1.418186
    114          1           0       -8.077350   -1.431801    1.126356
    115          1           0       -7.156158   -1.517223    3.310033
    116          1           0       -8.316679   -0.267068    3.451755
    117          1           0       -6.632889    0.299224    3.257933
    118          1           0       -7.640103    1.307715    0.271161
    119          1           0       -8.543119    1.509672    1.655655
    120          1           0       -9.272289   -0.506585   -0.393709
    121          1           0       -9.812588    1.170333   -0.626489
    122          1           0      -10.365546    0.391158    2.156501
    123          1           0      -11.020837   -0.899734    1.086919
    124          1           0      -11.553364    2.146451    0.685880
    125          1           0      -12.249125    0.704620    3.110036
    126          1           0      -13.731497    0.892408    2.293151
    127          1           0      -12.780717    2.306822    2.656697
    128          1           0      -13.813164    0.216466    0.221776
    129          1           0      -12.607906   -0.026199   -1.002991
    130          1           0      -12.729997    2.329414   -1.569360
    131          1           0      -13.722378    2.721846   -0.247460
    132          1           0      -15.063454    0.545421   -1.788199
    133          1           0      -14.361501    1.682674   -2.912200
    134          1           0      -15.624397    3.458743   -1.439596
    135          1           0      -17.896875    1.926558   -0.609727
    136          1           0      -16.747903    2.867330    0.307394
    137          1           0      -16.311976    1.231525    0.083138
    138          1           0      -16.867800    3.580277   -3.193266
    139          1           0      -17.870724    2.191309   -2.756644
    140          1           0      -16.370404    1.992404   -3.751776
 ---------------------------------------------------------------------

 SCF Done:  E(RCAM-B3LYP) =  -3007.18049689     A.U. after   19 cycles

 Excitation energies and oscillator strengths:

 Excited State   1:      Singlet-A      1.7279 eV  717.52 nm  f=0.3674  <S**2>=0.000
     245 -> 248        0.18965
     246 -> 247        0.68300
     245 <- 248        0.10957
 This state for optimization and/or second-order correction.
 Total Energy, E(TD-HF/TD-DFT) =  -3007.11699595
 Copying the excited state density for this state as the 1-particle RhoCI density.

 Excited State   2:      Singlet-A      2.2953 eV  540.17 nm  f=0.0760  <S**2>=0.000
     245 -> 247        0.61940
     246 -> 248       -0.33244

 Excited State   3:      Singlet-A      3.4874 eV  355.53 nm  f=0.7178  <S**2>=0.000
     242 -> 247        0.12457
     245 -> 247        0.31738
     246 -> 248        0.60790
     245 <- 247       -0.10966

 Excited State   4:      Singlet-A      3.5800 eV  346.32 nm  f=0.0047  <S**2>=0.000
     242 -> 247       -0.11469
     243 -> 247        0.55520
     243 -> 249       -0.26039
     243 -> 250        0.20962
     243 -> 251       -0.15372

 Excited State   5:      Singlet-A      3.6893 eV  336.06 nm  f=0.0030  <S**2>=0.000
     239 -> 247       -0.13862
     239 -> 249       -0.12585
     241 -> 247       -0.25369
     241 -> 248       -0.11939
     241 -> 249       -0.24303
     241 -> 251        0.14239
     242 -> 247        0.10872
     244 -> 247        0.49529

 The electronic state is 1-A.
 Alpha  occ. eigenvalues --  -46.87710 -19.25076 -19.24350 -19.21396 -19.19394
 Alpha  occ. eigenvalues --  -19.18781 -19.18691 -14.41901 -14.41508 -14.39915
 Alpha  occ. eigenvalues --  -14.39087 -10.40570 -10.38520 -10.35725 -10.34569
 Alpha  occ. eigenvalues --  -10.32259 -10.31030 -10.30611 -10.30456 -10.30440
 Alpha  occ. eigenvalues --  -10.30053 -10.29945 -10.29655 -10.29600 -10.28793
 Alpha  occ. eigenvalues --  -10.28643 -10.28598 -10.28582 -10.28148 -10.28068
 Alpha  occ. eigenvalues --  -10.27772 -10.27612 -10.27552 -10.27492 -10.27466
 Alpha  occ. eigenvalues --  -10.27415 -10.27309 -10.26883 -10.26868 -10.26685
 Alpha  occ. eigenvalues --  -10.26576 -10.26391 -10.26274 -10.26240 -10.26233
 Alpha  occ. eigenvalues --  -10.26191 -10.25924 -10.25916 -10.25684 -10.25605
 Alpha  occ. eigenvalues --  -10.25474 -10.25469 -10.25334 -10.25269 -10.25214
 Alpha  occ. eigenvalues --  -10.25206 -10.25115 -10.25009 -10.24912 -10.24751
 Alpha  occ. eigenvalues --  -10.24662 -10.24630 -10.24613 -10.24550 -10.24373
 Alpha  occ. eigenvalues --  -10.24055  -3.16540  -1.91410  -1.91000  -1.90861
 Alpha  occ. eigenvalues --   -1.16783  -1.15385  -1.10342  -1.09670  -1.08689
 Alpha  occ. eigenvalues --   -1.06268  -1.04633  -1.03894  -1.03226  -1.02508
 Alpha  occ. eigenvalues --   -0.92833  -0.90185  -0.89743  -0.89039  -0.88632
 Alpha  occ. eigenvalues --   -0.88389  -0.87926  -0.87493  -0.86955  -0.86638
 Alpha  occ. eigenvalues --   -0.86523  -0.85202  -0.84138  -0.83425  -0.83041
 Alpha  occ. eigenvalues --   -0.82278  -0.81483  -0.81008  -0.80326  -0.80020
 Alpha  occ. eigenvalues --   -0.79376  -0.78331  -0.77959  -0.76842  -0.76007
 Alpha  occ. eigenvalues --   -0.75626  -0.75526  -0.74874  -0.74190  -0.73948
 Alpha  occ. eigenvalues --   -0.73350  -0.72771  -0.71773  -0.70740  -0.69013
 Alpha  occ. eigenvalues --   -0.68361  -0.67599  -0.67086  -0.66259  -0.65663
 Alpha  occ. eigenvalues --   -0.65401  -0.64840  -0.64662  -0.64329  -0.63995
 Alpha  occ. eigenvalues --   -0.63821  -0.63489  -0.62263  -0.61566  -0.60239
 Alpha  occ. eigenvalues --   -0.60094  -0.59371  -0.59062  -0.58280  -0.57672
 Alpha  occ. eigenvalues --   -0.57160  -0.56813  -0.56006  -0.55863  -0.55675
 Alpha  occ. eigenvalues --   -0.55198  -0.54911  -0.54413  -0.53844  -0.53701
 Alpha  occ. eigenvalues --   -0.53588  -0.53520  -0.52886  -0.52682  -0.52474
 Alpha  occ. eigenvalues --   -0.52401  -0.52285  -0.52184  -0.51943  -0.51601
 Alpha  occ. eigenvalues --   -0.51419  -0.51010  -0.50711  -0.50462  -0.50301
 Alpha  occ. eigenvalues --   -0.50113  -0.49981  -0.49811  -0.49736  -0.49503
 Alpha  occ. eigenvalues --   -0.49368  -0.49113  -0.49095  -0.48909  -0.48544
 Alpha  occ. eigenvalues --   -0.48378  -0.48265  -0.48223  -0.48138  -0.47973
 Alpha  occ. eigenvalues --   -0.47737  -0.47410  -0.47278  -0.46920  -0.46688
 Alpha  occ. eigenvalues --   -0.46504  -0.46046  -0.45863  -0.45819  -0.45736
 Alpha  occ. eigenvalues --   -0.45509  -0.45422  -0.45173  -0.45101  -0.44712
 Alpha  occ. eigenvalues --   -0.44613  -0.44301  -0.44088  -0.44029  -0.43912
 Alpha  occ. eigenvalues --   -0.43789  -0.43579  -0.43492  -0.43213  -0.43045
 Alpha  occ. eigenvalues --   -0.42792  -0.42665  -0.42503  -0.42382  -0.42069
 Alpha  occ. eigenvalues --   -0.41747  -0.41713  -0.41644  -0.41371  -0.41245
 Alpha  occ. eigenvalues --   -0.41009  -0.40926  -0.40563  -0.40444  -0.40269
 Alpha  occ. eigenvalues --   -0.39308  -0.39158  -0.38957  -0.38754  -0.38631
 Alpha  occ. eigenvalues --   -0.38376  -0.38123  -0.38013  -0.37816  -0.37468
 Alpha  occ. eigenvalues --   -0.37083  -0.36822  -0.36506  -0.36423  -0.36348
 Alpha  occ. eigenvalues --   -0.36177  -0.35649  -0.35195  -0.34914  -0.34285
 Alpha  occ. eigenvalues --   -0.33905  -0.33463  -0.32707  -0.31660  -0.31092
 Alpha  occ. eigenvalues --   -0.31030  -0.30842  -0.30710  -0.30266  -0.23908
 Alpha  occ. eigenvalues --   -0.20725
 Alpha virt. eigenvalues --   -0.08021  -0.01638   0.00449   0.02304   0.02367
 Alpha virt. eigenvalues --    0.03536   0.05936   0.06561   0.06714   0.07156
 Alpha virt. eigenvalues --    0.08186   0.08810   0.08960   0.09067   0.09136

 Mulliken charges:
               1
     1  Mg   0.857775
     2  C   -0.011419
     3  C   -0.078296
     4  C   -0.064716
     5  C   -0.097548
     6  N   -0.279412
     7  C   -0.072596
     8  C   -0.046893
     9  C   -0.055545
    10  C    0.091372
    11  C    0.060998
    12  C    0.104339
    13  C    0.079597
    14  C    0.149664
    15  O   -0.208321
    16  O   -0.373698
    17  N   -0.369711
    18  C    0.084053
    19  C   -0.133091
    20  C   -0.048845
    21  C    0.140044
    22  C    0.094306
    23  C    0.021247
    24  O   -0.211086
    25  C    0.033372
    26  N   -0.240309
    27  C    0.032152
    28  C   -0.030608
    29  C   -0.040902
    30  C    0.003783
    31  C    0.080969
    32  C    0.015539
    33  C   -0.014490
    34  N   -0.410183
    35  C    0.158213
    36  C   -0.192248
    37  C    0.063752
    38  C    0.145486
    39  C    0.106223
    40  C    0.018638
    41  O   -0.157672
    42  C    0.006691
    43  C    0.189711
    44  O   -0.240542
    45  O   -0.321407
    46  C    0.180627
    47  C    0.285068
    48  C   -0.158969
    49  C   -0.149957
    50  C    0.062239
    51  C    0.084351
    52  C   -0.016221
    53  C    0.062219
    54  C   -0.133256
    55  C    0.050453
    56  C    0.019249
    57  C    0.015551
    58  C    0.061179
    59  C   -0.128481
    60  C    0.016686
    61  C    0.028658
    62  C    0.002189
    63  C    0.063151
    64  C   -0.187210
    65  C    0.074513
    66  C    0.044675
    67  H   -0.034984
    68  H    0.001434
    69  H   -0.033034
    70  H    0.045381
    71  H    0.012987
    72  H    0.028946
    73  H    0.010039
    74  H    0.023190
    75  H    0.010253
    76  H    0.012296
    77  H    0.024653
    78  H    0.034903
    79  H    0.031274
    80  H    0.005437
    81  H    0.030616
    82  H    0.025192
    83  H    0.048060
    84  H    0.029064
    85  H    0.005237
    86  H    0.010310
    87  H    0.027507
    88  H    0.022766
    89  H    0.021480
    90  H    0.005035
    91  H    0.011895
    92  H    0.016402
    93  H    0.012561
    94  H    0.021137
    95  H    0.014740
    96  H    0.038949
    97  H    0.030394
    98  H    0.037473
    99  H    0.033232
   100  H    0.046382
   101  H    0.040249
   102  H    0.044491
   103  H    0.039244
   104  H    0.003825
   105  H    0.012530
   106  H    0.024201
   107  H    0.034408
   108  H    0.014803
   109  H   -0.008295
   110  H   -0.000850
   111  H    0.001785
   112  H   -0.002501
   113  H   -0.005366
   114  H    0.000318
   115  H    0.007651
   116  H    0.002829
   117  H    0.024280
   118  H   -0.025754
   119  H   -0.012055
   120  H   -0.012112
   121  H    0.004755
   122  H    0.008898
   123  H    0.002325
   124  H    0.000836
   125  H    0.001379
   126  H    0.003858
   127  H    0.008237
   128  H   -0.008541
   129  H   -0.000722
   130  H   -0.007977
   131  H   -0.002533
   132  H   -0.002095
   133  H   -0.004066
   134  H   -0.001978
   135  H    0.018575
   136  H   -0.000852
   137  H    0.003060
   138  H    0.004940
   139  H    0.004652
   140  H    0.007265
 Sum of Mulliken charges =  -0.00000

 Dipole moment (field-independent basis, Debye):
    X=             -4.1988    Y=              1.2728    Z=              3.5066  Tot=              5.6166
 Quadrupole moment (field-independent basis, Debye-Ang):
   XX=           -392.6944   YY=           -423.8913   ZZ=           -407.1128
   XY=             17.9502   XZ=             14.0890   YZ=             -7.1903

 Normal termination of Gaussian 16 at Fri Apr 29 03:21:36 2022.
