 Gaussian 16, Revision A.03,
 Gaussian 16:  ES64L-G16RevA.03 25-Dec-2016

 ---------------------------------
 #p PBE1PBE/Def2SVP td=(nstates=5)
 ---------------------------------

 ------------------------------------------------------
 step_1851_chromophore_24 TDDFT with PBE1PBE functional
 ------------------------------------------------------
 Symbolic Z-matrix:
 Charge =  0 Multiplicity = 1

                         Standard orientation:
 ---------------------------------------------------------------------
 Center     Atomic      Atomic             Coordinates (Angstroms)
 Number     Number       Type             X           Y           Z
 ---------------------------------------------------------------------
      1         12           0        5.147245    1.220099    0.143912
      2          6           0        4.768824   -2.181354    0.018253
      3          6           0        1.644170    1.491859    0.006446
      4          6           0        5.469562    4.542404   -0.333153
      5          6           0        8.555765    0.878261   -0.300293
      6          7           0        3.493838   -0.246802   -0.031195
      7          6           0        3.545841   -1.572299    0.136847
      8          6           0        2.171208   -2.251444    0.331570
      9          6           0        1.234716   -1.002749   -0.021382
     10          6           0        2.144451    0.151497   -0.045258
     11          6           0        0.461754   -1.127144   -1.410570
     12          6           0        1.953617   -2.702418    1.781112
     13          6           0        1.292312   -4.088467    1.955693
     14          6           0        0.348540   -4.641808    0.850012
     15          8           0        0.546349   -5.527879    0.045230
     16          8           0       -0.823338   -3.856219    0.765114
     17          7           0        3.772156    2.734731   -0.057076
     18          6           0        2.409611    2.699745   -0.111133
     19          6           0        1.891445    4.090218   -0.095065
     20          6           0        2.994114    4.928549   -0.036773
     21          6           0        4.171621    4.033240   -0.168392
     22          6           0        0.368837    4.421241    0.001433
     23          6           0        3.019165    6.449552    0.077592
     24          8           0        4.055240    7.099939    0.241142
     25          6           0        1.640615    7.158556    0.268558
     26          7           0        6.836085    2.509936   -0.293974
     27          6           0        6.681717    3.862919   -0.299729
     28          6           0        8.113481    4.532025   -0.496554
     29          6           0        9.116182    3.350232   -0.203590
     30          6           0        8.100700    2.168150   -0.259588
     31          6           0        8.504918    5.062331   -1.922581
     32          6           0        9.874943    3.342144    1.168287
     33          6           0        9.060747    3.160691    2.479574
     34          7           0        6.403368   -0.267004   -0.070427
     35          6           0        7.786697   -0.292724   -0.341934
     36          6           0        8.246624   -1.671360   -0.358989
     37          6           0        7.112995   -2.416795   -0.267518
     38          6           0        5.983581   -1.530220   -0.129133
     39          6           0        9.686164   -2.201211   -0.350642
     40          6           0        6.573000   -3.760300   -0.260767
     41          8           0        7.130222   -4.826933   -0.399927
     42          6           0        5.072269   -3.663512    0.033785
     43          6           0        4.523521   -4.376458   -1.152420
     44          8           0        4.383227   -3.955802   -2.310516
     45          8           0        4.192508   -5.614966   -0.714036
     46          6           0        3.827885   -6.649640   -1.689067
     47          6           0       -1.834491   -4.409372   -0.103768
     48          6           0       -3.090043   -3.661283    0.404816
     49          6           0       -4.338591   -3.992739    0.168852
     50          6           0       -4.780524   -5.269658   -0.661000
     51          6           0       -5.554219   -3.206241    0.827948
     52          6           0       -6.066709   -2.071688   -0.060378
     53          6           0       -6.137125   -0.668761    0.708425
     54          6           0       -7.497824   -0.557961    1.425204
     55          6           0       -7.346260   -0.486995    3.008046
     56          6           0       -8.294293    0.735993    0.929068
     57          6           0       -9.571926    0.409883    0.115295
     58          6           0      -10.723350    0.146555    1.156878
     59          6           0      -11.904438    1.139098    0.910808
     60          6           0      -12.712392    1.277499    2.306689
     61          6           0      -12.965940    0.696589   -0.269357
     62          6           0      -13.559247    1.933947   -0.982601
     63          6           0      -14.733102    1.578929   -1.892958
     64          6           0      -15.985588    2.445981   -1.617072
     65          6           0      -16.832911    2.051472   -0.410820
     66          6           0      -16.846022    2.523587   -2.927770
     67          1           0        0.592316    1.758841    0.122412
     68          1           0        5.544555    5.612609   -0.538784
     69          1           0        9.633197    0.749402   -0.173695
     70          1           0        2.135453   -3.081773   -0.374243
     71          1           0        0.459976   -0.828487    0.725662
     72          1           0        0.623390   -0.209768   -1.976347
     73          1           0       -0.606662   -1.293514   -1.272200
     74          1           0        0.756662   -2.046322   -1.916212
     75          1           0        1.394285   -1.954060    2.342611
     76          1           0        2.933875   -2.702140    2.256550
     77          1           0        0.624261   -4.039447    2.815227
     78          1           0        2.061863   -4.824067    2.192046
     79          1           0        0.044596    4.640807    1.018330
     80          1           0       -0.241831    3.528396   -0.133405
     81          1           0        0.082764    5.247028   -0.650992
     82          1           0        1.021130    6.609331    0.978258
     83          1           0        1.120350    7.199474   -0.688054
     84          1           0        1.847529    8.083888    0.806209
     85          1           0        8.295957    5.306386    0.248266
     86          1           0        9.877679    3.165536   -0.961016
     87          1           0        7.680835    4.706783   -2.540922
     88          1           0        9.501796    4.682267   -2.148756
     89          1           0        8.502382    6.151703   -1.894848
     90          1           0       10.252312    4.343820    1.372676
     91          1           0       10.685590    2.615464    1.211098
     92          1           0        9.147141    2.140953    2.854762
     93          1           0        8.040092    3.322705    2.132606
     94          1           0        9.246900    3.872365    3.284050
     95          1           0       10.509394   -1.582715    0.007229
     96          1           0        9.977841   -2.639940   -1.305331
     97          1           0        9.618260   -3.013183    0.373975
     98          1           0        4.697001   -4.173656    0.921316
     99          1           0        4.078648   -7.584924   -1.190374
    100          1           0        4.327129   -6.610161   -2.658204
    101          1           0        2.749113   -6.635838   -1.843969
    102          1           0       -2.051927   -5.458996    0.098358
    103          1           0       -1.604996   -4.115354   -1.127567
    104          1           0       -2.838458   -2.862118    1.102630
    105          1           0       -3.916592   -5.729149   -1.142121
    106          1           0       -5.484670   -4.993008   -1.444648
    107          1           0       -5.214774   -5.969915    0.051853
    108          1           0       -5.285633   -2.828579    1.814397
    109          1           0       -6.446946   -3.828576    0.897021
    110          1           0       -7.082300   -2.241288   -0.417678
    111          1           0       -5.445051   -2.011277   -0.953178
    112          1           0       -6.029299    0.155708    0.003933
    113          1           0       -5.312698   -0.612606    1.418186
    114          1           0       -8.077350   -1.431801    1.126356
    115          1           0       -7.156158   -1.517223    3.310033
    116          1           0       -8.316679   -0.267068    3.451755
    117          1           0       -6.632889    0.299224    3.257933
    118          1           0       -7.640103    1.307715    0.271161
    119          1           0       -8.543119    1.509672    1.655655
    120          1           0       -9.272289   -0.506585   -0.393709
    121          1           0       -9.812588    1.170333   -0.626489
    122          1           0      -10.365546    0.391158    2.156501
    123          1           0      -11.020837   -0.899734    1.086919
    124          1           0      -11.553364    2.146451    0.685880
    125          1           0      -12.249125    0.704620    3.110036
    126          1           0      -13.731497    0.892408    2.293151
    127          1           0      -12.780717    2.306822    2.656697
    128          1           0      -13.813164    0.216466    0.221776
    129          1           0      -12.607906   -0.026199   -1.002991
    130          1           0      -12.729997    2.329414   -1.569360
    131          1           0      -13.722378    2.721846   -0.247460
    132          1           0      -15.063454    0.545421   -1.788199
    133          1           0      -14.361501    1.682674   -2.912200
    134          1           0      -15.624397    3.458743   -1.439596
    135          1           0      -17.896875    1.926558   -0.609727
    136          1           0      -16.747903    2.867330    0.307394
    137          1           0      -16.311976    1.231525    0.083138
    138          1           0      -16.867800    3.580277   -3.193266
    139          1           0      -17.870724    2.191309   -2.756644
    140          1           0      -16.370404    1.992404   -3.751776
 ---------------------------------------------------------------------

 SCF Done:  E(RPBE1PBE) =  -3005.36606380     A.U. after   16 cycles

 Excitation energies and oscillator strengths:

 Excited State   1:      Singlet-A      1.8862 eV  657.32 nm  f=0.3592  <S**2>=0.000
     245 -> 248        0.18007
     246 -> 247        0.68982
     246 <- 247       -0.10065
 This state for optimization and/or second-order correction.
 Total Energy, E(TD-HF/TD-DFT) =  -3005.29674730
 Copying the excited state density for this state as the 1-particle RhoCI density.

 Excited State   2:      Singlet-A      2.2983 eV  539.47 nm  f=0.0832  <S**2>=0.000
     245 -> 247        0.63555
     246 -> 248       -0.29859

 Excited State   3:      Singlet-A      3.0986 eV  400.13 nm  f=0.0004  <S**2>=0.000
     244 -> 247        0.66846
     244 -> 249       -0.15704
     244 -> 250       -0.13262

 Excited State   4:      Singlet-A      3.2479 eV  381.74 nm  f=0.1084  <S**2>=0.000
     242 -> 247        0.34611
     242 -> 249        0.10282
     243 -> 247        0.40468
     243 -> 249        0.13368
     245 -> 247        0.13428
     246 -> 248        0.33984
     246 -> 249        0.11883

 Excited State   5:      Singlet-A      3.2819 eV  377.78 nm  f=0.1836  <S**2>=0.000
     240 -> 247        0.12084
     243 -> 247       -0.42527
     245 -> 247        0.17874
     246 -> 248        0.44222
     246 -> 249        0.21836

 The electronic state is 1-A.
 Alpha  occ. eigenvalues --  -46.91134 -19.25786 -19.25006 -19.21647 -19.19634
 Alpha  occ. eigenvalues --  -19.19006 -19.18832 -14.41475 -14.40976 -14.39568
 Alpha  occ. eigenvalues --  -14.38743 -10.37646 -10.35532 -10.32900 -10.31657
 Alpha  occ. eigenvalues --  -10.29692 -10.28810 -10.28254 -10.28137 -10.27833
 Alpha  occ. eigenvalues --  -10.27817 -10.27725 -10.27360 -10.27323 -10.26420
 Alpha  occ. eigenvalues --  -10.26402 -10.26278 -10.26210 -10.25758 -10.25654
 Alpha  occ. eigenvalues --  -10.25613 -10.25470 -10.25342 -10.25150 -10.25088
 Alpha  occ. eigenvalues --  -10.25052 -10.25045 -10.24645 -10.24624 -10.24409
 Alpha  occ. eigenvalues --  -10.24146 -10.24103 -10.23928 -10.23772 -10.23616
 Alpha  occ. eigenvalues --  -10.23546 -10.23538 -10.23479 -10.23197 -10.23115
 Alpha  occ. eigenvalues --  -10.23076 -10.23040 -10.23009 -10.22886 -10.22784
 Alpha  occ. eigenvalues --  -10.22697 -10.22643 -10.22482 -10.22419 -10.22413
 Alpha  occ. eigenvalues --  -10.22286 -10.22187 -10.22136 -10.21993 -10.21749
 Alpha  occ. eigenvalues --  -10.21464  -3.13535  -1.86346  -1.85915  -1.85780
 Alpha  occ. eigenvalues --   -1.11588  -1.10139  -1.05026  -1.04412  -1.03572
 Alpha  occ. eigenvalues --   -1.01051  -0.99252  -0.98515  -0.97926  -0.97194
 Alpha  occ. eigenvalues --   -0.87185  -0.84365  -0.83885  -0.83133  -0.82946
 Alpha  occ. eigenvalues --   -0.82529  -0.82236  -0.81819  -0.81253  -0.80860
 Alpha  occ. eigenvalues --   -0.80754  -0.79489  -0.78344  -0.77698  -0.77279
 Alpha  occ. eigenvalues --   -0.76479  -0.75747  -0.75311  -0.74535  -0.74254
 Alpha  occ. eigenvalues --   -0.73575  -0.72617  -0.72205  -0.71161  -0.70314
 Alpha  occ. eigenvalues --   -0.69779  -0.69618  -0.69198  -0.68392  -0.68114
 Alpha  occ. eigenvalues --   -0.67647  -0.67181  -0.66205  -0.65087  -0.63334
 Alpha  occ. eigenvalues --   -0.62799  -0.61860  -0.61555  -0.60490  -0.60150
 Alpha  occ. eigenvalues --   -0.59604  -0.59409  -0.59172  -0.58520  -0.58439
 Alpha  occ. eigenvalues --   -0.58283  -0.57636  -0.56478  -0.56128  -0.54826
 Alpha  occ. eigenvalues --   -0.54577  -0.53926  -0.53554  -0.52867  -0.52058
 Alpha  occ. eigenvalues --   -0.51740  -0.51253  -0.50622  -0.50435  -0.50166
 Alpha  occ. eigenvalues --   -0.49811  -0.49460  -0.48884  -0.48336  -0.48140
 Alpha  occ. eigenvalues --   -0.48114  -0.47996  -0.47401  -0.47228  -0.46989
 Alpha  occ. eigenvalues --   -0.46887  -0.46791  -0.46702  -0.46451  -0.46084
 Alpha  occ. eigenvalues --   -0.45938  -0.45604  -0.45268  -0.45026  -0.44857
 Alpha  occ. eigenvalues --   -0.44674  -0.44552  -0.44411  -0.44273  -0.44096
 Alpha  occ. eigenvalues --   -0.43960  -0.43747  -0.43734  -0.43544  -0.43190
 Alpha  occ. eigenvalues --   -0.42999  -0.42899  -0.42799  -0.42758  -0.42541
 Alpha  occ. eigenvalues --   -0.42357  -0.42098  -0.41928  -0.41560  -0.41418
 Alpha  occ. eigenvalues --   -0.41198  -0.40756  -0.40611  -0.40521  -0.40399
 Alpha  occ. eigenvalues --   -0.40221  -0.40161  -0.39933  -0.39789  -0.39402
 Alpha  occ. eigenvalues --   -0.39276  -0.39058  -0.38779  -0.38731  -0.38610
 Alpha  occ. eigenvalues --   -0.38541  -0.38342  -0.38287  -0.38021  -0.37879
 Alpha  occ. eigenvalues --   -0.37700  -0.37459  -0.37205  -0.37184  -0.36867
 Alpha  occ. eigenvalues --   -0.36614  -0.36498  -0.36432  -0.36112  -0.36090
 Alpha  occ. eigenvalues --   -0.35832  -0.35761  -0.35445  -0.35235  -0.35160
 Alpha  occ. eigenvalues --   -0.34149  -0.34062  -0.33853  -0.33627  -0.33578
 Alpha  occ. eigenvalues --   -0.33336  -0.33023  -0.32948  -0.32626  -0.32390
 Alpha  occ. eigenvalues --   -0.31888  -0.31591  -0.31582  -0.31447  -0.31363
 Alpha  occ. eigenvalues --   -0.31106  -0.30563  -0.30172  -0.29744  -0.29494
 Alpha  occ. eigenvalues --   -0.28911  -0.28546  -0.28000  -0.27189  -0.26410
 Alpha  occ. eigenvalues --   -0.26331  -0.26031  -0.25792  -0.25500  -0.20827
 Alpha  occ. eigenvalues --   -0.18408
 Alpha virt. eigenvalues --   -0.10590  -0.05151  -0.03773  -0.02057  -0.01130
 Alpha virt. eigenvalues --   -0.00419   0.01503   0.01944   0.02182   0.03316
 Alpha virt. eigenvalues --    0.04845   0.05139   0.05234   0.05690   0.05796

 Mulliken charges:
               1
     1  Mg   1.008785
     2  C   -0.024091
     3  C   -0.070913
     4  C   -0.051089
     5  C   -0.084645
     6  N   -0.380433
     7  C    0.008487
     8  C   -0.125898
     9  C   -0.128359
    10  C    0.118575
    11  C    0.006728
    12  C    0.061566
    13  C    0.007324
    14  C    0.207913
    15  O   -0.241565
    16  O   -0.402669
    17  N   -0.489052
    18  C    0.111625
    19  C   -0.157967
    20  C   -0.092113
    21  C    0.161977
    22  C    0.032017
    23  C    0.071111
    24  O   -0.246855
    25  C   -0.042551
    26  N   -0.346814
    27  C    0.058433
    28  C   -0.096201
    29  C   -0.121407
    30  C    0.043420
    31  C    0.021517
    32  C   -0.040262
    33  C   -0.091248
    34  N   -0.539676
    35  C    0.172957
    36  C   -0.200622
    37  C    0.004436
    38  C    0.201133
    39  C    0.056741
    40  C    0.112425
    41  O   -0.204251
    42  C   -0.106042
    43  C    0.284258
    44  O   -0.275373
    45  O   -0.354991
    46  C    0.126374
    47  C    0.245024
    48  C   -0.161806
    49  C   -0.201789
    50  C   -0.002662
    51  C    0.025489
    52  C   -0.081408
    53  C    0.011050
    54  C   -0.214771
    55  C   -0.015312
    56  C   -0.033632
    57  C   -0.051436
    58  C    0.005362
    59  C   -0.210783
    60  C   -0.040736
    61  C   -0.024770
    62  C   -0.058830
    63  C    0.003635
    64  C   -0.276882
    65  C    0.013031
    66  C   -0.015816
    67  H   -0.001271
    68  H    0.032850
    69  H   -0.000965
    70  H    0.087147
    71  H    0.048043
    72  H    0.056748
    73  H    0.038127
    74  H    0.050380
    75  H    0.040590
    76  H    0.045827
    77  H    0.057282
    78  H    0.065867
    79  H    0.059000
    80  H    0.033425
    81  H    0.059175
    82  H    0.052706
    83  H    0.074742
    84  H    0.056721
    85  H    0.042038
    86  H    0.046674
    87  H    0.056059
    88  H    0.049765
    89  H    0.049189
    90  H    0.039205
    91  H    0.043360
    92  H    0.044975
    93  H    0.046890
    94  H    0.048671
    95  H    0.039824
    96  H    0.065820
    97  H    0.057489
    98  H    0.074214
    99  H    0.055068
   100  H    0.067190
   101  H    0.062442
   102  H    0.070968
   103  H    0.065841
   104  H    0.033012
   105  H    0.039719
   106  H    0.052007
   107  H    0.062105
   108  H    0.045777
   109  H    0.024435
   110  H    0.032323
   111  H    0.035194
   112  H    0.029365
   113  H    0.026892
   114  H    0.037049
   115  H    0.036759
   116  H    0.032387
   117  H    0.051142
   118  H    0.007532
   119  H    0.020588
   120  H    0.023779
   121  H    0.036344
   122  H    0.042281
   123  H    0.033857
   124  H    0.037236
   125  H    0.027858
   126  H    0.030446
   127  H    0.035319
   128  H    0.025257
   129  H    0.030893
   130  H    0.026147
   131  H    0.029238
   132  H    0.030282
   133  H    0.028548
   134  H    0.036586
   135  H    0.044475
   136  H    0.026992
   137  H    0.031826
   138  H    0.032779
   139  H    0.031645
   140  H    0.034179
 Sum of Mulliken charges =  -0.00000

 Dipole moment (field-independent basis, Debye):
    X=             -4.2603    Y=              1.3403    Z=              3.5518  Tot=              5.7063
 Quadrupole moment (field-independent basis, Debye-Ang):
   XX=           -387.9433   YY=           -421.0422   ZZ=           -404.6903
   XY=             19.0305   XZ=             14.3159   YZ=             -6.9348

 Normal termination of Gaussian 16 at Fri Apr 29 03:39:59 2022.
