 Gaussian 16, Revision A.03,
 Gaussian 16:  ES64L-G16RevA.03 25-Dec-2016

 --------------------------------
 #p wB97XD/Def2SVP td=(nstates=5)
 --------------------------------

 -----------------------------------------------------
 step_1851_chromophore_24 TDDFT with wB97XD functional
 -----------------------------------------------------
 Symbolic Z-matrix:
 Charge =  0 Multiplicity = 1

                         Standard orientation:
 ---------------------------------------------------------------------
 Center     Atomic      Atomic             Coordinates (Angstroms)
 Number     Number       Type             X           Y           Z
 ---------------------------------------------------------------------
      1         12           0        5.147245    1.220099    0.143912
      2          6           0        4.768824   -2.181354    0.018253
      3          6           0        1.644170    1.491859    0.006446
      4          6           0        5.469562    4.542404   -0.333153
      5          6           0        8.555765    0.878261   -0.300293
      6          7           0        3.493838   -0.246802   -0.031195
      7          6           0        3.545841   -1.572299    0.136847
      8          6           0        2.171208   -2.251444    0.331570
      9          6           0        1.234716   -1.002749   -0.021382
     10          6           0        2.144451    0.151497   -0.045258
     11          6           0        0.461754   -1.127144   -1.410570
     12          6           0        1.953617   -2.702418    1.781112
     13          6           0        1.292312   -4.088467    1.955693
     14          6           0        0.348540   -4.641808    0.850012
     15          8           0        0.546349   -5.527879    0.045230
     16          8           0       -0.823338   -3.856219    0.765114
     17          7           0        3.772156    2.734731   -0.057076
     18          6           0        2.409611    2.699745   -0.111133
     19          6           0        1.891445    4.090218   -0.095065
     20          6           0        2.994114    4.928549   -0.036773
     21          6           0        4.171621    4.033240   -0.168392
     22          6           0        0.368837    4.421241    0.001433
     23          6           0        3.019165    6.449552    0.077592
     24          8           0        4.055240    7.099939    0.241142
     25          6           0        1.640615    7.158556    0.268558
     26          7           0        6.836085    2.509936   -0.293974
     27          6           0        6.681717    3.862919   -0.299729
     28          6           0        8.113481    4.532025   -0.496554
     29          6           0        9.116182    3.350232   -0.203590
     30          6           0        8.100700    2.168150   -0.259588
     31          6           0        8.504918    5.062331   -1.922581
     32          6           0        9.874943    3.342144    1.168287
     33          6           0        9.060747    3.160691    2.479574
     34          7           0        6.403368   -0.267004   -0.070427
     35          6           0        7.786697   -0.292724   -0.341934
     36          6           0        8.246624   -1.671360   -0.358989
     37          6           0        7.112995   -2.416795   -0.267518
     38          6           0        5.983581   -1.530220   -0.129133
     39          6           0        9.686164   -2.201211   -0.350642
     40          6           0        6.573000   -3.760300   -0.260767
     41          8           0        7.130222   -4.826933   -0.399927
     42          6           0        5.072269   -3.663512    0.033785
     43          6           0        4.523521   -4.376458   -1.152420
     44          8           0        4.383227   -3.955802   -2.310516
     45          8           0        4.192508   -5.614966   -0.714036
     46          6           0        3.827885   -6.649640   -1.689067
     47          6           0       -1.834491   -4.409372   -0.103768
     48          6           0       -3.090043   -3.661283    0.404816
     49          6           0       -4.338591   -3.992739    0.168852
     50          6           0       -4.780524   -5.269658   -0.661000
     51          6           0       -5.554219   -3.206241    0.827948
     52          6           0       -6.066709   -2.071688   -0.060378
     53          6           0       -6.137125   -0.668761    0.708425
     54          6           0       -7.497824   -0.557961    1.425204
     55          6           0       -7.346260   -0.486995    3.008046
     56          6           0       -8.294293    0.735993    0.929068
     57          6           0       -9.571926    0.409883    0.115295
     58          6           0      -10.723350    0.146555    1.156878
     59          6           0      -11.904438    1.139098    0.910808
     60          6           0      -12.712392    1.277499    2.306689
     61          6           0      -12.965940    0.696589   -0.269357
     62          6           0      -13.559247    1.933947   -0.982601
     63          6           0      -14.733102    1.578929   -1.892958
     64          6           0      -15.985588    2.445981   -1.617072
     65          6           0      -16.832911    2.051472   -0.410820
     66          6           0      -16.846022    2.523587   -2.927770
     67          1           0        0.592316    1.758841    0.122412
     68          1           0        5.544555    5.612609   -0.538784
     69          1           0        9.633197    0.749402   -0.173695
     70          1           0        2.135453   -3.081773   -0.374243
     71          1           0        0.459976   -0.828487    0.725662
     72          1           0        0.623390   -0.209768   -1.976347
     73          1           0       -0.606662   -1.293514   -1.272200
     74          1           0        0.756662   -2.046322   -1.916212
     75          1           0        1.394285   -1.954060    2.342611
     76          1           0        2.933875   -2.702140    2.256550
     77          1           0        0.624261   -4.039447    2.815227
     78          1           0        2.061863   -4.824067    2.192046
     79          1           0        0.044596    4.640807    1.018330
     80          1           0       -0.241831    3.528396   -0.133405
     81          1           0        0.082764    5.247028   -0.650992
     82          1           0        1.021130    6.609331    0.978258
     83          1           0        1.120350    7.199474   -0.688054
     84          1           0        1.847529    8.083888    0.806209
     85          1           0        8.295957    5.306386    0.248266
     86          1           0        9.877679    3.165536   -0.961016
     87          1           0        7.680835    4.706783   -2.540922
     88          1           0        9.501796    4.682267   -2.148756
     89          1           0        8.502382    6.151703   -1.894848
     90          1           0       10.252312    4.343820    1.372676
     91          1           0       10.685590    2.615464    1.211098
     92          1           0        9.147141    2.140953    2.854762
     93          1           0        8.040092    3.322705    2.132606
     94          1           0        9.246900    3.872365    3.284050
     95          1           0       10.509394   -1.582715    0.007229
     96          1           0        9.977841   -2.639940   -1.305331
     97          1           0        9.618260   -3.013183    0.373975
     98          1           0        4.697001   -4.173656    0.921316
     99          1           0        4.078648   -7.584924   -1.190374
    100          1           0        4.327129   -6.610161   -2.658204
    101          1           0        2.749113   -6.635838   -1.843969
    102          1           0       -2.051927   -5.458996    0.098358
    103          1           0       -1.604996   -4.115354   -1.127567
    104          1           0       -2.838458   -2.862118    1.102630
    105          1           0       -3.916592   -5.729149   -1.142121
    106          1           0       -5.484670   -4.993008   -1.444648
    107          1           0       -5.214774   -5.969915    0.051853
    108          1           0       -5.285633   -2.828579    1.814397
    109          1           0       -6.446946   -3.828576    0.897021
    110          1           0       -7.082300   -2.241288   -0.417678
    111          1           0       -5.445051   -2.011277   -0.953178
    112          1           0       -6.029299    0.155708    0.003933
    113          1           0       -5.312698   -0.612606    1.418186
    114          1           0       -8.077350   -1.431801    1.126356
    115          1           0       -7.156158   -1.517223    3.310033
    116          1           0       -8.316679   -0.267068    3.451755
    117          1           0       -6.632889    0.299224    3.257933
    118          1           0       -7.640103    1.307715    0.271161
    119          1           0       -8.543119    1.509672    1.655655
    120          1           0       -9.272289   -0.506585   -0.393709
    121          1           0       -9.812588    1.170333   -0.626489
    122          1           0      -10.365546    0.391158    2.156501
    123          1           0      -11.020837   -0.899734    1.086919
    124          1           0      -11.553364    2.146451    0.685880
    125          1           0      -12.249125    0.704620    3.110036
    126          1           0      -13.731497    0.892408    2.293151
    127          1           0      -12.780717    2.306822    2.656697
    128          1           0      -13.813164    0.216466    0.221776
    129          1           0      -12.607906   -0.026199   -1.002991
    130          1           0      -12.729997    2.329414   -1.569360
    131          1           0      -13.722378    2.721846   -0.247460
    132          1           0      -15.063454    0.545421   -1.788199
    133          1           0      -14.361501    1.682674   -2.912200
    134          1           0      -15.624397    3.458743   -1.439596
    135          1           0      -17.896875    1.926558   -0.609727
    136          1           0      -16.747903    2.867330    0.307394
    137          1           0      -16.311976    1.231525    0.083138
    138          1           0      -16.867800    3.580277   -3.193266
    139          1           0      -17.870724    2.191309   -2.756644
    140          1           0      -16.370404    1.992404   -3.751776
 ---------------------------------------------------------------------

 SCF Done:  E(RwB97XD) =  -3007.87965014     A.U. after   19 cycles

 Excitation energies and oscillator strengths:

 Excited State   1:      Singlet-A      1.6697 eV  742.55 nm  f=0.3648  <S**2>=0.000
     245 -> 248        0.19567
     246 -> 247        0.68084
     245 <- 248        0.11908
 This state for optimization and/or second-order correction.
 Total Energy, E(TD-HF/TD-DFT) =  -3007.81828917
 Copying the excited state density for this state as the 1-particle RhoCI density.

 Excited State   2:      Singlet-A      2.2397 eV  553.57 nm  f=0.0743  <S**2>=0.000
     245 -> 247        0.61851
     246 -> 248       -0.33332

 Excited State   3:      Singlet-A      3.5013 eV  354.11 nm  f=0.7435  <S**2>=0.000
     241 -> 247        0.10733
     242 -> 247        0.10243
     245 -> 247        0.31701
     246 -> 248        0.60724
     245 <- 247       -0.11562

 Excited State   4:      Singlet-A      3.6012 eV  344.28 nm  f=0.0031  <S**2>=0.000
     243 -> 247        0.55230
     243 -> 249       -0.29007
     243 -> 250       -0.27053

 Excited State   5:      Singlet-A      3.7019 eV  334.92 nm  f=0.0057  <S**2>=0.000
     241 -> 247       -0.15171
     241 -> 248       -0.11904
     241 -> 249       -0.26822
     241 -> 250        0.14101
     242 -> 247        0.21837
     244 -> 247        0.49285

 The electronic state is 1-A.
 Alpha  occ. eigenvalues --  -46.94059 -19.30308 -19.29584 -19.26293 -19.24417
 Alpha  occ. eigenvalues --  -19.23753 -19.23746 -14.46492 -14.46094 -14.44501
 Alpha  occ. eigenvalues --  -14.43701 -10.44394 -10.42384 -10.39704 -10.38590
 Alpha  occ. eigenvalues --  -10.36157 -10.35060 -10.34472 -10.34463 -10.34334
 Alpha  occ. eigenvalues --  -10.34084 -10.33962 -10.33700 -10.33585 -10.32781
 Alpha  occ. eigenvalues --  -10.32699 -10.32672 -10.32594 -10.32212 -10.32118
 Alpha  occ. eigenvalues --  -10.31806 -10.31651 -10.31540 -10.31529 -10.31503
 Alpha  occ. eigenvalues --  -10.31447 -10.31360 -10.30940 -10.30916 -10.30672
 Alpha  occ. eigenvalues --  -10.30538 -10.30404 -10.30213 -10.30142 -10.30136
 Alpha  occ. eigenvalues --  -10.30105 -10.29957 -10.29947 -10.29523 -10.29446
 Alpha  occ. eigenvalues --  -10.29413 -10.29399 -10.29277 -10.29220 -10.29150
 Alpha  occ. eigenvalues --  -10.29072 -10.29064 -10.28835 -10.28824 -10.28805
 Alpha  occ. eigenvalues --  -10.28610 -10.28550 -10.28519 -10.28399 -10.28172
 Alpha  occ. eigenvalues --  -10.27872  -3.20297  -1.93863  -1.93431  -1.93293
 Alpha  occ. eigenvalues --   -1.18936  -1.17571  -1.12592  -1.11879  -1.10888
 Alpha  occ. eigenvalues --   -1.08462  -1.06630  -1.05893  -1.05259  -1.04546
 Alpha  occ. eigenvalues --   -0.94829  -0.92016  -0.91543  -0.90803  -0.90534
 Alpha  occ. eigenvalues --   -0.90186  -0.89811  -0.89411  -0.88886  -0.88489
 Alpha  occ. eigenvalues --   -0.88422  -0.87101  -0.85990  -0.85331  -0.84895
 Alpha  occ. eigenvalues --   -0.84124  -0.83400  -0.82952  -0.82207  -0.81932
 Alpha  occ. eigenvalues --   -0.81236  -0.80271  -0.79852  -0.78764  -0.77948
 Alpha  occ. eigenvalues --   -0.77466  -0.77311  -0.76785  -0.76046  -0.75783
 Alpha  occ. eigenvalues --   -0.75253  -0.74746  -0.73725  -0.72679  -0.70912
 Alpha  occ. eigenvalues --   -0.70358  -0.69488  -0.69077  -0.68125  -0.67637
 Alpha  occ. eigenvalues --   -0.67256  -0.66813  -0.66639  -0.66152  -0.65956
 Alpha  occ. eigenvalues --   -0.65777  -0.65307  -0.64103  -0.63555  -0.62214
 Alpha  occ. eigenvalues --   -0.62058  -0.61361  -0.61018  -0.60251  -0.59633
 Alpha  occ. eigenvalues --   -0.59155  -0.58704  -0.57982  -0.57815  -0.57599
 Alpha  occ. eigenvalues --   -0.57182  -0.56843  -0.56326  -0.55718  -0.55584
 Alpha  occ. eigenvalues --   -0.55519  -0.55418  -0.54793  -0.54607  -0.54365
 Alpha  occ. eigenvalues --   -0.54299  -0.54190  -0.54098  -0.53825  -0.53476
 Alpha  occ. eigenvalues --   -0.53302  -0.52934  -0.52662  -0.52359  -0.52227
 Alpha  occ. eigenvalues --   -0.51990  -0.51903  -0.51747  -0.51610  -0.51411
 Alpha  occ. eigenvalues --   -0.51308  -0.51037  -0.51009  -0.50804  -0.50460
 Alpha  occ. eigenvalues --   -0.50291  -0.50165  -0.50087  -0.50060  -0.49848
 Alpha  occ. eigenvalues --   -0.49658  -0.49325  -0.49222  -0.48805  -0.48621
 Alpha  occ. eigenvalues --   -0.48429  -0.47945  -0.47775  -0.47693  -0.47611
 Alpha  occ. eigenvalues --   -0.47406  -0.47346  -0.47092  -0.47054  -0.46541
 Alpha  occ. eigenvalues --   -0.46539  -0.46226  -0.45939  -0.45930  -0.45766
 Alpha  occ. eigenvalues --   -0.45689  -0.45506  -0.45415  -0.45136  -0.44952
 Alpha  occ. eigenvalues --   -0.44706  -0.44609  -0.44361  -0.44339  -0.44039
 Alpha  occ. eigenvalues --   -0.43677  -0.43566  -0.43551  -0.43232  -0.43166
 Alpha  occ. eigenvalues --   -0.42874  -0.42864  -0.42466  -0.42311  -0.42181
 Alpha  occ. eigenvalues --   -0.41164  -0.41055  -0.40825  -0.40623  -0.40534
 Alpha  occ. eigenvalues --   -0.40279  -0.40001  -0.39947  -0.39668  -0.39432
 Alpha  occ. eigenvalues --   -0.38920  -0.38659  -0.38607  -0.38312  -0.38277
 Alpha  occ. eigenvalues --   -0.38045  -0.37663  -0.37052  -0.36816  -0.36269
 Alpha  occ. eigenvalues --   -0.35745  -0.35459  -0.34920  -0.33818  -0.33123
 Alpha  occ. eigenvalues --   -0.33018  -0.33002  -0.32701  -0.32441  -0.25831
 Alpha  occ. eigenvalues --   -0.22538
 Alpha virt. eigenvalues --   -0.06360   0.00275   0.02528   0.04434   0.05412
 Alpha virt. eigenvalues --    0.05810   0.08270   0.08734   0.08967   0.09950
 Alpha virt. eigenvalues --    0.11223   0.11892   0.12073   0.12428   0.12507

 Mulliken charges:
               1
     1  Mg   0.996475
     2  C   -0.027021
     3  C   -0.087737
     4  C   -0.066241
     5  C   -0.101429
     6  N   -0.347426
     7  C   -0.024574
     8  C   -0.096898
     9  C   -0.104866
    10  C    0.110077
    11  C    0.017749
    12  C    0.066365
    13  C    0.022740
    14  C    0.197907
    15  O   -0.239038
    16  O   -0.400994
    17  N   -0.454258
    18  C    0.102146
    19  C   -0.152456
    20  C   -0.086233
    21  C    0.154896
    22  C    0.048171
    23  C    0.064740
    24  O   -0.241643
    25  C   -0.027081
    26  N   -0.309440
    27  C    0.042595
    28  C   -0.078716
    29  C   -0.087337
    30  C    0.026884
    31  C    0.033237
    32  C   -0.032285
    33  C   -0.067280
    34  N   -0.503611
    35  C    0.168329
    36  C   -0.200376
    37  C    0.012023
    38  C    0.182830
    39  C    0.066258
    40  C    0.095411
    41  O   -0.194323
    42  C   -0.064285
    43  C    0.258743
    44  O   -0.269003
    45  O   -0.353528
    46  C    0.139876
    47  C    0.255476
    48  C   -0.172842
    49  C   -0.184931
    50  C    0.013454
    51  C    0.040040
    52  C   -0.059355
    53  C    0.023259
    54  C   -0.188545
    55  C    0.001730
    56  C   -0.016713
    57  C   -0.031224
    58  C    0.023410
    59  C   -0.183099
    60  C   -0.027895
    61  C   -0.008318
    62  C   -0.042294
    63  C    0.019143
    64  C   -0.248568
    65  C    0.025303
    66  C   -0.002117
    67  H   -0.009281
    68  H    0.029057
    69  H   -0.007693
    70  H    0.069576
    71  H    0.038697
    72  H    0.050226
    73  H    0.032287
    74  H    0.044483
    75  H    0.034844
    76  H    0.037238
    77  H    0.051928
    78  H    0.061711
    79  H    0.053185
    80  H    0.028545
    81  H    0.052224
    82  H    0.045259
    83  H    0.069838
    84  H    0.055150
    85  H    0.032841
    86  H    0.036265
    87  H    0.049390
    88  H    0.043366
    89  H    0.044079
    90  H    0.030776
    91  H    0.036485
    92  H    0.038451
    93  H    0.030731
    94  H    0.044620
    95  H    0.036274
    96  H    0.062289
    97  H    0.052247
    98  H    0.067918
    99  H    0.051471
   100  H    0.063635
   101  H    0.060632
   102  H    0.064374
   103  H    0.062148
   104  H    0.029813
   105  H    0.033725
   106  H    0.046350
   107  H    0.056267
   108  H    0.036284
   109  H    0.017343
   110  H    0.021247
   111  H    0.026440
   112  H    0.021683
   113  H    0.017003
   114  H    0.020678
   115  H    0.030112
   116  H    0.025072
   117  H    0.045332
   118  H   -0.001875
   119  H    0.010851
   120  H    0.011420
   121  H    0.028586
   122  H    0.025345
   123  H    0.027404
   124  H    0.024762
   125  H    0.021957
   126  H    0.023781
   127  H    0.030069
   128  H    0.010703
   129  H    0.023699
   130  H    0.016961
   131  H    0.018780
   132  H    0.020420
   133  H    0.021093
   134  H    0.024513
   135  H    0.039401
   136  H    0.021100
   137  H    0.023158
   138  H    0.026959
   139  H    0.025207
   140  H    0.027808
 Sum of Mulliken charges =  -0.00000

 Dipole moment (field-independent basis, Debye):
    X=             -4.2423    Y=              1.2815    Z=              3.5931  Tot=              5.7053
 Quadrupole moment (field-independent basis, Debye-Ang):
   XX=           -387.5704   YY=           -419.7402   ZZ=           -404.2322
   XY=             17.7531   XZ=             14.5327   YZ=             -6.9445

 Normal termination of Gaussian 16 at Fri Apr 29 04:06:23 2022.
