 Gaussian 16, Revision A.03,
 Gaussian 16:  ES64L-G16RevA.03 25-Dec-2016

 --------------------
 #p ZINDO=(nstates=5)
 --------------------

 ------------------------------
 step_1851_chromophore_24 ZINDO
 ------------------------------
 Symbolic Z-matrix:
 Charge =  0 Multiplicity = 1

                         Standard orientation:
 ---------------------------------------------------------------------
 Center     Atomic      Atomic             Coordinates (Angstroms)
 Number     Number       Type             X           Y           Z
 ---------------------------------------------------------------------
      1         12           0        5.147245    1.220099    0.143912
      2          6           0        4.768824   -2.181354    0.018253
      3          6           0        1.644170    1.491859    0.006446
      4          6           0        5.469562    4.542404   -0.333153
      5          6           0        8.555765    0.878261   -0.300293
      6          7           0        3.493838   -0.246802   -0.031195
      7          6           0        3.545841   -1.572299    0.136847
      8          6           0        2.171208   -2.251444    0.331570
      9          6           0        1.234716   -1.002749   -0.021382
     10          6           0        2.144451    0.151497   -0.045258
     11          6           0        0.461754   -1.127144   -1.410570
     12          6           0        1.953617   -2.702418    1.781112
     13          6           0        1.292312   -4.088467    1.955693
     14          6           0        0.348540   -4.641808    0.850012
     15          8           0        0.546349   -5.527879    0.045230
     16          8           0       -0.823338   -3.856219    0.765114
     17          7           0        3.772156    2.734731   -0.057076
     18          6           0        2.409611    2.699745   -0.111133
     19          6           0        1.891445    4.090218   -0.095065
     20          6           0        2.994114    4.928549   -0.036773
     21          6           0        4.171621    4.033240   -0.168392
     22          6           0        0.368837    4.421241    0.001433
     23          6           0        3.019165    6.449552    0.077592
     24          8           0        4.055240    7.099939    0.241142
     25          6           0        1.640615    7.158556    0.268558
     26          7           0        6.836085    2.509936   -0.293974
     27          6           0        6.681717    3.862919   -0.299729
     28          6           0        8.113481    4.532025   -0.496554
     29          6           0        9.116182    3.350232   -0.203590
     30          6           0        8.100700    2.168150   -0.259588
     31          6           0        8.504918    5.062331   -1.922581
     32          6           0        9.874943    3.342144    1.168287
     33          6           0        9.060747    3.160691    2.479574
     34          7           0        6.403368   -0.267004   -0.070427
     35          6           0        7.786697   -0.292724   -0.341934
     36          6           0        8.246624   -1.671360   -0.358989
     37          6           0        7.112995   -2.416795   -0.267518
     38          6           0        5.983581   -1.530220   -0.129133
     39          6           0        9.686164   -2.201211   -0.350642
     40          6           0        6.573000   -3.760300   -0.260767
     41          8           0        7.130222   -4.826933   -0.399927
     42          6           0        5.072269   -3.663512    0.033785
     43          6           0        4.523521   -4.376458   -1.152420
     44          8           0        4.383227   -3.955802   -2.310516
     45          8           0        4.192508   -5.614966   -0.714036
     46          6           0        3.827885   -6.649640   -1.689067
     47          6           0       -1.834491   -4.409372   -0.103768
     48          6           0       -3.090043   -3.661283    0.404816
     49          6           0       -4.338591   -3.992739    0.168852
     50          6           0       -4.780524   -5.269658   -0.661000
     51          6           0       -5.554219   -3.206241    0.827948
     52          6           0       -6.066709   -2.071688   -0.060378
     53          6           0       -6.137125   -0.668761    0.708425
     54          6           0       -7.497824   -0.557961    1.425204
     55          6           0       -7.346260   -0.486995    3.008046
     56          6           0       -8.294293    0.735993    0.929068
     57          6           0       -9.571926    0.409883    0.115295
     58          6           0      -10.723350    0.146555    1.156878
     59          6           0      -11.904438    1.139098    0.910808
     60          6           0      -12.712392    1.277499    2.306689
     61          6           0      -12.965940    0.696589   -0.269357
     62          6           0      -13.559247    1.933947   -0.982601
     63          6           0      -14.733102    1.578929   -1.892958
     64          6           0      -15.985588    2.445981   -1.617072
     65          6           0      -16.832911    2.051472   -0.410820
     66          6           0      -16.846022    2.523587   -2.927770
     67          1           0        0.592316    1.758841    0.122412
     68          1           0        5.544555    5.612609   -0.538784
     69          1           0        9.633197    0.749402   -0.173695
     70          1           0        2.135453   -3.081773   -0.374243
     71          1           0        0.459976   -0.828487    0.725662
     72          1           0        0.623390   -0.209768   -1.976347
     73          1           0       -0.606662   -1.293514   -1.272200
     74          1           0        0.756662   -2.046322   -1.916212
     75          1           0        1.394285   -1.954060    2.342611
     76          1           0        2.933875   -2.702140    2.256550
     77          1           0        0.624261   -4.039447    2.815227
     78          1           0        2.061863   -4.824067    2.192046
     79          1           0        0.044596    4.640807    1.018330
     80          1           0       -0.241831    3.528396   -0.133405
     81          1           0        0.082764    5.247028   -0.650992
     82          1           0        1.021130    6.609331    0.978258
     83          1           0        1.120350    7.199474   -0.688054
     84          1           0        1.847529    8.083888    0.806209
     85          1           0        8.295957    5.306386    0.248266
     86          1           0        9.877679    3.165536   -0.961016
     87          1           0        7.680835    4.706783   -2.540922
     88          1           0        9.501796    4.682267   -2.148756
     89          1           0        8.502382    6.151703   -1.894848
     90          1           0       10.252312    4.343820    1.372676
     91          1           0       10.685590    2.615464    1.211098
     92          1           0        9.147141    2.140953    2.854762
     93          1           0        8.040092    3.322705    2.132606
     94          1           0        9.246900    3.872365    3.284050
     95          1           0       10.509394   -1.582715    0.007229
     96          1           0        9.977841   -2.639940   -1.305331
     97          1           0        9.618260   -3.013183    0.373975
     98          1           0        4.697001   -4.173656    0.921316
     99          1           0        4.078648   -7.584924   -1.190374
    100          1           0        4.327129   -6.610161   -2.658204
    101          1           0        2.749113   -6.635838   -1.843969
    102          1           0       -2.051927   -5.458996    0.098358
    103          1           0       -1.604996   -4.115354   -1.127567
    104          1           0       -2.838458   -2.862118    1.102630
    105          1           0       -3.916592   -5.729149   -1.142121
    106          1           0       -5.484670   -4.993008   -1.444648
    107          1           0       -5.214774   -5.969915    0.051853
    108          1           0       -5.285633   -2.828579    1.814397
    109          1           0       -6.446946   -3.828576    0.897021
    110          1           0       -7.082300   -2.241288   -0.417678
    111          1           0       -5.445051   -2.011277   -0.953178
    112          1           0       -6.029299    0.155708    0.003933
    113          1           0       -5.312698   -0.612606    1.418186
    114          1           0       -8.077350   -1.431801    1.126356
    115          1           0       -7.156158   -1.517223    3.310033
    116          1           0       -8.316679   -0.267068    3.451755
    117          1           0       -6.632889    0.299224    3.257933
    118          1           0       -7.640103    1.307715    0.271161
    119          1           0       -8.543119    1.509672    1.655655
    120          1           0       -9.272289   -0.506585   -0.393709
    121          1           0       -9.812588    1.170333   -0.626489
    122          1           0      -10.365546    0.391158    2.156501
    123          1           0      -11.020837   -0.899734    1.086919
    124          1           0      -11.553364    2.146451    0.685880
    125          1           0      -12.249125    0.704620    3.110036
    126          1           0      -13.731497    0.892408    2.293151
    127          1           0      -12.780717    2.306822    2.656697
    128          1           0      -13.813164    0.216466    0.221776
    129          1           0      -12.607906   -0.026199   -1.002991
    130          1           0      -12.729997    2.329414   -1.569360
    131          1           0      -13.722378    2.721846   -0.247460
    132          1           0      -15.063454    0.545421   -1.788199
    133          1           0      -14.361501    1.682674   -2.912200
    134          1           0      -15.624397    3.458743   -1.439596
    135          1           0      -17.896875    1.926558   -0.609727
    136          1           0      -16.747903    2.867330    0.307394
    137          1           0      -16.311976    1.231525    0.083138
    138          1           0      -16.867800    3.580277   -3.193266
    139          1           0      -17.870724    2.191309   -2.756644
    140          1           0      -16.370404    1.992404   -3.751776
 ---------------------------------------------------------------------

 SCF Done:  E(RZINDO/S) =  -474.125571351     A.U. after   20 cycles

 Excitation energies and oscillator strengths:

 Excited State   1:      Singlet-A      1.2584 eV  985.22 nm  f=0.5803  <S**2>=0.000
     175 ->178         0.20089
     176 ->177         0.66096
 This state for optimization and/or second-order correction.
 Total Energy, E(CIS/TDA) =  -474.079324699
 Copying the excited state density for this state as the 1-particle RhoCI density.

 Excited State   2:      Singlet-A      1.9422 eV  638.38 nm  f=0.0095  <S**2>=0.000
     175 ->177         0.51169
     176 ->178        -0.46772

 Excited State   3:      Singlet-A      2.9298 eV  423.19 nm  f=0.0045  <S**2>=0.000
     168 ->179        -0.11035
     169 ->177         0.33243
     169 ->178        -0.10121
     169 ->179        -0.37549
     169 ->180         0.27069
     169 ->186        -0.13710
     169 ->187        -0.13760
     169 ->201         0.11513

 Excited State   4:      Singlet-A      2.9489 eV  420.44 nm  f=0.0124  <S**2>=0.000
     176 ->179         0.65211
     176 ->180         0.12103
     176 ->182         0.11568

 Excited State   5:      Singlet-A      2.9782 eV  416.31 nm  f=0.2274  <S**2>=0.000
     168 ->177         0.22020
     168 ->178        -0.10746
     168 ->179         0.31447
     168 ->180         0.32701
     168 ->184        -0.10505
     168 ->186         0.16924
     175 ->177         0.19040
     176 ->178         0.22498

 The electronic state is 1-A.
 Alpha  occ. eigenvalues --   -1.86507  -1.81457  -1.80236  -1.73711  -1.72941
 Alpha  occ. eigenvalues --   -1.70685  -1.63435  -1.60168  -1.59013  -1.57004
 Alpha  occ. eigenvalues --   -1.53585  -1.49900  -1.49257  -1.46516  -1.45471
 Alpha  occ. eigenvalues --   -1.44689  -1.42847  -1.39823  -1.38358  -1.38060
 Alpha  occ. eigenvalues --   -1.36435  -1.32981  -1.32085  -1.31351  -1.29910
 Alpha  occ. eigenvalues --   -1.26469  -1.24182  -1.21024  -1.20090  -1.18311
 Alpha  occ. eigenvalues --   -1.17709  -1.16261  -1.15466  -1.14576  -1.12224
 Alpha  occ. eigenvalues --   -1.11124  -1.11007  -1.09252  -1.05336  -1.03585
 Alpha  occ. eigenvalues --   -1.02341  -1.00967  -0.98623  -0.97849  -0.96333
 Alpha  occ. eigenvalues --   -0.94926  -0.94142  -0.93577  -0.92742  -0.92319
 Alpha  occ. eigenvalues --   -0.91224  -0.90352  -0.89814  -0.87795  -0.86137
 Alpha  occ. eigenvalues --   -0.85498  -0.85251  -0.83167  -0.81456  -0.80335
 Alpha  occ. eigenvalues --   -0.79598  -0.78591  -0.76645  -0.76086  -0.75667
 Alpha  occ. eigenvalues --   -0.74982  -0.74590  -0.74303  -0.73548  -0.72964
 Alpha  occ. eigenvalues --   -0.72680  -0.72011  -0.71523  -0.71084  -0.70655
 Alpha  occ. eigenvalues --   -0.70292  -0.69135  -0.68926  -0.68788  -0.68112
 Alpha  occ. eigenvalues --   -0.67737  -0.66942  -0.66438  -0.66233  -0.65477
 Alpha  occ. eigenvalues --   -0.64949  -0.64645  -0.63760  -0.63571  -0.63088
 Alpha  occ. eigenvalues --   -0.62833  -0.62797  -0.62513  -0.61929  -0.61500
 Alpha  occ. eigenvalues --   -0.61401  -0.61085  -0.60843  -0.60646  -0.60135
 Alpha  occ. eigenvalues --   -0.59910  -0.59537  -0.59357  -0.58704  -0.58240
 Alpha  occ. eigenvalues --   -0.58101  -0.57352  -0.57236  -0.57003  -0.56675
 Alpha  occ. eigenvalues --   -0.56123  -0.55363  -0.55223  -0.54547  -0.54362
 Alpha  occ. eigenvalues --   -0.54181  -0.53828  -0.53480  -0.53021  -0.52908
 Alpha  occ. eigenvalues --   -0.52532  -0.52197  -0.51869  -0.51859  -0.51370
 Alpha  occ. eigenvalues --   -0.51044  -0.50719  -0.50590  -0.50252  -0.50182
 Alpha  occ. eigenvalues --   -0.50013  -0.49797  -0.49407  -0.49387  -0.48967
 Alpha  occ. eigenvalues --   -0.48780  -0.48572  -0.48394  -0.48348  -0.48227
 Alpha  occ. eigenvalues --   -0.47548  -0.47425  -0.47213  -0.46555  -0.46430
 Alpha  occ. eigenvalues --   -0.46059  -0.45864  -0.45600  -0.45489  -0.45159
 Alpha  occ. eigenvalues --   -0.45121  -0.45026  -0.44860  -0.44672  -0.44465
 Alpha  occ. eigenvalues --   -0.44170  -0.43516  -0.43280  -0.42830  -0.42151
 Alpha  occ. eigenvalues --   -0.41810  -0.41674  -0.40460  -0.39548  -0.38657
 Alpha  occ. eigenvalues --   -0.37804  -0.37279  -0.35449  -0.34955  -0.34356
 Alpha  occ. eigenvalues --   -0.33622  -0.33456  -0.33181  -0.32455  -0.26555
 Alpha  occ. eigenvalues --   -0.21299
 Alpha virt. eigenvalues --   -0.07873  -0.01957  -0.00445   0.01069   0.01247
 Alpha virt. eigenvalues --    0.02142   0.03069   0.03731   0.05187   0.05204
 Alpha virt. eigenvalues --    0.06806   0.07601   0.07754   0.07956   0.08362

 Mulliken charges:
               1
     1  Mg   0.428683
     2  C   -0.054741
     3  C   -0.096289
     4  C   -0.049890
     5  C   -0.063726
     6  N   -0.294562
     7  C    0.144627
     8  C    0.003749
     9  C    0.005707
    10  C    0.127875
    11  C   -0.055307
    12  C   -0.011945
    13  C    0.008707
    14  C    0.458924
    15  O   -0.495874
    16  O   -0.286675
    17  N   -0.300777
    18  C    0.093670
    19  C   -0.007536
    20  C   -0.040535
    21  C    0.121556
    22  C   -0.050204
    23  C    0.319965
    24  O   -0.516897
    25  C   -0.038032
    26  N   -0.252309
    27  C    0.105033
    28  C   -0.002142
    29  C   -0.006868
    30  C    0.139454
    31  C   -0.055015
    32  C   -0.033975
    33  C   -0.062276
    34  N   -0.319636
    35  C    0.086094
    36  C    0.048239
    37  C   -0.049069
    38  C    0.127989
    39  C   -0.042033
    40  C    0.345478
    41  O   -0.514936
    42  C    0.051862
    43  C    0.496695
    44  O   -0.543172
    45  O   -0.265739
    46  C    0.076284
    47  C    0.102797
    48  C   -0.081951
    49  C   -0.023097
    50  C   -0.047314
    51  C   -0.025669
    52  C   -0.036471
    53  C   -0.037204
    54  C   -0.016210
    55  C   -0.062123
    56  C   -0.044598
    57  C   -0.045711
    58  C   -0.032450
    59  C   -0.021453
    60  C   -0.070999
    61  C   -0.042891
    62  C   -0.036392
    63  C   -0.026566
    64  C   -0.013562
    65  C   -0.056678
    66  C   -0.065759
    67  H    0.033033
    68  H    0.050594
    69  H    0.022897
    70  H    0.053291
    71  H    0.028851
    72  H    0.032338
    73  H    0.016565
    74  H    0.029694
    75  H    0.027532
    76  H    0.021118
    77  H    0.032291
    78  H    0.038737
    79  H    0.027604
    80  H    0.021063
    81  H    0.032924
    82  H    0.030821
    83  H    0.046139
    84  H    0.038794
    85  H    0.029610
    86  H    0.032417
    87  H    0.031844
    88  H    0.031691
    89  H    0.022017
    90  H    0.014904
    91  H    0.022573
    92  H    0.018451
    93  H    0.019949
    94  H    0.025047
    95  H    0.027222
    96  H    0.039196
    97  H    0.027303
    98  H    0.059660
    99  H    0.029797
   100  H    0.053009
   101  H    0.041804
   102  H    0.060751
   103  H    0.058985
   104  H    0.033192
   105  H    0.022086
   106  H    0.029176
   107  H    0.031681
   108  H    0.028026
   109  H    0.019499
   110  H    0.018998
   111  H    0.016277
   112  H    0.020538
   113  H    0.019582
   114  H    0.028175
   115  H    0.020392
   116  H    0.013885
   117  H    0.032966
   118  H    0.002146
   119  H    0.019691
   120  H    0.015647
   121  H    0.026675
   122  H    0.025236
   123  H    0.025760
   124  H    0.028732
   125  H    0.015038
   126  H    0.017726
   127  H    0.016501
   128  H    0.015049
   129  H    0.024673
   130  H    0.009204
   131  H    0.023866
   132  H    0.019490
   133  H    0.017680
   134  H    0.015718
   135  H    0.031277
   136  H    0.009634
   137  H    0.022286
   138  H    0.013349
   139  H    0.021927
   140  H    0.021574
 Sum of Mulliken charges =  -0.00000

 Dipole moment (field-independent basis, Debye):
    X=             -5.5446    Y=              1.3656    Z=              5.4554  Tot=              7.8974
 N-N= 4.309604776020D+03 E-N= 0.000000000000D+00  KE=-9.293655862875D+03
 Leave Link  601 at Fri Apr 29 04:19:09 2022, MaxMem=  6710886400 cpu:               3.8 elap:               0.2
 (Enter /sw/apps/gaussian-16.0/g16/l9999.exe)
 1\1\GINC-BP1-COMPUTE162\SP\RZINDO CIS\STO-3G\C55H74Mg1N4O6\OF15641\29-
 Apr-2022\0\\#p ZINDO=(nstates=5)\\step_1851_chromophore_24 ZINDO\\0,1\
 Mg,0,-0.795,43.484,25.63\C,0,1.6,42.867,27.999\C,0,-3.219,42.692,28.05
 1\C,0,-3.146,43.494,23.213\C,0,1.641,43.683,23.189\N,0,-0.702,42.806,2
 7.739\C,0,0.351,42.816,28.563\C,0,0.,42.65,30.059\C,0,-1.548,42.276,29
 .902\C,0,-1.864,42.575,28.498\C,0,-1.899,40.757,30.237\C,0,0.167,43.96
 1,30.837\C,0,0.815,43.829,32.234\C,0,0.679,42.499,33.029\O,0,1.514,41.

 Normal termination of Gaussian 16 at Fri Apr 29 04:19:09 2022.
