 Gaussian 16, Revision A.03,
 Gaussian 16:  ES64L-G16RevA.03 25-Dec-2016

 ------------------------------
 #p blyp/Def2SVP td=(nstates=5)
 ------------------------------

 --------------------------------------------------
 step_201_chromophore_22 TDDFT with blyp functional
 --------------------------------------------------
 Symbolic Z-matrix:
 Charge =  0 Multiplicity = 1

                         Standard orientation:
 ---------------------------------------------------------------------
 Center     Atomic      Atomic             Coordinates (Angstroms)
 Number     Number       Type             X           Y           Z
 ---------------------------------------------------------------------
      1         12           0        6.195108    0.467839   -0.041937
      2          6           0        3.989946   -1.973164   -0.601003
      3          6           0        4.147071    2.773446   -1.569029
      4          6           0        8.554641    2.795807    0.389343
      5          6           0        8.650954   -1.966240    0.709974
      6          7           0        4.281900    0.442274   -0.847404
      7          6           0        3.530106   -0.719252   -0.995767
      8          6           0        2.219227   -0.390021   -1.640801
      9          6           0        2.536618    0.943400   -2.259348
     10          6           0        3.717702    1.449865   -1.450264
     11          6           0        2.919033    0.795730   -3.762370
     12          6           0        1.109842   -0.193297   -0.568705
     13          6           0       -0.291475   -0.385489   -0.965035
     14          6           0       -1.188128   -1.175067   -0.025592
     15          8           0       -0.806747   -1.815130    0.951437
     16          8           0       -2.577294   -1.091781   -0.279191
     17          7           0        6.229340    2.546775   -0.286329
     18          6           0        5.253258    3.302083   -0.912217
     19          6           0        5.534219    4.687607   -0.781383
     20          6           0        6.898796    4.794544   -0.200479
     21          6           0        7.274708    3.360560    0.048818
     22          6           0        4.524417    5.772867   -1.265766
     23          6           0        7.787024    6.018203    0.149661
     24          8           0        8.982665    5.878568    0.550729
     25          6           0        7.222220    7.452639   -0.041466
     26          7           0        8.401060    0.357472    0.365153
     27          6           0        9.096130    1.480879    0.417670
     28          6           0       10.549277    1.222605    0.837723
     29          6           0       10.418902   -0.294988    1.230158
     30          6           0        9.139617   -0.671387    0.702353
     31          6           0       11.619067    1.535513   -0.246883
     32          6           0       10.614614   -0.610706    2.758815
     33          6           0       11.453750   -1.850074    2.953359
     34          7           0        6.340548   -1.594763    0.125705
     35          6           0        7.356353   -2.399196    0.437364
     36          6           0        6.909355   -3.792290    0.374960
     37          6           0        5.530883   -3.668265    0.023156
     38          6           0        5.260438   -2.325685   -0.102926
     39          6           0        7.747568   -4.979477    0.527763
     40          6           0        4.322302   -4.336444   -0.150933
     41          8           0        3.973859   -5.493894    0.126628
     42          6           0        3.295850   -3.330677   -0.817697
     43          6           0        1.889390   -3.604714   -0.240055
     44          8           0        1.589733   -3.582622    0.957023
     45          8           0        1.146125   -3.992507   -1.296160
     46          6           0       -0.219115   -4.538231   -0.940917
     47          6           0       -3.400711   -1.893178    0.674810
     48          6           0       -4.897130   -1.754370    0.291653
     49          6           0       -5.864309   -2.745382    0.199888
     50          6           0       -5.798681   -4.102930    0.775393
     51          6           0       -7.244106   -2.348700   -0.354864
     52          6           0       -8.209104   -1.620284    0.643707
     53          6           0       -8.495605   -0.098833    0.355444
     54          6           0       -9.928104    0.203227   -0.084164
     55          6           0      -10.181466   -0.044355   -1.529940
     56          6           0      -10.419733    1.672142    0.249873
     57          6           0      -11.231159    1.550841    1.565496
     58          6           0      -11.961778    2.820214    1.889719
     59          6           0      -13.369007    2.427593    2.317670
     60          6           0      -13.859670    3.402875    3.420285
     61          6           0      -14.323838    2.576954    1.077443
     62          6           0      -15.169260    1.335966    1.001048
     63          6           0      -15.887844    1.311665   -0.393250
     64          6           0      -15.966289   -0.128950   -1.027259
     65          6           0      -14.837824   -0.100465   -2.079205
     66          6           0      -17.399113   -0.459887   -1.747275
     67          1           0        3.526608    3.505980   -2.088921
     68          1           0        9.410777    3.473575    0.415105
     69          1           0        9.444769   -2.695996    0.888372
     70          1           0        1.946793   -1.121893   -2.400365
     71          1           0        1.743094    1.690215   -2.224862
     72          1           0        3.414151   -0.140115   -4.022041
     73          1           0        3.588588    1.636081   -3.947841
     74          1           0        1.938564    0.748711   -4.236664
     75          1           0        1.118697    0.793452   -0.107288
     76          1           0        1.378301   -0.853955    0.255656
     77          1           0       -0.361203   -0.842679   -1.951810
     78          1           0       -0.775616    0.583096   -1.090571
     79          1           0        3.562069    5.315454   -1.494318
     80          1           0        4.819698    6.181949   -2.232508
     81          1           0        4.321942    6.550961   -0.528711
     82          1           0        7.826700    8.127575    0.564899
     83          1           0        6.177178    7.428647    0.267923
     84          1           0        7.255645    7.630458   -1.116062
     85          1           0       10.752092    1.850644    1.705292
     86          1           0       11.239886   -0.921258    0.881392
     87          1           0       11.090509    1.897523   -1.128686
     88          1           0       12.150429    0.590638   -0.360045
     89          1           0       12.346942    2.254513    0.128612
     90          1           0        9.650958   -0.747552    3.249539
     91          1           0       11.077811    0.260019    3.223255
     92          1           0       11.432287   -2.031749    4.028117
     93          1           0       12.474931   -1.683672    2.610626
     94          1           0       11.033648   -2.763008    2.530479
     95          1           0        7.116787   -5.849113    0.708444
     96          1           0        8.301901   -4.783444    1.444847
     97          1           0        8.409040   -5.168332   -0.317593
     98          1           0        3.262649   -3.443113   -1.900472
     99          1           0       -0.831295   -4.688474   -1.829593
    100          1           0       -0.782122   -3.874936   -0.283486
    101          1           0       -0.056249   -5.451083   -0.367232
    102          1           0       -3.308716   -1.721730    1.746636
    103          1           0       -3.112914   -2.928941    0.494355
    104          1           0       -5.267393   -0.830081   -0.151049
    105          1           0       -5.949308   -4.814368   -0.035829
    106          1           0       -6.692031   -4.322208    1.359664
    107          1           0       -4.888799   -4.174332    1.372226
    108          1           0       -7.830224   -3.225311   -0.628449
    109          1           0       -6.988738   -1.768899   -1.242088
    110          1           0       -7.755232   -1.659692    1.634200
    111          1           0       -9.103591   -2.232513    0.757745
    112          1           0       -7.795358    0.381318   -0.328011
    113          1           0       -8.335080    0.393042    1.314838
    114          1           0      -10.597860   -0.563080    0.305854
    115          1           0      -11.039541    0.509624   -1.907904
    116          1           0      -10.433605   -1.079401   -1.761448
    117          1           0       -9.326677    0.353488   -2.077570
    118          1           0      -11.037474    2.111948   -0.533444
    119          1           0       -9.513864    2.275427    0.311871
    120          1           0      -10.519156    1.295641    2.350633
    121          1           0      -11.807122    0.634848    1.438690
    122          1           0      -11.846524    3.462028    1.016517
    123          1           0      -11.467125    3.209858    2.779251
    124          1           0      -13.392306    1.428310    2.752898
    125          1           0      -14.910557    3.677213    3.334843
    126          1           0      -13.268151    4.315119    3.506386
    127          1           0      -13.722547    2.911362    4.383706
    128          1           0      -13.783928    2.822885    0.163137
    129          1           0      -14.959618    3.453283    1.195339
    130          1           0      -16.013100    1.220608    1.681435
    131          1           0      -14.632516    0.390137    1.067550
    132          1           0      -15.450263    1.942825   -1.166681
    133          1           0      -16.909122    1.676034   -0.292575
    134          1           0      -15.711264   -0.882847   -0.282723
    135          1           0      -13.975809    0.410151   -1.649484
    136          1           0      -15.242313    0.408954   -2.953115
    137          1           0      -14.508954   -1.099863   -2.365798
    138          1           0      -18.130604    0.321132   -1.540017
    139          1           0      -17.663802   -1.364381   -1.199228
    140          1           0      -17.272693   -0.605489   -2.819941
 ---------------------------------------------------------------------

 SCF Done:  E(RB-LYP) =  -3007.35546028     A.U. after   21 cycles

 Excitation energies and oscillator strengths:

 Excited State   1:      Singlet-A      1.7213 eV  720.30 nm  f=0.0051  <S**2>=0.000
     244 -> 247        0.67806
     245 -> 247       -0.17074
 This state for optimization and/or second-order correction.
 Total Energy, E(TD-HF/TD-DFT) =  -3007.29220426
 Copying the excited state density for this state as the 1-particle RhoCI density.

 Excited State   2:      Singlet-A      1.8190 eV  681.60 nm  f=0.2955  <S**2>=0.000
     244 -> 247       -0.11107
     245 -> 248       -0.17329
     246 -> 247        0.67760
     246 <- 247       -0.14803

 Excited State   3:      Singlet-A      1.9090 eV  649.48 nm  f=0.0019  <S**2>=0.000
     243 -> 247        0.70496

 Excited State   4:      Singlet-A      1.9662 eV  630.59 nm  f=0.0939  <S**2>=0.000
     240 -> 247        0.11525
     244 -> 247        0.15919
     245 -> 247        0.63200
     246 -> 248        0.20016
     246 -> 249       -0.10403

 Excited State   5:      Singlet-A      2.1560 eV  575.06 nm  f=0.0000  <S**2>=0.000
     242 -> 247        0.70664

 The electronic state is 1-A.
 Alpha  occ. eigenvalues --  -46.26971 -18.82255 -18.81851 -18.76937 -18.75581
 Alpha  occ. eigenvalues --  -18.75454 -18.74549 -14.03288 -14.02406 -14.01060
 Alpha  occ. eigenvalues --  -14.00467 -10.04335 -10.02951 -10.00474  -9.98454
 Alpha  occ. eigenvalues --   -9.98329  -9.97201  -9.96529  -9.96439  -9.96095
 Alpha  occ. eigenvalues --   -9.95940  -9.95272  -9.95238  -9.95017  -9.94597
 Alpha  occ. eigenvalues --   -9.94200  -9.93996  -9.93991  -9.93829  -9.93769
 Alpha  occ. eigenvalues --   -9.93483  -9.93442  -9.93435  -9.93341  -9.93098
 Alpha  occ. eigenvalues --   -9.93028  -9.92890  -9.92787  -9.92629  -9.92567
 Alpha  occ. eigenvalues --   -9.92390  -9.92333  -9.92265  -9.92220  -9.92182
 Alpha  occ. eigenvalues --   -9.92149  -9.92104  -9.92091  -9.92082  -9.92075
 Alpha  occ. eigenvalues --   -9.91976  -9.91940  -9.91587  -9.91481  -9.91241
 Alpha  occ. eigenvalues --   -9.91190  -9.91136  -9.91004  -9.90970  -9.90649
 Alpha  occ. eigenvalues --   -9.90490  -9.90431  -9.90407  -9.90388  -9.90252
 Alpha  occ. eigenvalues --   -9.90104  -2.91655  -1.72098  -1.71540  -1.71352
 Alpha  occ. eigenvalues --   -0.96729  -0.96611  -0.89596  -0.88949  -0.88787
 Alpha  occ. eigenvalues --   -0.88400  -0.88163  -0.87850  -0.87114  -0.84779
 Alpha  occ. eigenvalues --   -0.75661  -0.74053  -0.73725  -0.72982  -0.72926
 Alpha  occ. eigenvalues --   -0.71967  -0.71838  -0.71223  -0.70675  -0.70498
 Alpha  occ. eigenvalues --   -0.70102  -0.69129  -0.67774  -0.67734  -0.66881
 Alpha  occ. eigenvalues --   -0.66369  -0.66207  -0.65039  -0.64923  -0.64490
 Alpha  occ. eigenvalues --   -0.64209  -0.63066  -0.62416  -0.61855  -0.60683
 Alpha  occ. eigenvalues --   -0.60489  -0.60104  -0.59640  -0.59030  -0.58453
 Alpha  occ. eigenvalues --   -0.58221  -0.57657  -0.56626  -0.55718  -0.54666
 Alpha  occ. eigenvalues --   -0.54194  -0.53095  -0.52880  -0.52283  -0.52168
 Alpha  occ. eigenvalues --   -0.51628  -0.51077  -0.50716  -0.50494  -0.50448
 Alpha  occ. eigenvalues --   -0.49073  -0.48921  -0.48432  -0.48280  -0.47054
 Alpha  occ. eigenvalues --   -0.46386  -0.45877  -0.45450  -0.45268  -0.44804
 Alpha  occ. eigenvalues --   -0.43855  -0.43392  -0.42910  -0.42669  -0.42162
 Alpha  occ. eigenvalues --   -0.41859  -0.41733  -0.41510  -0.41349  -0.41253
 Alpha  occ. eigenvalues --   -0.40914  -0.40508  -0.40264  -0.39831  -0.39781
 Alpha  occ. eigenvalues --   -0.39572  -0.39461  -0.39373  -0.39202  -0.39017
 Alpha  occ. eigenvalues --   -0.38912  -0.38898  -0.38822  -0.38713  -0.38348
 Alpha  occ. eigenvalues --   -0.38096  -0.37991  -0.37743  -0.37482  -0.37351
 Alpha  occ. eigenvalues --   -0.37001  -0.36820  -0.36551  -0.36494  -0.36411
 Alpha  occ. eigenvalues --   -0.36332  -0.36019  -0.35847  -0.35647  -0.35333
 Alpha  occ. eigenvalues --   -0.35285  -0.35073  -0.34891  -0.34780  -0.34702
 Alpha  occ. eigenvalues --   -0.34485  -0.34464  -0.34314  -0.34074  -0.33887
 Alpha  occ. eigenvalues --   -0.33733  -0.33676  -0.33528  -0.33462  -0.33166
 Alpha  occ. eigenvalues --   -0.32952  -0.32847  -0.32649  -0.32503  -0.32260
 Alpha  occ. eigenvalues --   -0.32097  -0.31961  -0.31768  -0.31574  -0.31487
 Alpha  occ. eigenvalues --   -0.31030  -0.30879  -0.30685  -0.30588  -0.30420
 Alpha  occ. eigenvalues --   -0.30183  -0.30145  -0.30002  -0.29848  -0.29646
 Alpha  occ. eigenvalues --   -0.29631  -0.29560  -0.29332  -0.29209  -0.29103
 Alpha  occ. eigenvalues --   -0.28920  -0.28773  -0.28434  -0.28231  -0.27930
 Alpha  occ. eigenvalues --   -0.27340  -0.27332  -0.27126  -0.26945  -0.26578
 Alpha  occ. eigenvalues --   -0.26136  -0.25984  -0.25752  -0.25620  -0.25168
 Alpha  occ. eigenvalues --   -0.24946  -0.24275  -0.24020  -0.23358  -0.23188
 Alpha  occ. eigenvalues --   -0.22906  -0.22032  -0.21857  -0.20624  -0.20402
 Alpha  occ. eigenvalues --   -0.20019  -0.19537  -0.18525  -0.17886  -0.17172
 Alpha  occ. eigenvalues --   -0.15903
 Alpha virt. eigenvalues --   -0.11615  -0.07030  -0.06034  -0.04422  -0.03338
 Alpha virt. eigenvalues --   -0.02402  -0.01806  -0.01629  -0.00975   0.00240
 Alpha virt. eigenvalues --    0.00551   0.01388   0.01882   0.02351   0.02934

 Mulliken charges:
               1
     1  Mg   0.701917
     2  C    0.060773
     3  C   -0.108412
     4  C   -0.011452
     5  C   -0.137904
     6  N   -0.222116
     7  C   -0.092721
     8  C    0.061236
     9  C   -0.017240
    10  C    0.040023
    11  C    0.141469
    12  C    0.099305
    13  C    0.176410
    14  C    0.085835
    15  O   -0.185909
    16  O   -0.304534
    17  N   -0.291558
    18  C    0.158169
    19  C   -0.137191
    20  C    0.011432
    21  C    0.102600
    22  C    0.146621
    23  C   -0.058406
    24  O   -0.203019
    25  C    0.127766
    26  N   -0.128975
    27  C   -0.029514
    28  C   -0.016341
    29  C    0.013554
    30  C    0.012315
    31  C    0.152810
    32  C    0.093245
    33  C    0.059467
    34  N   -0.211570
    35  C    0.143025
    36  C   -0.189513
    37  C    0.145617
    38  C    0.031439
    39  C    0.180926
    40  C   -0.068566
    41  O   -0.159215
    42  C    0.023124
    43  C    0.121864
    44  O   -0.176268
    45  O   -0.271940
    46  C    0.200804
    47  C    0.319213
    48  C   -0.088821
    49  C   -0.196346
    50  C    0.182342
    51  C    0.112001
    52  C    0.084367
    53  C    0.136611
    54  C   -0.092350
    55  C    0.104507
    56  C    0.087654
    57  C    0.012279
    58  C    0.212892
    59  C   -0.088181
    60  C    0.107385
    61  C    0.121142
    62  C    0.074156
    63  C    0.082029
    64  C   -0.137917
    65  C    0.084540
    66  C    0.098715
    67  H   -0.062492
    68  H   -0.037958
    69  H   -0.072308
    70  H   -0.035704
    71  H   -0.046532
    72  H   -0.008084
    73  H   -0.006482
    74  H   -0.006230
    75  H   -0.026393
    76  H    0.014844
    77  H   -0.004780
    78  H   -0.005633
    79  H   -0.020989
    80  H    0.006615
    81  H    0.013552
    82  H    0.009887
    83  H   -0.004521
    84  H    0.017674
    85  H   -0.014233
    86  H   -0.041858
    87  H    0.007576
    88  H   -0.017414
    89  H   -0.002619
    90  H   -0.020125
    91  H   -0.024445
    92  H   -0.012411
    93  H    0.001350
    94  H   -0.003806
    95  H    0.005300
    96  H   -0.004001
    97  H    0.011917
    98  H    0.002680
    99  H    0.014010
   100  H    0.027959
   101  H    0.022402
   102  H    0.020314
   103  H   -0.005959
   104  H   -0.038940
   105  H   -0.010944
   106  H   -0.014392
   107  H   -0.000983
   108  H   -0.043851
   109  H   -0.010250
   110  H   -0.030904
   111  H   -0.031075
   112  H   -0.026794
   113  H   -0.042965
   114  H   -0.044578
   115  H   -0.024668
   116  H   -0.020811
   117  H   -0.032682
   118  H   -0.034049
   119  H   -0.036701
   120  H   -0.037583
   121  H   -0.026268
   122  H   -0.024597
   123  H   -0.051941
   124  H   -0.023690
   125  H   -0.021580
   126  H   -0.019878
   127  H   -0.029885
   128  H   -0.031423
   129  H   -0.038060
   130  H   -0.024506
   131  H   -0.025350
   132  H   -0.038052
   133  H   -0.049112
   134  H   -0.028345
   135  H   -0.005989
   136  H   -0.007738
   137  H   -0.023389
   138  H   -0.010232
   139  H   -0.007830
   140  H   -0.006670
 Sum of Mulliken charges =  -0.00000

 Dipole moment (field-independent basis, Debye):
    X=             -2.0815    Y=              2.3022    Z=             -2.7789  Tot=              4.1659
 Quadrupole moment (field-independent basis, Debye-Ang):
   XX=           -371.4499   YY=           -424.2292   ZZ=           -403.7936
   XY=             -4.3994   XZ=             -4.8928   YZ=             -1.2824

 Normal termination of Gaussian 16 at Wed May  4 18:11:16 2022.
