 Gaussian 16, Revision A.03,
 Gaussian 16:  ES64L-G16RevA.03 25-Dec-2016

 -----------------------------------
 #p cam-b3lyp/Def2SVP td=(nstates=5)
 -----------------------------------

 -------------------------------------------------------
 step_201_chromophore_22 TDDFT with cam-b3lyp functional
 -------------------------------------------------------
 Symbolic Z-matrix:
 Charge =  0 Multiplicity = 1

                         Standard orientation:
 ---------------------------------------------------------------------
 Center     Atomic      Atomic             Coordinates (Angstroms)
 Number     Number       Type             X           Y           Z
 ---------------------------------------------------------------------
      1         12           0        6.195108    0.467839   -0.041937
      2          6           0        3.989946   -1.973164   -0.601003
      3          6           0        4.147071    2.773446   -1.569029
      4          6           0        8.554641    2.795807    0.389343
      5          6           0        8.650954   -1.966240    0.709974
      6          7           0        4.281900    0.442274   -0.847404
      7          6           0        3.530106   -0.719252   -0.995767
      8          6           0        2.219227   -0.390021   -1.640801
      9          6           0        2.536618    0.943400   -2.259348
     10          6           0        3.717702    1.449865   -1.450264
     11          6           0        2.919033    0.795730   -3.762370
     12          6           0        1.109842   -0.193297   -0.568705
     13          6           0       -0.291475   -0.385489   -0.965035
     14          6           0       -1.188128   -1.175067   -0.025592
     15          8           0       -0.806747   -1.815130    0.951437
     16          8           0       -2.577294   -1.091781   -0.279191
     17          7           0        6.229340    2.546775   -0.286329
     18          6           0        5.253258    3.302083   -0.912217
     19          6           0        5.534219    4.687607   -0.781383
     20          6           0        6.898796    4.794544   -0.200479
     21          6           0        7.274708    3.360560    0.048818
     22          6           0        4.524417    5.772867   -1.265766
     23          6           0        7.787024    6.018203    0.149661
     24          8           0        8.982665    5.878568    0.550729
     25          6           0        7.222220    7.452639   -0.041466
     26          7           0        8.401060    0.357472    0.365153
     27          6           0        9.096130    1.480879    0.417670
     28          6           0       10.549277    1.222605    0.837723
     29          6           0       10.418902   -0.294988    1.230158
     30          6           0        9.139617   -0.671387    0.702353
     31          6           0       11.619067    1.535513   -0.246883
     32          6           0       10.614614   -0.610706    2.758815
     33          6           0       11.453750   -1.850074    2.953359
     34          7           0        6.340548   -1.594763    0.125705
     35          6           0        7.356353   -2.399196    0.437364
     36          6           0        6.909355   -3.792290    0.374960
     37          6           0        5.530883   -3.668265    0.023156
     38          6           0        5.260438   -2.325685   -0.102926
     39          6           0        7.747568   -4.979477    0.527763
     40          6           0        4.322302   -4.336444   -0.150933
     41          8           0        3.973859   -5.493894    0.126628
     42          6           0        3.295850   -3.330677   -0.817697
     43          6           0        1.889390   -3.604714   -0.240055
     44          8           0        1.589733   -3.582622    0.957023
     45          8           0        1.146125   -3.992507   -1.296160
     46          6           0       -0.219115   -4.538231   -0.940917
     47          6           0       -3.400711   -1.893178    0.674810
     48          6           0       -4.897130   -1.754370    0.291653
     49          6           0       -5.864309   -2.745382    0.199888
     50          6           0       -5.798681   -4.102930    0.775393
     51          6           0       -7.244106   -2.348700   -0.354864
     52          6           0       -8.209104   -1.620284    0.643707
     53          6           0       -8.495605   -0.098833    0.355444
     54          6           0       -9.928104    0.203227   -0.084164
     55          6           0      -10.181466   -0.044355   -1.529940
     56          6           0      -10.419733    1.672142    0.249873
     57          6           0      -11.231159    1.550841    1.565496
     58          6           0      -11.961778    2.820214    1.889719
     59          6           0      -13.369007    2.427593    2.317670
     60          6           0      -13.859670    3.402875    3.420285
     61          6           0      -14.323838    2.576954    1.077443
     62          6           0      -15.169260    1.335966    1.001048
     63          6           0      -15.887844    1.311665   -0.393250
     64          6           0      -15.966289   -0.128950   -1.027259
     65          6           0      -14.837824   -0.100465   -2.079205
     66          6           0      -17.399113   -0.459887   -1.747275
     67          1           0        3.526608    3.505980   -2.088921
     68          1           0        9.410777    3.473575    0.415105
     69          1           0        9.444769   -2.695996    0.888372
     70          1           0        1.946793   -1.121893   -2.400365
     71          1           0        1.743094    1.690215   -2.224862
     72          1           0        3.414151   -0.140115   -4.022041
     73          1           0        3.588588    1.636081   -3.947841
     74          1           0        1.938564    0.748711   -4.236664
     75          1           0        1.118697    0.793452   -0.107288
     76          1           0        1.378301   -0.853955    0.255656
     77          1           0       -0.361203   -0.842679   -1.951810
     78          1           0       -0.775616    0.583096   -1.090571
     79          1           0        3.562069    5.315454   -1.494318
     80          1           0        4.819698    6.181949   -2.232508
     81          1           0        4.321942    6.550961   -0.528711
     82          1           0        7.826700    8.127575    0.564899
     83          1           0        6.177178    7.428647    0.267923
     84          1           0        7.255645    7.630458   -1.116062
     85          1           0       10.752092    1.850644    1.705292
     86          1           0       11.239886   -0.921258    0.881392
     87          1           0       11.090509    1.897523   -1.128686
     88          1           0       12.150429    0.590638   -0.360045
     89          1           0       12.346942    2.254513    0.128612
     90          1           0        9.650958   -0.747552    3.249539
     91          1           0       11.077811    0.260019    3.223255
     92          1           0       11.432287   -2.031749    4.028117
     93          1           0       12.474931   -1.683672    2.610626
     94          1           0       11.033648   -2.763008    2.530479
     95          1           0        7.116787   -5.849113    0.708444
     96          1           0        8.301901   -4.783444    1.444847
     97          1           0        8.409040   -5.168332   -0.317593
     98          1           0        3.262649   -3.443113   -1.900472
     99          1           0       -0.831295   -4.688474   -1.829593
    100          1           0       -0.782122   -3.874936   -0.283486
    101          1           0       -0.056249   -5.451083   -0.367232
    102          1           0       -3.308716   -1.721730    1.746636
    103          1           0       -3.112914   -2.928941    0.494355
    104          1           0       -5.267393   -0.830081   -0.151049
    105          1           0       -5.949308   -4.814368   -0.035829
    106          1           0       -6.692031   -4.322208    1.359664
    107          1           0       -4.888799   -4.174332    1.372226
    108          1           0       -7.830224   -3.225311   -0.628449
    109          1           0       -6.988738   -1.768899   -1.242088
    110          1           0       -7.755232   -1.659692    1.634200
    111          1           0       -9.103591   -2.232513    0.757745
    112          1           0       -7.795358    0.381318   -0.328011
    113          1           0       -8.335080    0.393042    1.314838
    114          1           0      -10.597860   -0.563080    0.305854
    115          1           0      -11.039541    0.509624   -1.907904
    116          1           0      -10.433605   -1.079401   -1.761448
    117          1           0       -9.326677    0.353488   -2.077570
    118          1           0      -11.037474    2.111948   -0.533444
    119          1           0       -9.513864    2.275427    0.311871
    120          1           0      -10.519156    1.295641    2.350633
    121          1           0      -11.807122    0.634848    1.438690
    122          1           0      -11.846524    3.462028    1.016517
    123          1           0      -11.467125    3.209858    2.779251
    124          1           0      -13.392306    1.428310    2.752898
    125          1           0      -14.910557    3.677213    3.334843
    126          1           0      -13.268151    4.315119    3.506386
    127          1           0      -13.722547    2.911362    4.383706
    128          1           0      -13.783928    2.822885    0.163137
    129          1           0      -14.959618    3.453283    1.195339
    130          1           0      -16.013100    1.220608    1.681435
    131          1           0      -14.632516    0.390137    1.067550
    132          1           0      -15.450263    1.942825   -1.166681
    133          1           0      -16.909122    1.676034   -0.292575
    134          1           0      -15.711264   -0.882847   -0.282723
    135          1           0      -13.975809    0.410151   -1.649484
    136          1           0      -15.242313    0.408954   -2.953115
    137          1           0      -14.508954   -1.099863   -2.365798
    138          1           0      -18.130604    0.321132   -1.540017
    139          1           0      -17.663802   -1.364381   -1.199228
    140          1           0      -17.272693   -0.605489   -2.819941
 ---------------------------------------------------------------------

 SCF Done:  E(RCAM-B3LYP) =  -3007.15327302     A.U. after   19 cycles

 Excitation energies and oscillator strengths:

 Excited State   1:      Singlet-A      1.7350 eV  714.60 nm  f=0.4009  <S**2>=0.000
     245 -> 248       -0.17598
     246 -> 247        0.68464
     245 <- 248       -0.10088
 This state for optimization and/or second-order correction.
 Total Energy, E(TD-HF/TD-DFT) =  -3007.08951276
 Copying the excited state density for this state as the 1-particle RhoCI density.

 Excited State   2:      Singlet-A      2.2088 eV  561.32 nm  f=0.1238  <S**2>=0.000
     245 -> 247        0.64572
     246 -> 248        0.26433

 Excited State   3:      Singlet-A      3.3099 eV  374.58 nm  f=0.0048  <S**2>=0.000
     241 -> 247       -0.14983
     242 -> 247        0.53580
     243 -> 247       -0.36886
     246 -> 248       -0.18450

 Excited State   4:      Singlet-A      3.4447 eV  359.93 nm  f=0.0000  <S**2>=0.000
     239 -> 247        0.46056
     239 -> 248       -0.19336
     239 -> 249        0.25696
     239 -> 250        0.16847
     240 -> 247       -0.15317
     241 -> 247       -0.23927
     241 -> 249        0.12206
     241 -> 250       -0.10989
     242 -> 247       -0.11238

 Excited State   5:      Singlet-A      3.4489 eV  359.48 nm  f=0.0118  <S**2>=0.000
     239 -> 247        0.23875
     239 -> 249        0.12327
     241 -> 247        0.48229
     241 -> 249       -0.24794
     241 -> 250        0.20547
     242 -> 247        0.15046

 The electronic state is 1-A.
 Alpha  occ. eigenvalues --  -46.88500 -19.25107 -19.24698 -19.19925 -19.19104
 Alpha  occ. eigenvalues --  -19.18336 -19.17463 -14.42089 -14.41294 -14.39604
 Alpha  occ. eigenvalues --  -14.38740 -10.39681 -10.38248 -10.36136 -10.33542
 Alpha  occ. eigenvalues --  -10.32420 -10.31252 -10.31221 -10.30791 -10.30674
 Alpha  occ. eigenvalues --  -10.30480 -10.29855 -10.29605 -10.29317 -10.28940
 Alpha  occ. eigenvalues --  -10.28853 -10.28109 -10.28035 -10.27949 -10.27773
 Alpha  occ. eigenvalues --  -10.27683 -10.27677 -10.27379 -10.27371 -10.27312
 Alpha  occ. eigenvalues --  -10.27202 -10.26764 -10.26672 -10.26651 -10.26482
 Alpha  occ. eigenvalues --  -10.26382 -10.26355 -10.26181 -10.26120 -10.25980
 Alpha  occ. eigenvalues --  -10.25885 -10.25859 -10.25845 -10.25788 -10.25680
 Alpha  occ. eigenvalues --  -10.25670 -10.25593 -10.25263 -10.25169 -10.24874
 Alpha  occ. eigenvalues --  -10.24849 -10.24819 -10.24657 -10.24636 -10.24253
 Alpha  occ. eigenvalues --  -10.24180 -10.24126 -10.24101 -10.23978 -10.23820
 Alpha  occ. eigenvalues --  -10.23677  -3.17091  -1.92010  -1.91553  -1.91382
 Alpha  occ. eigenvalues --   -1.15125  -1.14977  -1.07706  -1.07536  -1.06523
 Alpha  occ. eigenvalues --   -1.06205  -1.05944  -1.05630  -1.04624  -1.02485
 Alpha  occ. eigenvalues --   -0.92683  -0.90880  -0.90581  -0.89793  -0.89577
 Alpha  occ. eigenvalues --   -0.88671  -0.88569  -0.87802  -0.87261  -0.87015
 Alpha  occ. eigenvalues --   -0.86518  -0.85846  -0.84000  -0.83897  -0.83080
 Alpha  occ. eigenvalues --   -0.82402  -0.82274  -0.81125  -0.80812  -0.80372
 Alpha  occ. eigenvalues --   -0.80025  -0.78689  -0.78074  -0.77610  -0.76062
 Alpha  occ. eigenvalues --   -0.75864  -0.75403  -0.74972  -0.74278  -0.73645
 Alpha  occ. eigenvalues --   -0.73266  -0.72628  -0.71540  -0.70495  -0.69172
 Alpha  occ. eigenvalues --   -0.68830  -0.67576  -0.67371  -0.66634  -0.66278
 Alpha  occ. eigenvalues --   -0.65831  -0.65274  -0.64729  -0.64619  -0.64585
 Alpha  occ. eigenvalues --   -0.62994  -0.62624  -0.62299  -0.61919  -0.60746
 Alpha  occ. eigenvalues --   -0.60026  -0.59364  -0.58839  -0.58727  -0.58157
 Alpha  occ. eigenvalues --   -0.57131  -0.56625  -0.56148  -0.55937  -0.55264
 Alpha  occ. eigenvalues --   -0.55020  -0.54636  -0.54351  -0.54237  -0.54076
 Alpha  occ. eigenvalues --   -0.53601  -0.53391  -0.53185  -0.52766  -0.52504
 Alpha  occ. eigenvalues --   -0.52242  -0.52003  -0.51922  -0.51905  -0.51758
 Alpha  occ. eigenvalues --   -0.51541  -0.51431  -0.51245  -0.51094  -0.50844
 Alpha  occ. eigenvalues --   -0.50641  -0.50431  -0.50195  -0.49950  -0.49567
 Alpha  occ. eigenvalues --   -0.49249  -0.49115  -0.49048  -0.48828  -0.48630
 Alpha  occ. eigenvalues --   -0.48444  -0.48175  -0.47875  -0.47796  -0.47670
 Alpha  occ. eigenvalues --   -0.47627  -0.47133  -0.46995  -0.46708  -0.46595
 Alpha  occ. eigenvalues --   -0.46477  -0.46340  -0.46183  -0.46070  -0.45584
 Alpha  occ. eigenvalues --   -0.45409  -0.45352  -0.45324  -0.45295  -0.44909
 Alpha  occ. eigenvalues --   -0.44736  -0.44595  -0.44336  -0.44267  -0.44095
 Alpha  occ. eigenvalues --   -0.43852  -0.43549  -0.43412  -0.43218  -0.43081
 Alpha  occ. eigenvalues --   -0.42544  -0.42442  -0.42055  -0.42015  -0.41864
 Alpha  occ. eigenvalues --   -0.41634  -0.41458  -0.41343  -0.41167  -0.41010
 Alpha  occ. eigenvalues --   -0.40949  -0.40830  -0.40606  -0.40469  -0.40282
 Alpha  occ. eigenvalues --   -0.40256  -0.39852  -0.39397  -0.39161  -0.38818
 Alpha  occ. eigenvalues --   -0.38271  -0.38212  -0.37964  -0.37807  -0.37712
 Alpha  occ. eigenvalues --   -0.36982  -0.36792  -0.36666  -0.36503  -0.36484
 Alpha  occ. eigenvalues --   -0.35565  -0.35535  -0.34321  -0.34073  -0.33740
 Alpha  occ. eigenvalues --   -0.33538  -0.33194  -0.32493  -0.31079  -0.30912
 Alpha  occ. eigenvalues --   -0.29907  -0.29731  -0.29433  -0.29049  -0.23972
 Alpha  occ. eigenvalues --   -0.21246
 Alpha virt. eigenvalues --   -0.08797  -0.01742   0.00214   0.02489   0.03278
 Alpha virt. eigenvalues --    0.04606   0.05055   0.05385   0.06306   0.06615
 Alpha virt. eigenvalues --    0.07741   0.07816   0.08340   0.08950   0.09137

 Mulliken charges:
               1
     1  Mg   0.837272
     2  C    0.028362
     3  C   -0.122746
     4  C   -0.029038
     5  C   -0.132872
     6  N   -0.297638
     7  C   -0.044471
     8  C   -0.000225
     9  C   -0.074742
    10  C    0.062032
    11  C    0.087716
    12  C    0.042683
    13  C    0.104303
    14  C    0.166500
    15  O   -0.225040
    16  O   -0.368930
    17  N   -0.380719
    18  C    0.165378
    19  C   -0.144706
    20  C   -0.050204
    21  C    0.127330
    22  C    0.093997
    23  C    0.018397
    24  O   -0.241998
    25  C    0.055995
    26  N   -0.199886
    27  C   -0.006440
    28  C   -0.072023
    29  C   -0.049221
    30  C    0.030021
    31  C    0.095533
    32  C    0.041520
    33  C   -0.004438
    34  N   -0.304705
    35  C    0.139701
    36  C   -0.176062
    37  C    0.060298
    38  C    0.065743
    39  C    0.124968
    40  C    0.030404
    41  O   -0.199990
    42  C   -0.044885
    43  C    0.204309
    44  O   -0.213153
    45  O   -0.335769
    46  C    0.166954
    47  C    0.291666
    48  C   -0.109094
    49  C   -0.212268
    50  C    0.113561
    51  C    0.051621
    52  C    0.031691
    53  C    0.081310
    54  C   -0.150749
    55  C    0.050723
    56  C    0.036615
    57  C   -0.030452
    58  C    0.146256
    59  C   -0.147524
    60  C    0.050723
    61  C    0.067160
    62  C    0.020377
    63  C    0.030558
    64  C   -0.193595
    65  C    0.031144
    66  C    0.041827
    67  H   -0.026786
    68  H   -0.000682
    69  H   -0.035726
    70  H    0.001573
    71  H   -0.010724
    72  H    0.016971
    73  H    0.018155
    74  H    0.018464
    75  H    0.005366
    76  H    0.049532
    77  H    0.027262
    78  H    0.028065
    79  H    0.007353
    80  H    0.034291
    81  H    0.038943
    82  H    0.043658
    83  H    0.020394
    84  H    0.044703
    85  H    0.020980
    86  H   -0.005353
    87  H    0.031855
    88  H    0.007526
    89  H    0.021717
    90  H    0.009695
    91  H    0.003838
    92  H    0.013569
    93  H    0.023324
    94  H    0.016736
    95  H    0.033760
    96  H    0.018658
    97  H    0.037386
    98  H    0.044741
    99  H    0.037602
   100  H    0.044676
   101  H    0.047779
   102  H    0.047821
   103  H    0.018041
   104  H   -0.006402
   105  H    0.015201
   106  H    0.010800
   107  H    0.022110
   108  H   -0.012344
   109  H    0.018095
   110  H   -0.000477
   111  H   -0.002639
   112  H   -0.001185
   113  H   -0.012183
   114  H   -0.013559
   115  H   -0.001095
   116  H    0.003026
   117  H   -0.009061
   118  H   -0.007373
   119  H   -0.008066
   120  H   -0.009850
   121  H   -0.001743
   122  H    0.004076
   123  H   -0.018539
   124  H    0.008727
   125  H    0.002661
   126  H    0.004673
   127  H   -0.004921
   128  H   -0.005328
   129  H   -0.007908
   130  H    0.004243
   131  H   -0.000644
   132  H   -0.009687
   133  H   -0.019895
   134  H    0.001497
   135  H    0.011406
   136  H    0.014237
   137  H    0.001713
   138  H    0.012779
   139  H    0.015167
   140  H    0.016262
 Sum of Mulliken charges =  -0.00000

 Dipole moment (field-independent basis, Debye):
    X=             -2.0620    Y=              3.3999    Z=             -3.0923  Tot=              5.0372
 Quadrupole moment (field-independent basis, Debye-Ang):
   XX=           -369.8059   YY=           -418.4714   ZZ=           -403.7756
   XY=              1.8268   XZ=             -4.9116   YZ=             -1.4980

 Normal termination of Gaussian 16 at Wed May  4 16:36:15 2022.
