 Gaussian 16, Revision A.03,
 Gaussian 16:  ES64L-G16RevA.03 25-Dec-2016

 ---------------------------------
 #p PBE1PBE/Def2SVP td=(nstates=5)
 ---------------------------------

 -----------------------------------------------------
 step_201_chromophore_22 TDDFT with PBE1PBE functional
 -----------------------------------------------------
 Symbolic Z-matrix:
 Charge =  0 Multiplicity = 1

                         Standard orientation:
 ---------------------------------------------------------------------
 Center     Atomic      Atomic             Coordinates (Angstroms)
 Number     Number       Type             X           Y           Z
 ---------------------------------------------------------------------
      1         12           0        6.195108    0.467839   -0.041937
      2          6           0        3.989946   -1.973164   -0.601003
      3          6           0        4.147071    2.773446   -1.569029
      4          6           0        8.554641    2.795807    0.389343
      5          6           0        8.650954   -1.966240    0.709974
      6          7           0        4.281900    0.442274   -0.847404
      7          6           0        3.530106   -0.719252   -0.995767
      8          6           0        2.219227   -0.390021   -1.640801
      9          6           0        2.536618    0.943400   -2.259348
     10          6           0        3.717702    1.449865   -1.450264
     11          6           0        2.919033    0.795730   -3.762370
     12          6           0        1.109842   -0.193297   -0.568705
     13          6           0       -0.291475   -0.385489   -0.965035
     14          6           0       -1.188128   -1.175067   -0.025592
     15          8           0       -0.806747   -1.815130    0.951437
     16          8           0       -2.577294   -1.091781   -0.279191
     17          7           0        6.229340    2.546775   -0.286329
     18          6           0        5.253258    3.302083   -0.912217
     19          6           0        5.534219    4.687607   -0.781383
     20          6           0        6.898796    4.794544   -0.200479
     21          6           0        7.274708    3.360560    0.048818
     22          6           0        4.524417    5.772867   -1.265766
     23          6           0        7.787024    6.018203    0.149661
     24          8           0        8.982665    5.878568    0.550729
     25          6           0        7.222220    7.452639   -0.041466
     26          7           0        8.401060    0.357472    0.365153
     27          6           0        9.096130    1.480879    0.417670
     28          6           0       10.549277    1.222605    0.837723
     29          6           0       10.418902   -0.294988    1.230158
     30          6           0        9.139617   -0.671387    0.702353
     31          6           0       11.619067    1.535513   -0.246883
     32          6           0       10.614614   -0.610706    2.758815
     33          6           0       11.453750   -1.850074    2.953359
     34          7           0        6.340548   -1.594763    0.125705
     35          6           0        7.356353   -2.399196    0.437364
     36          6           0        6.909355   -3.792290    0.374960
     37          6           0        5.530883   -3.668265    0.023156
     38          6           0        5.260438   -2.325685   -0.102926
     39          6           0        7.747568   -4.979477    0.527763
     40          6           0        4.322302   -4.336444   -0.150933
     41          8           0        3.973859   -5.493894    0.126628
     42          6           0        3.295850   -3.330677   -0.817697
     43          6           0        1.889390   -3.604714   -0.240055
     44          8           0        1.589733   -3.582622    0.957023
     45          8           0        1.146125   -3.992507   -1.296160
     46          6           0       -0.219115   -4.538231   -0.940917
     47          6           0       -3.400711   -1.893178    0.674810
     48          6           0       -4.897130   -1.754370    0.291653
     49          6           0       -5.864309   -2.745382    0.199888
     50          6           0       -5.798681   -4.102930    0.775393
     51          6           0       -7.244106   -2.348700   -0.354864
     52          6           0       -8.209104   -1.620284    0.643707
     53          6           0       -8.495605   -0.098833    0.355444
     54          6           0       -9.928104    0.203227   -0.084164
     55          6           0      -10.181466   -0.044355   -1.529940
     56          6           0      -10.419733    1.672142    0.249873
     57          6           0      -11.231159    1.550841    1.565496
     58          6           0      -11.961778    2.820214    1.889719
     59          6           0      -13.369007    2.427593    2.317670
     60          6           0      -13.859670    3.402875    3.420285
     61          6           0      -14.323838    2.576954    1.077443
     62          6           0      -15.169260    1.335966    1.001048
     63          6           0      -15.887844    1.311665   -0.393250
     64          6           0      -15.966289   -0.128950   -1.027259
     65          6           0      -14.837824   -0.100465   -2.079205
     66          6           0      -17.399113   -0.459887   -1.747275
     67          1           0        3.526608    3.505980   -2.088921
     68          1           0        9.410777    3.473575    0.415105
     69          1           0        9.444769   -2.695996    0.888372
     70          1           0        1.946793   -1.121893   -2.400365
     71          1           0        1.743094    1.690215   -2.224862
     72          1           0        3.414151   -0.140115   -4.022041
     73          1           0        3.588588    1.636081   -3.947841
     74          1           0        1.938564    0.748711   -4.236664
     75          1           0        1.118697    0.793452   -0.107288
     76          1           0        1.378301   -0.853955    0.255656
     77          1           0       -0.361203   -0.842679   -1.951810
     78          1           0       -0.775616    0.583096   -1.090571
     79          1           0        3.562069    5.315454   -1.494318
     80          1           0        4.819698    6.181949   -2.232508
     81          1           0        4.321942    6.550961   -0.528711
     82          1           0        7.826700    8.127575    0.564899
     83          1           0        6.177178    7.428647    0.267923
     84          1           0        7.255645    7.630458   -1.116062
     85          1           0       10.752092    1.850644    1.705292
     86          1           0       11.239886   -0.921258    0.881392
     87          1           0       11.090509    1.897523   -1.128686
     88          1           0       12.150429    0.590638   -0.360045
     89          1           0       12.346942    2.254513    0.128612
     90          1           0        9.650958   -0.747552    3.249539
     91          1           0       11.077811    0.260019    3.223255
     92          1           0       11.432287   -2.031749    4.028117
     93          1           0       12.474931   -1.683672    2.610626
     94          1           0       11.033648   -2.763008    2.530479
     95          1           0        7.116787   -5.849113    0.708444
     96          1           0        8.301901   -4.783444    1.444847
     97          1           0        8.409040   -5.168332   -0.317593
     98          1           0        3.262649   -3.443113   -1.900472
     99          1           0       -0.831295   -4.688474   -1.829593
    100          1           0       -0.782122   -3.874936   -0.283486
    101          1           0       -0.056249   -5.451083   -0.367232
    102          1           0       -3.308716   -1.721730    1.746636
    103          1           0       -3.112914   -2.928941    0.494355
    104          1           0       -5.267393   -0.830081   -0.151049
    105          1           0       -5.949308   -4.814368   -0.035829
    106          1           0       -6.692031   -4.322208    1.359664
    107          1           0       -4.888799   -4.174332    1.372226
    108          1           0       -7.830224   -3.225311   -0.628449
    109          1           0       -6.988738   -1.768899   -1.242088
    110          1           0       -7.755232   -1.659692    1.634200
    111          1           0       -9.103591   -2.232513    0.757745
    112          1           0       -7.795358    0.381318   -0.328011
    113          1           0       -8.335080    0.393042    1.314838
    114          1           0      -10.597860   -0.563080    0.305854
    115          1           0      -11.039541    0.509624   -1.907904
    116          1           0      -10.433605   -1.079401   -1.761448
    117          1           0       -9.326677    0.353488   -2.077570
    118          1           0      -11.037474    2.111948   -0.533444
    119          1           0       -9.513864    2.275427    0.311871
    120          1           0      -10.519156    1.295641    2.350633
    121          1           0      -11.807122    0.634848    1.438690
    122          1           0      -11.846524    3.462028    1.016517
    123          1           0      -11.467125    3.209858    2.779251
    124          1           0      -13.392306    1.428310    2.752898
    125          1           0      -14.910557    3.677213    3.334843
    126          1           0      -13.268151    4.315119    3.506386
    127          1           0      -13.722547    2.911362    4.383706
    128          1           0      -13.783928    2.822885    0.163137
    129          1           0      -14.959618    3.453283    1.195339
    130          1           0      -16.013100    1.220608    1.681435
    131          1           0      -14.632516    0.390137    1.067550
    132          1           0      -15.450263    1.942825   -1.166681
    133          1           0      -16.909122    1.676034   -0.292575
    134          1           0      -15.711264   -0.882847   -0.282723
    135          1           0      -13.975809    0.410151   -1.649484
    136          1           0      -15.242313    0.408954   -2.953115
    137          1           0      -14.508954   -1.099863   -2.365798
    138          1           0      -18.130604    0.321132   -1.540017
    139          1           0      -17.663802   -1.364381   -1.199228
    140          1           0      -17.272693   -0.605489   -2.819941
 ---------------------------------------------------------------------

 SCF Done:  E(RPBE1PBE) =  -3005.34318466     A.U. after   15 cycles

 Excitation energies and oscillator strengths:

 Excited State   1:      Singlet-A      1.8774 eV  660.41 nm  f=0.3837  <S**2>=0.000
     245 -> 248       -0.16688
     246 -> 247        0.69201
     246 <- 247       -0.10874
 This state for optimization and/or second-order correction.
 Total Energy, E(TD-HF/TD-DFT) =  -3005.27419201
 Copying the excited state density for this state as the 1-particle RhoCI density.

 Excited State   2:      Singlet-A      2.1997 eV  563.64 nm  f=0.1189  <S**2>=0.000
     245 -> 247        0.65749
     246 -> 248        0.23287

 Excited State   3:      Singlet-A      2.8531 eV  434.56 nm  f=0.0004  <S**2>=0.000
     243 -> 247        0.67809
     243 -> 249        0.15609
     243 -> 250       -0.10383

 Excited State   4:      Singlet-A      2.9739 eV  416.90 nm  f=0.0004  <S**2>=0.000
     240 -> 247        0.61034
     240 -> 248        0.13915
     240 -> 249       -0.13822
     242 -> 247       -0.25869

 Excited State   5:      Singlet-A      3.0195 eV  410.61 nm  f=0.0027  <S**2>=0.000
     240 -> 247        0.26262
     241 -> 247       -0.11131
     242 -> 247        0.63505

 The electronic state is 1-A.
 Alpha  occ. eigenvalues --  -46.91886 -19.25836 -19.25404 -19.20211 -19.19167
 Alpha  occ. eigenvalues --  -19.18670 -19.17876 -14.41630 -14.40683 -14.39217
 Alpha  occ. eigenvalues --  -14.38435 -10.36740 -10.35363 -10.33140 -10.30817
 Alpha  occ. eigenvalues --  -10.29852 -10.28787 -10.28646 -10.28515 -10.28235
 Alpha  occ. eigenvalues --  -10.28098 -10.27328 -10.27100 -10.27088 -10.26825
 Alpha  occ. eigenvalues --  -10.26419 -10.25841 -10.25600 -10.25581 -10.25548
 Alpha  occ. eigenvalues --  -10.25544 -10.25263 -10.25197 -10.25102 -10.25073
 Alpha  occ. eigenvalues --  -10.24867 -10.24533 -10.24311 -10.24081 -10.24063
 Alpha  occ. eigenvalues --  -10.23885 -10.23822 -10.23795 -10.23764 -10.23598
 Alpha  occ. eigenvalues --  -10.23584 -10.23371 -10.23312 -10.23247 -10.23235
 Alpha  occ. eigenvalues --  -10.23177 -10.23133 -10.22896 -10.22842 -10.22536
 Alpha  occ. eigenvalues --  -10.22404 -10.22272 -10.22256 -10.22197 -10.22046
 Alpha  occ. eigenvalues --  -10.21720 -10.21642 -10.21641 -10.21538 -10.21224
 Alpha  occ. eigenvalues --  -10.21050  -3.14056  -1.86917  -1.86438  -1.86270
 Alpha  occ. eigenvalues --   -1.09935  -1.09809  -1.02569  -1.02074  -1.01398
 Alpha  occ. eigenvalues --   -1.00878  -1.00834  -1.00262  -0.99448  -0.97041
 Alpha  occ. eigenvalues --   -0.87161  -0.85150  -0.84683  -0.83914  -0.83903
 Alpha  occ. eigenvalues --   -0.82873  -0.82793  -0.82148  -0.81397  -0.81362
 Alpha  occ. eigenvalues --   -0.80793  -0.79997  -0.78216  -0.78120  -0.77383
 Alpha  occ. eigenvalues --   -0.76645  -0.76532  -0.75210  -0.75043  -0.74671
 Alpha  occ. eigenvalues --   -0.74178  -0.73022  -0.72342  -0.71838  -0.70339
 Alpha  occ. eigenvalues --   -0.70112  -0.69764  -0.69057  -0.68438  -0.67821
 Alpha  occ. eigenvalues --   -0.67642  -0.67038  -0.65979  -0.64807  -0.63652
 Alpha  occ. eigenvalues --   -0.63241  -0.61933  -0.61617  -0.60852  -0.60711
 Alpha  occ. eigenvalues --   -0.60338  -0.59438  -0.59312  -0.59123  -0.58749
 Alpha  occ. eigenvalues --   -0.57258  -0.57102  -0.56547  -0.56501  -0.55260
 Alpha  occ. eigenvalues --   -0.54516  -0.53949  -0.53416  -0.53259  -0.52850
 Alpha  occ. eigenvalues --   -0.51550  -0.51199  -0.50596  -0.50421  -0.49828
 Alpha  occ. eigenvalues --   -0.49522  -0.49046  -0.48842  -0.48758  -0.48577
 Alpha  occ. eigenvalues --   -0.48046  -0.47919  -0.47756  -0.47272  -0.47064
 Alpha  occ. eigenvalues --   -0.46892  -0.46572  -0.46423  -0.46385  -0.46125
 Alpha  occ. eigenvalues --   -0.46080  -0.45999  -0.45819  -0.45622  -0.45410
 Alpha  occ. eigenvalues --   -0.45178  -0.45044  -0.44773  -0.44465  -0.44131
 Alpha  occ. eigenvalues --   -0.43893  -0.43638  -0.43574  -0.43439  -0.43265
 Alpha  occ. eigenvalues --   -0.43034  -0.42797  -0.42507  -0.42380  -0.42340
 Alpha  occ. eigenvalues --   -0.42232  -0.41812  -0.41711  -0.41394  -0.41301
 Alpha  occ. eigenvalues --   -0.41191  -0.40978  -0.40829  -0.40764  -0.40237
 Alpha  occ. eigenvalues --   -0.40156  -0.40069  -0.40056  -0.39948  -0.39702
 Alpha  occ. eigenvalues --   -0.39530  -0.39351  -0.39140  -0.38969  -0.38824
 Alpha  occ. eigenvalues --   -0.38672  -0.38338  -0.38185  -0.38044  -0.37817
 Alpha  occ. eigenvalues --   -0.37408  -0.37219  -0.36884  -0.36733  -0.36618
 Alpha  occ. eigenvalues --   -0.36479  -0.36193  -0.36142  -0.35932  -0.35831
 Alpha  occ. eigenvalues --   -0.35758  -0.35703  -0.35476  -0.35420  -0.35189
 Alpha  occ. eigenvalues --   -0.35028  -0.34673  -0.34179  -0.34116  -0.33602
 Alpha  occ. eigenvalues --   -0.33229  -0.32998  -0.32824  -0.32794  -0.32517
 Alpha  occ. eigenvalues --   -0.32008  -0.31760  -0.31599  -0.31495  -0.31293
 Alpha  occ. eigenvalues --   -0.30581  -0.30342  -0.29526  -0.29270  -0.28855
 Alpha  occ. eigenvalues --   -0.28548  -0.28191  -0.27605  -0.26498  -0.25664
 Alpha  occ. eigenvalues --   -0.25361  -0.25150  -0.24823  -0.24388  -0.20890
 Alpha  occ. eigenvalues --   -0.18866
 Alpha virt. eigenvalues --   -0.11243  -0.05302  -0.03907  -0.01897  -0.00023
 Alpha virt. eigenvalues --    0.00502   0.00628   0.01530   0.01763   0.02806
 Alpha virt. eigenvalues --    0.03411   0.04479   0.04674   0.05201   0.05951

 Mulliken charges:
               1
     1  Mg   0.986301
     2  C    0.016832
     3  C   -0.106773
     4  C   -0.027487
     5  C   -0.116003
     6  N   -0.410123
     7  C    0.033494
     8  C   -0.086454
     9  C   -0.153946
    10  C    0.103445
    11  C    0.032268
    12  C    0.001449
    13  C    0.031370
    14  C    0.226883
    15  O   -0.255058
    16  O   -0.398397
    17  N   -0.492639
    18  C    0.178760
    19  C   -0.165591
    20  C   -0.093332
    21  C    0.157709
    22  C    0.036381
    23  C    0.062509
    24  O   -0.277404
    25  C   -0.016944
    26  N   -0.310094
    27  C    0.033437
    28  C   -0.150994
    29  C   -0.127691
    30  C    0.076213
    31  C    0.037794
    32  C   -0.012371
    33  C   -0.083812
    34  N   -0.441937
    35  C    0.162833
    36  C   -0.186895
    37  C    0.007714
    38  C    0.120651
    39  C    0.068340
    40  C    0.125959
    41  O   -0.242934
    42  C   -0.152998
    43  C    0.293424
    44  O   -0.247771
    45  O   -0.367130
    46  C    0.105699
    47  C    0.245828
    48  C   -0.118306
    49  C   -0.255162
    50  C    0.046601
    51  C   -0.013226
    52  C   -0.025283
    53  C    0.026436
    54  C   -0.239984
    55  C   -0.005074
    56  C   -0.019123
    57  C   -0.085754
    58  C    0.082965
    59  C   -0.240528
    60  C   -0.006453
    61  C    0.018587
    62  C   -0.044170
    63  C   -0.022153
    64  C   -0.280146
    65  C   -0.038035
    66  C   -0.018764
    67  H    0.004212
    68  H    0.030975
    69  H   -0.003239
    70  H    0.037587
    71  H    0.025648
    72  H    0.044424
    73  H    0.047286
    74  H    0.047014
    75  H    0.038606
    76  H    0.082383
    77  H    0.058209
    78  H    0.059643
    79  H    0.033300
    80  H    0.061431
    81  H    0.064747
    82  H    0.069199
    83  H    0.047725
    84  H    0.071079
    85  H    0.056863
    86  H    0.033745
    87  H    0.059399
    88  H    0.035239
    89  H    0.048963
    90  H    0.043019
    91  H    0.037473
    92  H    0.043193
    93  H    0.051524
    94  H    0.045166
    95  H    0.062299
    96  H    0.046765
    97  H    0.065461
    98  H    0.082427
    99  H    0.059450
   100  H    0.073424
   101  H    0.069997
   102  H    0.073863
   103  H    0.047738
   104  H    0.024888
   105  H    0.044135
   106  H    0.039358
   107  H    0.048764
   108  H    0.020891
   109  H    0.049768
   110  H    0.032472
   111  H    0.027591
   112  H    0.029214
   113  H    0.021840
   114  H    0.024174
   115  H    0.027915
   116  H    0.030182
   117  H    0.018935
   118  H    0.024355
   119  H    0.025074
   120  H    0.024191
   121  H    0.031181
   122  H    0.035497
   123  H    0.016871
   124  H    0.044549
   125  H    0.029935
   126  H    0.031697
   127  H    0.023766
   128  H    0.025431
   129  H    0.024726
   130  H    0.037086
   131  H    0.031761
   132  H    0.022156
   133  H    0.013638
   134  H    0.037364
   135  H    0.043761
   136  H    0.042251
   137  H    0.030691
   138  H    0.039364
   139  H    0.042779
   140  H    0.042569
 Sum of Mulliken charges =  -0.00000

 Dipole moment (field-independent basis, Debye):
    X=             -2.0571    Y=              2.9218    Z=             -3.0311  Tot=              4.6857
 Quadrupole moment (field-independent basis, Debye-Ang):
   XX=           -363.8080   YY=           -416.5395   ZZ=           -400.9487
   XY=             -1.7632   XZ=             -3.7704   YZ=             -1.9564

 Normal termination of Gaussian 16 at Wed May  4 17:05:16 2022.
