 Gaussian 16, Revision A.03,
 Gaussian 16:  ES64L-G16RevA.03 25-Dec-2016

 --------------------------------
 #p wB97XD/Def2SVP td=(nstates=5)
 --------------------------------

 ----------------------------------------------------
 step_201_chromophore_22 TDDFT with wB97XD functional
 ----------------------------------------------------
 Symbolic Z-matrix:
 Charge =  0 Multiplicity = 1

                         Standard orientation:
 ---------------------------------------------------------------------
 Center     Atomic      Atomic             Coordinates (Angstroms)
 Number     Number       Type             X           Y           Z
 ---------------------------------------------------------------------
      1         12           0        6.195108    0.467839   -0.041937
      2          6           0        3.989946   -1.973164   -0.601003
      3          6           0        4.147071    2.773446   -1.569029
      4          6           0        8.554641    2.795807    0.389343
      5          6           0        8.650954   -1.966240    0.709974
      6          7           0        4.281900    0.442274   -0.847404
      7          6           0        3.530106   -0.719252   -0.995767
      8          6           0        2.219227   -0.390021   -1.640801
      9          6           0        2.536618    0.943400   -2.259348
     10          6           0        3.717702    1.449865   -1.450264
     11          6           0        2.919033    0.795730   -3.762370
     12          6           0        1.109842   -0.193297   -0.568705
     13          6           0       -0.291475   -0.385489   -0.965035
     14          6           0       -1.188128   -1.175067   -0.025592
     15          8           0       -0.806747   -1.815130    0.951437
     16          8           0       -2.577294   -1.091781   -0.279191
     17          7           0        6.229340    2.546775   -0.286329
     18          6           0        5.253258    3.302083   -0.912217
     19          6           0        5.534219    4.687607   -0.781383
     20          6           0        6.898796    4.794544   -0.200479
     21          6           0        7.274708    3.360560    0.048818
     22          6           0        4.524417    5.772867   -1.265766
     23          6           0        7.787024    6.018203    0.149661
     24          8           0        8.982665    5.878568    0.550729
     25          6           0        7.222220    7.452639   -0.041466
     26          7           0        8.401060    0.357472    0.365153
     27          6           0        9.096130    1.480879    0.417670
     28          6           0       10.549277    1.222605    0.837723
     29          6           0       10.418902   -0.294988    1.230158
     30          6           0        9.139617   -0.671387    0.702353
     31          6           0       11.619067    1.535513   -0.246883
     32          6           0       10.614614   -0.610706    2.758815
     33          6           0       11.453750   -1.850074    2.953359
     34          7           0        6.340548   -1.594763    0.125705
     35          6           0        7.356353   -2.399196    0.437364
     36          6           0        6.909355   -3.792290    0.374960
     37          6           0        5.530883   -3.668265    0.023156
     38          6           0        5.260438   -2.325685   -0.102926
     39          6           0        7.747568   -4.979477    0.527763
     40          6           0        4.322302   -4.336444   -0.150933
     41          8           0        3.973859   -5.493894    0.126628
     42          6           0        3.295850   -3.330677   -0.817697
     43          6           0        1.889390   -3.604714   -0.240055
     44          8           0        1.589733   -3.582622    0.957023
     45          8           0        1.146125   -3.992507   -1.296160
     46          6           0       -0.219115   -4.538231   -0.940917
     47          6           0       -3.400711   -1.893178    0.674810
     48          6           0       -4.897130   -1.754370    0.291653
     49          6           0       -5.864309   -2.745382    0.199888
     50          6           0       -5.798681   -4.102930    0.775393
     51          6           0       -7.244106   -2.348700   -0.354864
     52          6           0       -8.209104   -1.620284    0.643707
     53          6           0       -8.495605   -0.098833    0.355444
     54          6           0       -9.928104    0.203227   -0.084164
     55          6           0      -10.181466   -0.044355   -1.529940
     56          6           0      -10.419733    1.672142    0.249873
     57          6           0      -11.231159    1.550841    1.565496
     58          6           0      -11.961778    2.820214    1.889719
     59          6           0      -13.369007    2.427593    2.317670
     60          6           0      -13.859670    3.402875    3.420285
     61          6           0      -14.323838    2.576954    1.077443
     62          6           0      -15.169260    1.335966    1.001048
     63          6           0      -15.887844    1.311665   -0.393250
     64          6           0      -15.966289   -0.128950   -1.027259
     65          6           0      -14.837824   -0.100465   -2.079205
     66          6           0      -17.399113   -0.459887   -1.747275
     67          1           0        3.526608    3.505980   -2.088921
     68          1           0        9.410777    3.473575    0.415105
     69          1           0        9.444769   -2.695996    0.888372
     70          1           0        1.946793   -1.121893   -2.400365
     71          1           0        1.743094    1.690215   -2.224862
     72          1           0        3.414151   -0.140115   -4.022041
     73          1           0        3.588588    1.636081   -3.947841
     74          1           0        1.938564    0.748711   -4.236664
     75          1           0        1.118697    0.793452   -0.107288
     76          1           0        1.378301   -0.853955    0.255656
     77          1           0       -0.361203   -0.842679   -1.951810
     78          1           0       -0.775616    0.583096   -1.090571
     79          1           0        3.562069    5.315454   -1.494318
     80          1           0        4.819698    6.181949   -2.232508
     81          1           0        4.321942    6.550961   -0.528711
     82          1           0        7.826700    8.127575    0.564899
     83          1           0        6.177178    7.428647    0.267923
     84          1           0        7.255645    7.630458   -1.116062
     85          1           0       10.752092    1.850644    1.705292
     86          1           0       11.239886   -0.921258    0.881392
     87          1           0       11.090509    1.897523   -1.128686
     88          1           0       12.150429    0.590638   -0.360045
     89          1           0       12.346942    2.254513    0.128612
     90          1           0        9.650958   -0.747552    3.249539
     91          1           0       11.077811    0.260019    3.223255
     92          1           0       11.432287   -2.031749    4.028117
     93          1           0       12.474931   -1.683672    2.610626
     94          1           0       11.033648   -2.763008    2.530479
     95          1           0        7.116787   -5.849113    0.708444
     96          1           0        8.301901   -4.783444    1.444847
     97          1           0        8.409040   -5.168332   -0.317593
     98          1           0        3.262649   -3.443113   -1.900472
     99          1           0       -0.831295   -4.688474   -1.829593
    100          1           0       -0.782122   -3.874936   -0.283486
    101          1           0       -0.056249   -5.451083   -0.367232
    102          1           0       -3.308716   -1.721730    1.746636
    103          1           0       -3.112914   -2.928941    0.494355
    104          1           0       -5.267393   -0.830081   -0.151049
    105          1           0       -5.949308   -4.814368   -0.035829
    106          1           0       -6.692031   -4.322208    1.359664
    107          1           0       -4.888799   -4.174332    1.372226
    108          1           0       -7.830224   -3.225311   -0.628449
    109          1           0       -6.988738   -1.768899   -1.242088
    110          1           0       -7.755232   -1.659692    1.634200
    111          1           0       -9.103591   -2.232513    0.757745
    112          1           0       -7.795358    0.381318   -0.328011
    113          1           0       -8.335080    0.393042    1.314838
    114          1           0      -10.597860   -0.563080    0.305854
    115          1           0      -11.039541    0.509624   -1.907904
    116          1           0      -10.433605   -1.079401   -1.761448
    117          1           0       -9.326677    0.353488   -2.077570
    118          1           0      -11.037474    2.111948   -0.533444
    119          1           0       -9.513864    2.275427    0.311871
    120          1           0      -10.519156    1.295641    2.350633
    121          1           0      -11.807122    0.634848    1.438690
    122          1           0      -11.846524    3.462028    1.016517
    123          1           0      -11.467125    3.209858    2.779251
    124          1           0      -13.392306    1.428310    2.752898
    125          1           0      -14.910557    3.677213    3.334843
    126          1           0      -13.268151    4.315119    3.506386
    127          1           0      -13.722547    2.911362    4.383706
    128          1           0      -13.783928    2.822885    0.163137
    129          1           0      -14.959618    3.453283    1.195339
    130          1           0      -16.013100    1.220608    1.681435
    131          1           0      -14.632516    0.390137    1.067550
    132          1           0      -15.450263    1.942825   -1.166681
    133          1           0      -16.909122    1.676034   -0.292575
    134          1           0      -15.711264   -0.882847   -0.282723
    135          1           0      -13.975809    0.410151   -1.649484
    136          1           0      -15.242313    0.408954   -2.953115
    137          1           0      -14.508954   -1.099863   -2.365798
    138          1           0      -18.130604    0.321132   -1.540017
    139          1           0      -17.663802   -1.364381   -1.199228
    140          1           0      -17.272693   -0.605489   -2.819941
 ---------------------------------------------------------------------

 SCF Done:  E(RwB97XD) =  -3007.85091744     A.U. after   20 cycles

 Excitation energies and oscillator strengths:

 Excited State   1:      Singlet-A      1.6829 eV  736.73 nm  f=0.3989  <S**2>=0.000
     245 -> 248       -0.18171
     246 -> 247        0.68242
     245 <- 248       -0.10953
 This state for optimization and/or second-order correction.
 Total Energy, E(TD-HF/TD-DFT) =  -3007.78907198
 Copying the excited state density for this state as the 1-particle RhoCI density.

 Excited State   2:      Singlet-A      2.1558 eV  575.13 nm  f=0.1204  <S**2>=0.000
     245 -> 247        0.64376
     246 -> 248        0.26684

 Excited State   3:      Singlet-A      3.3189 eV  373.57 nm  f=0.0080  <S**2>=0.000
     241 -> 247        0.53984
     242 -> 247        0.19713
     243 -> 247       -0.31449
     246 -> 248       -0.21111

 Excited State   4:      Singlet-A      3.4541 eV  358.95 nm  f=0.0017  <S**2>=0.000
     239 -> 247        0.20267
     239 -> 249        0.12908
     240 -> 247        0.49167
     240 -> 248       -0.20699
     240 -> 249        0.29206
     240 -> 250        0.18273

 Excited State   5:      Singlet-A      3.4986 eV  354.39 nm  f=0.0274  <S**2>=0.000
     241 -> 247       -0.17021
     242 -> 247        0.50799
     242 -> 249       -0.30094
     242 -> 250        0.25249
     246 -> 248        0.13914

 The electronic state is 1-A.
 Alpha  occ. eigenvalues --  -46.94834 -19.30319 -19.29946 -19.24831 -19.24208
 Alpha  occ. eigenvalues --  -19.23280 -19.22485 -14.46661 -14.45858 -14.44238
 Alpha  occ. eigenvalues --  -14.43279 -10.43484 -10.42109 -10.40191 -10.37510
 Alpha  occ. eigenvalues --  -10.36333 -10.35328 -10.35008 -10.34808 -10.34695
 Alpha  occ. eigenvalues --  -10.34511 -10.33934 -10.33837 -10.33219 -10.33060
 Alpha  occ. eigenvalues --  -10.32882 -10.31987 -10.31969 -10.31933 -10.31827
 Alpha  occ. eigenvalues --  -10.31767 -10.31756 -10.31424 -10.31397 -10.31339
 Alpha  occ. eigenvalues --  -10.31201 -10.30717 -10.30664 -10.30658 -10.30597
 Alpha  occ. eigenvalues --  -10.30289 -10.30228 -10.30193 -10.30080 -10.29947
 Alpha  occ. eigenvalues --  -10.29840 -10.29730 -10.29695 -10.29674 -10.29610
 Alpha  occ. eigenvalues --  -10.29508 -10.29427 -10.29203 -10.29158 -10.28793
 Alpha  occ. eigenvalues --  -10.28781 -10.28672 -10.28599 -10.28565 -10.28159
 Alpha  occ. eigenvalues --  -10.28060 -10.28048 -10.28009 -10.27895 -10.27649
 Alpha  occ. eigenvalues --  -10.27482  -3.20851  -1.94463  -1.93984  -1.93815
 Alpha  occ. eigenvalues --   -1.17273  -1.17142  -1.09882  -1.09804  -1.08716
 Alpha  occ. eigenvalues --   -1.08201  -1.08126  -1.07624  -1.06642  -1.04568
 Alpha  occ. eigenvalues --   -0.94639  -0.92730  -0.92338  -0.91583  -0.91435
 Alpha  occ. eigenvalues --   -0.90511  -0.90449  -0.89714  -0.89025  -0.88933
 Alpha  occ. eigenvalues --   -0.88392  -0.87811  -0.85831  -0.85751  -0.85025
 Alpha  occ. eigenvalues --   -0.84270  -0.84175  -0.83064  -0.82684  -0.82313
 Alpha  occ. eigenvalues --   -0.81837  -0.80596  -0.80029  -0.79551  -0.77946
 Alpha  occ. eigenvalues --   -0.77753  -0.77329  -0.76760  -0.76104  -0.75474
 Alpha  occ. eigenvalues --   -0.75197  -0.74580  -0.73511  -0.72409  -0.71098
 Alpha  occ. eigenvalues --   -0.70795  -0.69527  -0.69258  -0.68492  -0.68176
 Alpha  occ. eigenvalues --   -0.67812  -0.67096  -0.66728  -0.66605  -0.66423
 Alpha  occ. eigenvalues --   -0.64837  -0.64591  -0.64129  -0.63898  -0.62690
 Alpha  occ. eigenvalues --   -0.62019  -0.61335  -0.60792  -0.60701  -0.60158
 Alpha  occ. eigenvalues --   -0.59010  -0.58578  -0.58083  -0.57857  -0.57186
 Alpha  occ. eigenvalues --   -0.57006  -0.56493  -0.56246  -0.56146  -0.55984
 Alpha  occ. eigenvalues --   -0.55440  -0.55312  -0.55109  -0.54691  -0.54401
 Alpha  occ. eigenvalues --   -0.54172  -0.53927  -0.53846  -0.53786  -0.53652
 Alpha  occ. eigenvalues --   -0.53436  -0.53356  -0.53148  -0.52962  -0.52777
 Alpha  occ. eigenvalues --   -0.52537  -0.52337  -0.52130  -0.51895  -0.51447
 Alpha  occ. eigenvalues --   -0.51203  -0.51080  -0.50941  -0.50731  -0.50543
 Alpha  occ. eigenvalues --   -0.50335  -0.50112  -0.49772  -0.49710  -0.49603
 Alpha  occ. eigenvalues --   -0.49539  -0.49010  -0.48911  -0.48619  -0.48484
 Alpha  occ. eigenvalues --   -0.48372  -0.48271  -0.48049  -0.47966  -0.47426
 Alpha  occ. eigenvalues --   -0.47321  -0.47268  -0.47230  -0.47155  -0.46816
 Alpha  occ. eigenvalues --   -0.46652  -0.46516  -0.46231  -0.46157  -0.46033
 Alpha  occ. eigenvalues --   -0.45769  -0.45439  -0.45297  -0.45137  -0.44957
 Alpha  occ. eigenvalues --   -0.44440  -0.44337  -0.43957  -0.43866  -0.43729
 Alpha  occ. eigenvalues --   -0.43587  -0.43362  -0.43301  -0.43147  -0.42900
 Alpha  occ. eigenvalues --   -0.42843  -0.42713  -0.42492  -0.42426  -0.42157
 Alpha  occ. eigenvalues --   -0.42125  -0.41708  -0.41227  -0.41079  -0.40650
 Alpha  occ. eigenvalues --   -0.40174  -0.40051  -0.39814  -0.39723  -0.39554
 Alpha  occ. eigenvalues --   -0.38952  -0.38808  -0.38585  -0.38473  -0.38314
 Alpha  occ. eigenvalues --   -0.37571  -0.37372  -0.36298  -0.36050  -0.35885
 Alpha  occ. eigenvalues --   -0.35370  -0.35024  -0.34505  -0.33136  -0.33029
 Alpha  occ. eigenvalues --   -0.31986  -0.31804  -0.31581  -0.31089  -0.25893
 Alpha  occ. eigenvalues --   -0.23053
 Alpha virt. eigenvalues --   -0.07147   0.00194   0.02253   0.04588   0.06414
 Alpha virt. eigenvalues --    0.06899   0.07266   0.08165   0.08472   0.09137
 Alpha virt. eigenvalues --    0.10134   0.11313   0.11338   0.11965   0.12750

 Mulliken charges:
               1
     1  Mg   0.976584
     2  C    0.010080
     3  C   -0.131633
     4  C   -0.039608
     5  C   -0.130885
     6  N   -0.374939
     7  C    0.000128
     8  C   -0.055264
     9  C   -0.126943
    10  C    0.090676
    11  C    0.041748
    12  C    0.011250
    13  C    0.044569
    14  C    0.216518
    15  O   -0.250807
    16  O   -0.398029
    17  N   -0.462653
    18  C    0.178095
    19  C   -0.160488
    20  C   -0.087881
    21  C    0.150232
    22  C    0.049051
    23  C    0.059384
    24  O   -0.270548
    25  C   -0.002148
    26  N   -0.271027
    27  C    0.017103
    28  C   -0.123972
    29  C   -0.096258
    30  C    0.056846
    31  C    0.047683
    32  C   -0.003670
    33  C   -0.063334
    34  N   -0.398335
    35  C    0.150522
    36  C   -0.184826
    37  C    0.013349
    38  C    0.100888
    39  C    0.078525
    40  C    0.106043
    41  O   -0.235412
    42  C   -0.108393
    43  C    0.263690
    44  O   -0.239626
    45  O   -0.365306
    46  C    0.128476
    47  C    0.264206
    48  C   -0.129539
    49  C   -0.238184
    50  C    0.059537
    51  C    0.005186
    52  C   -0.011998
    53  C    0.038857
    54  C   -0.204237
    55  C    0.005794
    56  C   -0.003321
    57  C   -0.066252
    58  C    0.099173
    59  C   -0.207413
    60  C    0.004796
    61  C    0.030769
    62  C   -0.025665
    63  C   -0.005781
    64  C   -0.254264
    65  C   -0.017988
    66  C   -0.006132
    67  H   -0.002160
    68  H    0.025373
    69  H   -0.013011
    70  H    0.026838
    71  H    0.015967
    72  H    0.039007
    73  H    0.039760
    74  H    0.041368
    75  H    0.031031
    76  H    0.070680
    77  H    0.052343
    78  H    0.054587
    79  H    0.029306
    80  H    0.057829
    81  H    0.060937
    82  H    0.068958
    83  H    0.039772
    84  H    0.067161
    85  H    0.047074
    86  H    0.017962
    87  H    0.053574
    88  H    0.029308
    89  H    0.044194
    90  H    0.034783
    91  H    0.029086
    92  H    0.037442
    93  H    0.044911
    94  H    0.037162
    95  H    0.058831
    96  H    0.039386
    97  H    0.060665
    98  H    0.074314
    99  H    0.056606
   100  H    0.059767
   101  H    0.066931
   102  H    0.069836
   103  H    0.037892
   104  H    0.020385
   105  H    0.038273
   106  H    0.033211
   107  H    0.043814
   108  H    0.013788
   109  H    0.040603
   110  H    0.023639
   111  H    0.020901
   112  H    0.019488
   113  H    0.012928
   114  H    0.008355
   115  H    0.020660
   116  H    0.025001
   117  H    0.011433
   118  H    0.012758
   119  H    0.016852
   120  H    0.014803
   121  H    0.016378
   122  H    0.026485
   123  H    0.008367
   124  H    0.032814
   125  H    0.023598
   126  H    0.025603
   127  H    0.018032
   128  H    0.014236
   129  H    0.016184
   130  H    0.030112
   131  H    0.018970
   132  H    0.010617
   133  H    0.004459
   134  H    0.026731
   135  H    0.031494
   136  H    0.034072
   137  H    0.025182
   138  H    0.033342
   139  H    0.036835
   140  H    0.037128
 Sum of Mulliken charges =  -0.00000

 Dipole moment (field-independent basis, Debye):
    X=             -2.0713    Y=              3.5628    Z=             -3.1349  Tot=              5.1780
 Quadrupole moment (field-independent basis, Debye-Ang):
   XX=           -364.5654   YY=           -413.6724   ZZ=           -400.6937
   XY=              2.6225   XZ=             -4.4372   YZ=             -1.7510

 Normal termination of Gaussian 16 at Wed May  4 17:51:18 2022.
