 Gaussian 16, Revision A.03,
 Gaussian 16:  ES64L-G16RevA.03 25-Dec-2016

 --------------------
 #p ZINDO=(nstates=5)
 --------------------

 -----------------------------
 step_201_chromophore_22 ZINDO
 -----------------------------
 Symbolic Z-matrix:
 Charge =  0 Multiplicity = 1

                         Standard orientation:
 ---------------------------------------------------------------------
 Center     Atomic      Atomic             Coordinates (Angstroms)
 Number     Number       Type             X           Y           Z
 ---------------------------------------------------------------------
      1         12           0        6.195108    0.467839   -0.041937
      2          6           0        3.989946   -1.973164   -0.601003
      3          6           0        4.147071    2.773446   -1.569029
      4          6           0        8.554641    2.795807    0.389343
      5          6           0        8.650954   -1.966240    0.709974
      6          7           0        4.281900    0.442274   -0.847404
      7          6           0        3.530106   -0.719252   -0.995767
      8          6           0        2.219227   -0.390021   -1.640801
      9          6           0        2.536618    0.943400   -2.259348
     10          6           0        3.717702    1.449865   -1.450264
     11          6           0        2.919033    0.795730   -3.762370
     12          6           0        1.109842   -0.193297   -0.568705
     13          6           0       -0.291475   -0.385489   -0.965035
     14          6           0       -1.188128   -1.175067   -0.025592
     15          8           0       -0.806747   -1.815130    0.951437
     16          8           0       -2.577294   -1.091781   -0.279191
     17          7           0        6.229340    2.546775   -0.286329
     18          6           0        5.253258    3.302083   -0.912217
     19          6           0        5.534219    4.687607   -0.781383
     20          6           0        6.898796    4.794544   -0.200479
     21          6           0        7.274708    3.360560    0.048818
     22          6           0        4.524417    5.772867   -1.265766
     23          6           0        7.787024    6.018203    0.149661
     24          8           0        8.982665    5.878568    0.550729
     25          6           0        7.222220    7.452639   -0.041466
     26          7           0        8.401060    0.357472    0.365153
     27          6           0        9.096130    1.480879    0.417670
     28          6           0       10.549277    1.222605    0.837723
     29          6           0       10.418902   -0.294988    1.230158
     30          6           0        9.139617   -0.671387    0.702353
     31          6           0       11.619067    1.535513   -0.246883
     32          6           0       10.614614   -0.610706    2.758815
     33          6           0       11.453750   -1.850074    2.953359
     34          7           0        6.340548   -1.594763    0.125705
     35          6           0        7.356353   -2.399196    0.437364
     36          6           0        6.909355   -3.792290    0.374960
     37          6           0        5.530883   -3.668265    0.023156
     38          6           0        5.260438   -2.325685   -0.102926
     39          6           0        7.747568   -4.979477    0.527763
     40          6           0        4.322302   -4.336444   -0.150933
     41          8           0        3.973859   -5.493894    0.126628
     42          6           0        3.295850   -3.330677   -0.817697
     43          6           0        1.889390   -3.604714   -0.240055
     44          8           0        1.589733   -3.582622    0.957023
     45          8           0        1.146125   -3.992507   -1.296160
     46          6           0       -0.219115   -4.538231   -0.940917
     47          6           0       -3.400711   -1.893178    0.674810
     48          6           0       -4.897130   -1.754370    0.291653
     49          6           0       -5.864309   -2.745382    0.199888
     50          6           0       -5.798681   -4.102930    0.775393
     51          6           0       -7.244106   -2.348700   -0.354864
     52          6           0       -8.209104   -1.620284    0.643707
     53          6           0       -8.495605   -0.098833    0.355444
     54          6           0       -9.928104    0.203227   -0.084164
     55          6           0      -10.181466   -0.044355   -1.529940
     56          6           0      -10.419733    1.672142    0.249873
     57          6           0      -11.231159    1.550841    1.565496
     58          6           0      -11.961778    2.820214    1.889719
     59          6           0      -13.369007    2.427593    2.317670
     60          6           0      -13.859670    3.402875    3.420285
     61          6           0      -14.323838    2.576954    1.077443
     62          6           0      -15.169260    1.335966    1.001048
     63          6           0      -15.887844    1.311665   -0.393250
     64          6           0      -15.966289   -0.128950   -1.027259
     65          6           0      -14.837824   -0.100465   -2.079205
     66          6           0      -17.399113   -0.459887   -1.747275
     67          1           0        3.526608    3.505980   -2.088921
     68          1           0        9.410777    3.473575    0.415105
     69          1           0        9.444769   -2.695996    0.888372
     70          1           0        1.946793   -1.121893   -2.400365
     71          1           0        1.743094    1.690215   -2.224862
     72          1           0        3.414151   -0.140115   -4.022041
     73          1           0        3.588588    1.636081   -3.947841
     74          1           0        1.938564    0.748711   -4.236664
     75          1           0        1.118697    0.793452   -0.107288
     76          1           0        1.378301   -0.853955    0.255656
     77          1           0       -0.361203   -0.842679   -1.951810
     78          1           0       -0.775616    0.583096   -1.090571
     79          1           0        3.562069    5.315454   -1.494318
     80          1           0        4.819698    6.181949   -2.232508
     81          1           0        4.321942    6.550961   -0.528711
     82          1           0        7.826700    8.127575    0.564899
     83          1           0        6.177178    7.428647    0.267923
     84          1           0        7.255645    7.630458   -1.116062
     85          1           0       10.752092    1.850644    1.705292
     86          1           0       11.239886   -0.921258    0.881392
     87          1           0       11.090509    1.897523   -1.128686
     88          1           0       12.150429    0.590638   -0.360045
     89          1           0       12.346942    2.254513    0.128612
     90          1           0        9.650958   -0.747552    3.249539
     91          1           0       11.077811    0.260019    3.223255
     92          1           0       11.432287   -2.031749    4.028117
     93          1           0       12.474931   -1.683672    2.610626
     94          1           0       11.033648   -2.763008    2.530479
     95          1           0        7.116787   -5.849113    0.708444
     96          1           0        8.301901   -4.783444    1.444847
     97          1           0        8.409040   -5.168332   -0.317593
     98          1           0        3.262649   -3.443113   -1.900472
     99          1           0       -0.831295   -4.688474   -1.829593
    100          1           0       -0.782122   -3.874936   -0.283486
    101          1           0       -0.056249   -5.451083   -0.367232
    102          1           0       -3.308716   -1.721730    1.746636
    103          1           0       -3.112914   -2.928941    0.494355
    104          1           0       -5.267393   -0.830081   -0.151049
    105          1           0       -5.949308   -4.814368   -0.035829
    106          1           0       -6.692031   -4.322208    1.359664
    107          1           0       -4.888799   -4.174332    1.372226
    108          1           0       -7.830224   -3.225311   -0.628449
    109          1           0       -6.988738   -1.768899   -1.242088
    110          1           0       -7.755232   -1.659692    1.634200
    111          1           0       -9.103591   -2.232513    0.757745
    112          1           0       -7.795358    0.381318   -0.328011
    113          1           0       -8.335080    0.393042    1.314838
    114          1           0      -10.597860   -0.563080    0.305854
    115          1           0      -11.039541    0.509624   -1.907904
    116          1           0      -10.433605   -1.079401   -1.761448
    117          1           0       -9.326677    0.353488   -2.077570
    118          1           0      -11.037474    2.111948   -0.533444
    119          1           0       -9.513864    2.275427    0.311871
    120          1           0      -10.519156    1.295641    2.350633
    121          1           0      -11.807122    0.634848    1.438690
    122          1           0      -11.846524    3.462028    1.016517
    123          1           0      -11.467125    3.209858    2.779251
    124          1           0      -13.392306    1.428310    2.752898
    125          1           0      -14.910557    3.677213    3.334843
    126          1           0      -13.268151    4.315119    3.506386
    127          1           0      -13.722547    2.911362    4.383706
    128          1           0      -13.783928    2.822885    0.163137
    129          1           0      -14.959618    3.453283    1.195339
    130          1           0      -16.013100    1.220608    1.681435
    131          1           0      -14.632516    0.390137    1.067550
    132          1           0      -15.450263    1.942825   -1.166681
    133          1           0      -16.909122    1.676034   -0.292575
    134          1           0      -15.711264   -0.882847   -0.282723
    135          1           0      -13.975809    0.410151   -1.649484
    136          1           0      -15.242313    0.408954   -2.953115
    137          1           0      -14.508954   -1.099863   -2.365798
    138          1           0      -18.130604    0.321132   -1.540017
    139          1           0      -17.663802   -1.364381   -1.199228
    140          1           0      -17.272693   -0.605489   -2.819941
 ---------------------------------------------------------------------

 SCF Done:  E(RZINDO/S) =  -474.477940584     A.U. after   19 cycles

 Excitation energies and oscillator strengths:

 Excited State   1:      Singlet-A      1.2596 eV  984.29 nm  f=0.6324  <S**2>=0.000
     175 ->178        -0.19158
     176 ->177         0.66175
 This state for optimization and/or second-order correction.
 Total Energy, E(CIS/TDA) =  -474.431650163
 Copying the excited state density for this state as the 1-particle RhoCI density.

 Excited State   2:      Singlet-A      1.9302 eV  642.33 nm  f=0.0568  <S**2>=0.000
     175 ->177         0.55540
     176 ->178         0.40714

 Excited State   3:      Singlet-A      2.9733 eV  417.00 nm  f=0.4528  <S**2>=0.000
     170 ->177         0.15720
     170 ->179         0.16961
     170 ->180        -0.18450
     171 ->177        -0.11960
     175 ->177        -0.25365
     176 ->178         0.41574
     176 ->179         0.31539

 Excited State   4:      Singlet-A      2.9844 eV  415.44 nm  f=0.1053  <S**2>=0.000
     170 ->177         0.27307
     170 ->179         0.31435
     170 ->180        -0.32263
     170 ->186         0.16940
     170 ->188         0.14560
     171 ->177         0.10263
     175 ->177         0.12700
     176 ->178        -0.21370
     176 ->179        -0.19730

 Excited State   5:      Singlet-A      2.9962 eV  413.80 nm  f=0.0216  <S**2>=0.000
     167 ->177         0.12738
     167 ->179        -0.16651
     167 ->180        -0.12999
     168 ->177         0.30550
     168 ->178        -0.19470
     168 ->179        -0.34548
     168 ->180        -0.27525
     168 ->186        -0.20729

 The electronic state is 1-A.
 Alpha  occ. eigenvalues --   -1.88527  -1.86205  -1.82271  -1.73179  -1.71248
 Alpha  occ. eigenvalues --   -1.69248  -1.67086  -1.60841  -1.58002  -1.55307
 Alpha  occ. eigenvalues --   -1.54282  -1.52174  -1.49999  -1.48759  -1.46528
 Alpha  occ. eigenvalues --   -1.43559  -1.42396  -1.40620  -1.39353  -1.38319
 Alpha  occ. eigenvalues --   -1.36423  -1.34869  -1.32721  -1.31882  -1.28541
 Alpha  occ. eigenvalues --   -1.27813  -1.25220  -1.22626  -1.20621  -1.19164
 Alpha  occ. eigenvalues --   -1.17563  -1.15100  -1.14925  -1.14307  -1.12632
 Alpha  occ. eigenvalues --   -1.11263  -1.10217  -1.10004  -1.05704  -1.03757
 Alpha  occ. eigenvalues --   -1.02818  -1.01392  -0.98787  -0.98030  -0.97665
 Alpha  occ. eigenvalues --   -0.97047  -0.94746  -0.93816  -0.92844  -0.92316
 Alpha  occ. eigenvalues --   -0.91095  -0.90648  -0.88694  -0.86786  -0.86317
 Alpha  occ. eigenvalues --   -0.85837  -0.83865  -0.82831  -0.82438  -0.80531
 Alpha  occ. eigenvalues --   -0.79295  -0.77821  -0.76936  -0.76610  -0.75839
 Alpha  occ. eigenvalues --   -0.75385  -0.74731  -0.74407  -0.73422  -0.72670
 Alpha  occ. eigenvalues --   -0.72055  -0.71964  -0.71217  -0.71078  -0.70963
 Alpha  occ. eigenvalues --   -0.70408  -0.69690  -0.69219  -0.68357  -0.67640
 Alpha  occ. eigenvalues --   -0.67526  -0.66705  -0.66362  -0.65730  -0.65276
 Alpha  occ. eigenvalues --   -0.64885  -0.64503  -0.63996  -0.63765  -0.63588
 Alpha  occ. eigenvalues --   -0.62797  -0.62504  -0.62285  -0.62173  -0.61604
 Alpha  occ. eigenvalues --   -0.61404  -0.61144  -0.61010  -0.60837  -0.60363
 Alpha  occ. eigenvalues --   -0.59969  -0.59569  -0.58997  -0.58874  -0.58379
 Alpha  occ. eigenvalues --   -0.58071  -0.57163  -0.57036  -0.56383  -0.56347
 Alpha  occ. eigenvalues --   -0.56142  -0.55419  -0.55204  -0.54781  -0.54302
 Alpha  occ. eigenvalues --   -0.54178  -0.53609  -0.53176  -0.53044  -0.52590
 Alpha  occ. eigenvalues --   -0.52233  -0.52039  -0.51799  -0.51682  -0.51646
 Alpha  occ. eigenvalues --   -0.51234  -0.51067  -0.51046  -0.50623  -0.50226
 Alpha  occ. eigenvalues --   -0.49980  -0.49297  -0.49083  -0.48874  -0.48689
 Alpha  occ. eigenvalues --   -0.48497  -0.48216  -0.48071  -0.47911  -0.47816
 Alpha  occ. eigenvalues --   -0.47439  -0.47158  -0.46991  -0.46704  -0.46471
 Alpha  occ. eigenvalues --   -0.45792  -0.45398  -0.45314  -0.45131  -0.44989
 Alpha  occ. eigenvalues --   -0.44453  -0.44321  -0.44187  -0.44064  -0.43924
 Alpha  occ. eigenvalues --   -0.43542  -0.42657  -0.42606  -0.41955  -0.41319
 Alpha  occ. eigenvalues --   -0.41127  -0.40462  -0.40163  -0.38895  -0.38309
 Alpha  occ. eigenvalues --   -0.37247  -0.36489  -0.35907  -0.34880  -0.34110
 Alpha  occ. eigenvalues --   -0.32786  -0.32399  -0.31844  -0.31040  -0.26484
 Alpha  occ. eigenvalues --   -0.21730
 Alpha virt. eigenvalues --   -0.08520  -0.01909  -0.00551   0.01486   0.02160
 Alpha virt. eigenvalues --    0.02700   0.03263   0.03404   0.04528   0.04815
 Alpha virt. eigenvalues --    0.06148   0.06440   0.07153   0.07949   0.08606

 Mulliken charges:
               1
     1  Mg   0.425772
     2  C   -0.043886
     3  C   -0.102047
     4  C   -0.069113
     5  C   -0.069127
     6  N   -0.273946
     7  C    0.104360
     8  C    0.013744
     9  C   -0.000897
    10  C    0.159990
    11  C   -0.057657
    12  C   -0.019512
    13  C    0.022838
    14  C    0.454301
    15  O   -0.496351
    16  O   -0.282683
    17  N   -0.334530
    18  C    0.124989
    19  C   -0.001728
    20  C   -0.051901
    21  C    0.145550
    22  C   -0.044287
    23  C    0.321209
    24  O   -0.533618
    25  C   -0.028171
    26  N   -0.254661
    27  C    0.138990
    28  C   -0.003783
    29  C    0.000374
    30  C    0.134518
    31  C   -0.052778
    32  C   -0.025101
    33  C   -0.053113
    34  N   -0.310318
    35  C    0.093063
    36  C    0.022001
    37  C   -0.049857
    38  C    0.120492
    39  C   -0.032625
    40  C    0.336828
    41  O   -0.536413
    42  C    0.040451
    43  C    0.486597
    44  O   -0.500741
    45  O   -0.266234
    46  C    0.064003
    47  C    0.112046
    48  C   -0.113233
    49  C   -0.007794
    50  C   -0.040639
    51  C   -0.027436
    52  C   -0.032459
    53  C   -0.026435
    54  C   -0.017491
    55  C   -0.056809
    56  C   -0.042667
    57  C   -0.040267
    58  C   -0.032166
    59  C   -0.014171
    60  C   -0.064495
    61  C   -0.026977
    62  C   -0.032569
    63  C   -0.048809
    64  C   -0.031638
    65  C   -0.056485
    66  C   -0.067582
    67  H    0.029693
    68  H    0.036052
    69  H    0.021141
    70  H    0.029629
    71  H    0.019570
    72  H    0.024034
    73  H    0.030602
    74  H    0.021390
    75  H    0.022664
    76  H    0.039973
    77  H    0.038495
    78  H    0.034066
    79  H    0.021564
    80  H    0.031117
    81  H    0.032634
    82  H    0.048632
    83  H    0.031525
    84  H    0.045061
    85  H    0.034267
    86  H    0.027747
    87  H    0.033893
    88  H    0.022215
    89  H    0.025481
    90  H    0.022684
    91  H    0.020865
    92  H    0.009714
    93  H    0.023194
    94  H    0.024172
    95  H    0.032496
    96  H    0.027598
    97  H    0.037183
    98  H    0.049139
    99  H    0.031411
   100  H    0.053700
   101  H    0.050090
   102  H    0.064647
   103  H    0.042146
   104  H    0.030013
   105  H    0.032202
   106  H    0.025995
   107  H    0.031157
   108  H    0.015974
   109  H    0.025496
   110  H    0.015098
   111  H    0.022247
   112  H    0.026563
   113  H    0.009352
   114  H    0.019332
   115  H    0.008760
   116  H    0.014727
   117  H    0.013712
   118  H    0.022465
   119  H    0.019520
   120  H    0.013079
   121  H    0.023377
   122  H    0.033596
   123  H    0.015148
   124  H    0.033227
   125  H    0.017572
   126  H    0.018732
   127  H    0.007779
   128  H    0.024444
   129  H    0.018766
   130  H    0.025734
   131  H    0.022659
   132  H    0.021307
   133  H    0.007950
   134  H    0.025627
   135  H    0.016332
   136  H    0.022141
   137  H    0.008063
   138  H    0.025057
   139  H    0.019836
   140  H    0.029561
 Sum of Mulliken charges =  -0.00000

 Dipole moment (field-independent basis, Debye):
    X=             -2.2357    Y=              5.8451    Z=             -7.0163  Tot=              9.4017
 N-N= 4.215501333097D+03 E-N= 0.000000000000D+00  KE=-9.106129184131D+03
 Leave Link  601 at Wed May  4 18:11:23 2022, MaxMem=  6710886400 cpu:               0.7 elap:               0.0
 (Enter /sw/apps/gaussian-16.0/g16/l9999.exe)
 1\1\GINC-BP1-COMPUTE168\SP\RZINDO CIS\STO-3G\C55H74Mg1N4O6\OF15641\04-
 May-2022\0\\#p ZINDO=(nstates=5)\\step_201_chromophore_22 ZINDO\\0,1\M
 g,0,8.658,48.462,24.727\C,0,6.661,48.706,27.389\C,0,11.286,49.832,26.4
 76\C,0,10.514,48.358,21.949\C,0,5.82,47.902,22.689\N,0,8.978,49.057,26
 .69\C,0,7.974,49.088,27.653\C,0,8.533,49.599,28.945\C,0,9.778,50.289,2
 8.46\C,0,10.066,49.627,27.124\C,0,9.546,51.819,28.28\C,0,8.943,48.421,
 29.874\C,0,9.009,48.659,31.322\C,0,8.409,47.605,32.238\O,0,7.72,46.655

 Normal termination of Gaussian 16 at Wed May  4 18:11:23 2022.
