 Gaussian 16, Revision A.03,
 Gaussian 16:  ES64L-G16RevA.03 25-Dec-2016

 ------------------------------
 #p blyp/Def2SVP td=(nstates=5)
 ------------------------------

 --------------------------------------------------
 step_1501_chromophore_3 TDDFT with blyp functional
 --------------------------------------------------
 Symbolic Z-matrix:
 Charge =  0 Multiplicity = 1

                         Standard orientation:
 ---------------------------------------------------------------------
 Center     Atomic      Atomic             Coordinates (Angstroms)
 Number     Number       Type             X           Y           Z
 ---------------------------------------------------------------------
      1         12           0        5.458511    1.028383    0.338435
      2          6           0        4.402730   -2.255127   -0.002428
      3          6           0        2.204597    2.012647    0.244083
      4          6           0        6.655663    4.027127   -0.060921
      5          6           0        8.864576   -0.176914   -0.155597
      6          7           0        3.434575   -0.102370    0.338393
      7          6           0        3.245696   -1.432332    0.109977
      8          6           0        1.718324   -1.764008    0.170074
      9          6           0        1.135935   -0.304985    0.162192
     10          6           0        2.334255    0.613819    0.258080
     11          6           0        0.257889    0.074085   -1.066859
     12          6           0        1.406990   -2.614446    1.491383
     13          6           0        0.308708   -3.688243    1.291195
     14          6           0       -0.707690   -3.394243    0.331972
     15          8           0       -0.881196   -3.968095   -0.733870
     16          8           0       -1.425918   -2.340628    0.774882
     17          7           0        4.542432    2.796358    0.201644
     18          6           0        3.199123    3.036831    0.269718
     19          6           0        3.045710    4.446839    0.083109
     20          6           0        4.295665    5.048156    0.137990
     21          6           0        5.270726    3.931247    0.061958
     22          6           0        1.681049    5.077149   -0.001925
     23          6           0        4.598020    6.501111    0.123709
     24          8           0        5.745054    6.869525    0.129676
     25          6           0        3.480562    7.569174   -0.068153
     26          7           0        7.545615    1.886830    0.233980
     27          6           0        7.686445    3.171542    0.033523
     28          6           0        9.163745    3.518413   -0.365235
     29          6           0        9.892959    2.205513   -0.034975
     30          6           0        8.726128    1.211032    0.042901
     31          6           0        9.260062    3.993743   -1.819341
     32          6           0       10.696550    2.083747    1.325929
     33          6           0       12.071620    1.405307    1.118193
     34          7           0        6.467660   -0.716950   -0.047936
     35          6           0        7.828574   -1.116420   -0.174893
     36          6           0        7.921038   -2.535263   -0.388218
     37          6           0        6.646914   -3.020908   -0.401182
     38          6           0        5.771461   -1.926003   -0.111572
     39          6           0        9.207931   -3.469106   -0.379033
     40          6           0        5.856158   -4.219848   -0.516302
     41          8           0        6.189407   -5.344576   -0.915832
     42          6           0        4.373293   -3.801919   -0.094826
     43          6           0        3.496183   -4.263755   -1.167898
     44          8           0        3.075142   -3.547161   -2.034991
     45          8           0        3.344147   -5.660944   -1.053816
     46          6           0        2.612002   -6.387917   -2.139644
     47          6           0       -2.677211   -1.894663    0.074883
     48          6           0       -3.856288   -2.122981    1.068847
     49          6           0       -4.515213   -3.277864    1.427733
     50          6           0       -4.049521   -4.667233    0.916467
     51          6           0       -5.990148   -3.170215    1.976225
     52          6           0       -6.973488   -2.239593    1.171735
     53          6           0       -7.755603   -1.119764    1.893479
     54          6           0       -9.303193   -1.387617    1.969821
     55          6           0       -9.939249   -0.945505    3.342258
     56          6           0       -9.960117   -0.722048    0.668855
     57          6           0      -11.370056   -1.317209    0.350823
     58          6           0      -11.654009   -1.388299   -1.163292
     59          6           0      -12.803898   -0.399078   -1.574613
     60          6           0      -12.934743   -0.749989   -3.170876
     61          6           0      -12.656936    1.133632   -1.400952
     62          6           0      -13.899019    1.776973   -0.741968
     63          6           0      -13.714293    3.350145   -0.650171
     64          6           0      -15.029438    4.076504   -0.289744
     65          6           0      -15.607888    4.892419   -1.590762
     66          6           0      -14.811641    5.045056    0.878704
     67          1           0        1.190413    2.411952    0.180020
     68          1           0        6.948892    5.040704   -0.342090
     69          1           0        9.896683   -0.502302   -0.307506
     70          1           0        1.453028   -2.319238   -0.729333
     71          1           0        0.418998   -0.195360    0.976565
     72          1           0        0.276086   -0.709909   -1.823482
     73          1           0        0.424823    1.031456   -1.560680
     74          1           0       -0.777195    0.043186   -0.725407
     75          1           0        1.230748   -1.938593    2.327383
     76          1           0        2.306679   -3.155392    1.784389
     77          1           0       -0.177697   -3.936503    2.234310
     78          1           0        0.732302   -4.638411    0.966883
     79          1           0        0.898006    4.325791   -0.102324
     80          1           0        1.496281    5.810321   -0.787744
     81          1           0        1.494647    5.474936    0.995457
     82          1           0        2.972157    7.520940   -1.030860
     83          1           0        4.013792    8.511018    0.061653
     84          1           0        2.888832    7.513952    0.845488
     85          1           0        9.633643    4.282299    0.254368
     86          1           0       10.625254    2.079518   -0.832582
     87          1           0        8.588050    4.813570   -2.071621
     88          1           0        9.017593    3.151994   -2.468381
     89          1           0       10.299105    4.294780   -1.951535
     90          1           0       10.231442    1.463277    2.092118
     91          1           0       10.940769    3.057650    1.750453
     92          1           0       12.770942    2.200071    0.859810
     93          1           0       12.112273    0.733471    0.261209
     94          1           0       12.431083    0.845311    1.981253
     95          1           0       10.039424   -2.809672   -0.627537
     96          1           0        9.098237   -4.141751   -1.230245
     97          1           0        9.435736   -4.011641    0.538233
     98          1           0        4.121296   -4.184456    0.894673
     99          1           0        1.551229   -6.562805   -1.955272
    100          1           0        3.088433   -7.367919   -2.179517
    101          1           0        2.783114   -5.856058   -3.075063
    102          1           0       -2.688051   -2.473992   -0.848230
    103          1           0       -2.659698   -0.832486   -0.170675
    104          1           0       -4.236326   -1.123491    1.281479
    105          1           0       -3.526542   -4.539424   -0.031455
    106          1           0       -4.759295   -5.439961    0.620198
    107          1           0       -3.390873   -5.164859    1.627568
    108          1           0       -5.853406   -2.739399    2.968411
    109          1           0       -6.396592   -4.179173    2.034297
    110          1           0       -7.720056   -2.890403    0.716758
    111          1           0       -6.361959   -1.792249    0.388549
    112          1           0       -7.595371   -0.177389    1.370758
    113          1           0       -7.516542   -1.156823    2.956821
    114          1           0       -9.485229   -2.459536    1.892255
    115          1           0      -10.549610   -0.058128    3.179142
    116          1           0       -9.090357   -0.618068    3.942855
    117          1           0      -10.421145   -1.713063    3.947347
    118          1           0       -9.266226   -0.822052   -0.165650
    119          1           0      -10.206434    0.319386    0.876357
    120          1           0      -12.152994   -0.712552    0.808585
    121          1           0      -11.410349   -2.317814    0.782276
    122          1           0      -11.972235   -2.409148   -1.373282
    123          1           0      -10.722920   -1.290613   -1.723240
    124          1           0      -13.704362   -0.812859   -1.120416
    125          1           0      -13.853989   -1.322800   -3.298007
    126          1           0      -12.118531   -1.352324   -3.568459
    127          1           0      -13.073078    0.155981   -3.760967
    128          1           0      -12.553911    1.587634   -2.386583
    129          1           0      -11.735222    1.267494   -0.835208
    130          1           0      -13.904320    1.271399    0.223676
    131          1           0      -14.730174    1.547368   -1.408758
    132          1           0      -13.389104    3.729174   -1.619185
    133          1           0      -12.821744    3.548584   -0.056985
    134          1           0      -15.697166    3.365586    0.197807
    135          1           0      -15.445637    5.963845   -1.470566
    136          1           0      -16.696972    4.877553   -1.610990
    137          1           0      -15.056197    4.574553   -2.475229
    138          1           0      -15.571375    4.935515    1.652780
    139          1           0      -14.702413    6.091889    0.595825
    140          1           0      -13.871729    4.861514    1.398245
 ---------------------------------------------------------------------

 SCF Done:  E(RB-LYP) =  -3007.37608113     A.U. after   21 cycles

 Excitation energies and oscillator strengths:

 Excited State   1:      Singlet-A      1.8487 eV  670.67 nm  f=0.2627  <S**2>=0.000
     245 -> 247        0.11854
     245 -> 248       -0.21058
     246 -> 247        0.66682
     246 <- 247       -0.13106
 This state for optimization and/or second-order correction.
 Total Energy, E(TD-HF/TD-DFT) =  -3007.30814411
 Copying the excited state density for this state as the 1-particle RhoCI density.

 Excited State   2:      Singlet-A      1.9660 eV  630.65 nm  f=0.0769  <S**2>=0.000
     244 -> 247        0.41775
     245 -> 247        0.51665
     246 -> 247       -0.14379
     246 -> 248        0.15929

 Excited State   3:      Singlet-A      2.0835 eV  595.08 nm  f=0.0309  <S**2>=0.000
     243 -> 247       -0.18938
     244 -> 247        0.54858
     245 -> 247       -0.35678
     246 -> 248       -0.17092

 Excited State   4:      Singlet-A      2.1426 eV  578.67 nm  f=0.0043  <S**2>=0.000
     243 -> 247        0.67528
     244 -> 247        0.10402
     245 -> 247       -0.14855

 Excited State   5:      Singlet-A      2.5839 eV  479.84 nm  f=0.0001  <S**2>=0.000
     241 -> 247        0.58589
     242 -> 247        0.39573

 The electronic state is 1-A.
 Alpha  occ. eigenvalues --  -46.27097 -18.81788 -18.80567 -18.76640 -18.76580
 Alpha  occ. eigenvalues --  -18.75903 -18.75330 -14.02749 -14.02228 -14.01003
 Alpha  occ. eigenvalues --  -14.00902 -10.03492 -10.03097  -9.99862  -9.99390
 Alpha  occ. eigenvalues --   -9.98748  -9.96680  -9.96609  -9.96022  -9.95957
 Alpha  occ. eigenvalues --   -9.95624  -9.95465  -9.95358  -9.95053  -9.94937
 Alpha  occ. eigenvalues --   -9.94815  -9.94191  -9.94109  -9.93730  -9.93554
 Alpha  occ. eigenvalues --   -9.93406  -9.93381  -9.93371  -9.93251  -9.93092
 Alpha  occ. eigenvalues --   -9.93065  -9.92988  -9.92964  -9.92858  -9.92815
 Alpha  occ. eigenvalues --   -9.92625  -9.92575  -9.92480  -9.92474  -9.92428
 Alpha  occ. eigenvalues --   -9.92416  -9.92264  -9.91976  -9.91957  -9.91868
 Alpha  occ. eigenvalues --   -9.91816  -9.91787  -9.91671  -9.91641  -9.91630
 Alpha  occ. eigenvalues --   -9.91613  -9.91502  -9.91298  -9.91297  -9.91140
 Alpha  occ. eigenvalues --   -9.91103  -9.90934  -9.90808  -9.90725  -9.90572
 Alpha  occ. eigenvalues --   -9.90396  -2.91721  -1.72144  -1.71638  -1.71411
 Alpha  occ. eigenvalues --   -0.97810  -0.96102  -0.92454  -0.90455  -0.89696
 Alpha  occ. eigenvalues --   -0.89214  -0.86726  -0.86366  -0.85569  -0.84101
 Alpha  occ. eigenvalues --   -0.74789  -0.73212  -0.72696  -0.72220  -0.72192
 Alpha  occ. eigenvalues --   -0.71356  -0.71320  -0.70589  -0.70337  -0.70282
 Alpha  occ. eigenvalues --   -0.69287  -0.69252  -0.67705  -0.67360  -0.67149
 Alpha  occ. eigenvalues --   -0.66234  -0.65447  -0.64762  -0.64445  -0.63943
 Alpha  occ. eigenvalues --   -0.63715  -0.62232  -0.62202  -0.61328  -0.60597
 Alpha  occ. eigenvalues --   -0.60300  -0.59936  -0.59575  -0.59184  -0.58719
 Alpha  occ. eigenvalues --   -0.58255  -0.57875  -0.56503  -0.56233  -0.54008
 Alpha  occ. eigenvalues --   -0.53814  -0.53571  -0.52836  -0.52581  -0.51584
 Alpha  occ. eigenvalues --   -0.51060  -0.50963  -0.50677  -0.50016  -0.49926
 Alpha  occ. eigenvalues --   -0.49713  -0.49254  -0.48647  -0.47267  -0.46678
 Alpha  occ. eigenvalues --   -0.46564  -0.46179  -0.45909  -0.44784  -0.44336
 Alpha  occ. eigenvalues --   -0.44279  -0.43253  -0.42941  -0.42549  -0.42200
 Alpha  occ. eigenvalues --   -0.42094  -0.41879  -0.41199  -0.41137  -0.40939
 Alpha  occ. eigenvalues --   -0.40631  -0.40302  -0.40242  -0.40052  -0.39615
 Alpha  occ. eigenvalues --   -0.39486  -0.39405  -0.39267  -0.39051  -0.38807
 Alpha  occ. eigenvalues --   -0.38661  -0.38305  -0.38132  -0.38067  -0.37845
 Alpha  occ. eigenvalues --   -0.37749  -0.37637  -0.37357  -0.37230  -0.37021
 Alpha  occ. eigenvalues --   -0.36824  -0.36734  -0.36488  -0.36197  -0.35927
 Alpha  occ. eigenvalues --   -0.35835  -0.35685  -0.35669  -0.35593  -0.35440
 Alpha  occ. eigenvalues --   -0.35219  -0.35035  -0.34812  -0.34775  -0.34686
 Alpha  occ. eigenvalues --   -0.34418  -0.34287  -0.34113  -0.34064  -0.33809
 Alpha  occ. eigenvalues --   -0.33679  -0.33369  -0.33278  -0.33267  -0.33017
 Alpha  occ. eigenvalues --   -0.32950  -0.32768  -0.32465  -0.32117  -0.32011
 Alpha  occ. eigenvalues --   -0.31916  -0.31620  -0.31406  -0.31278  -0.31152
 Alpha  occ. eigenvalues --   -0.30905  -0.30862  -0.30515  -0.30466  -0.30061
 Alpha  occ. eigenvalues --   -0.30001  -0.29895  -0.29681  -0.29597  -0.29545
 Alpha  occ. eigenvalues --   -0.29501  -0.29266  -0.29112  -0.28946  -0.28677
 Alpha  occ. eigenvalues --   -0.28602  -0.28515  -0.28368  -0.28106  -0.27870
 Alpha  occ. eigenvalues --   -0.27842  -0.27549  -0.27226  -0.27041  -0.26683
 Alpha  occ. eigenvalues --   -0.26444  -0.26347  -0.26069  -0.25748  -0.25240
 Alpha  occ. eigenvalues --   -0.24712  -0.24687  -0.24186  -0.23660  -0.23038
 Alpha  occ. eigenvalues --   -0.23017  -0.22293  -0.22061  -0.21794  -0.21073
 Alpha  occ. eigenvalues --   -0.20567  -0.20515  -0.18774  -0.18424  -0.16818
 Alpha  occ. eigenvalues --   -0.15619
 Alpha virt. eigenvalues --   -0.11057  -0.06612  -0.06188  -0.04975  -0.04272
 Alpha virt. eigenvalues --   -0.02625  -0.01795  -0.01657  -0.00539   0.00962
 Alpha virt. eigenvalues --    0.01410   0.02099   0.02463   0.02794   0.03223

 Mulliken charges:
               1
     1  Mg   0.692014
     2  C    0.007969
     3  C   -0.057195
     4  C   -0.035019
     5  C   -0.080214
     6  N   -0.168809
     7  C   -0.082059
     8  C    0.013824
     9  C    0.002429
    10  C    0.054883
    11  C    0.102596
    12  C    0.134341
    13  C    0.178634
    14  C    0.048101
    15  O   -0.192917
    16  O   -0.291853
    17  N   -0.331681
    18  C    0.119555
    19  C   -0.149306
    20  C    0.081612
    21  C    0.097747
    22  C    0.178147
    23  C   -0.133581
    24  O   -0.147900
    25  C    0.146163
    26  N   -0.158969
    27  C    0.004030
    28  C    0.030254
    29  C    0.010123
    30  C    0.008463
    31  C    0.128854
    32  C    0.113838
    33  C    0.030937
    34  N   -0.317457
    35  C    0.156772
    36  C   -0.204659
    37  C    0.155320
    38  C    0.091901
    39  C    0.155776
    40  C   -0.053920
    41  O   -0.138886
    42  C    0.007755
    43  C    0.135398
    44  O   -0.157997
    45  O   -0.304454
    46  C    0.208683
    47  C    0.273872
    48  C   -0.088920
    49  C   -0.116905
    50  C    0.101124
    51  C    0.138488
    52  C    0.061926
    53  C    0.130588
    54  C   -0.125816
    55  C    0.119298
    56  C    0.064929
    57  C    0.087047
    58  C    0.085304
    59  C   -0.091191
    60  C    0.077243
    61  C    0.118379
    62  C    0.038240
    63  C    0.094283
    64  C   -0.038146
    65  C    0.097638
    66  C    0.078005
    67  H   -0.067317
    68  H   -0.043676
    69  H   -0.065757
    70  H    0.019096
    71  H   -0.020886
    72  H   -0.002887
    73  H   -0.002084
    74  H   -0.037356
    75  H   -0.020180
    76  H   -0.023073
    77  H   -0.007033
    78  H   -0.012760
    79  H   -0.029590
    80  H    0.004095
    81  H    0.001305
    82  H    0.028402
    83  H   -0.020976
    84  H   -0.008833
    85  H   -0.039925
    86  H   -0.039018
    87  H    0.005565
    88  H   -0.009222
    89  H   -0.008904
    90  H   -0.007724
    91  H   -0.021750
    92  H   -0.013325
    93  H   -0.009365
    94  H   -0.005594
    95  H   -0.025143
    96  H    0.010242
    97  H    0.023501
    98  H    0.023657
    99  H    0.026118
   100  H    0.014508
   101  H    0.020227
   102  H    0.009341
   103  H    0.006739
   104  H   -0.029508
   105  H    0.005753
   106  H   -0.010908
   107  H    0.007662
   108  H   -0.010619
   109  H   -0.025858
   110  H   -0.025937
   111  H   -0.032041
   112  H   -0.021537
   113  H   -0.035097
   114  H   -0.035018
   115  H   -0.016702
   116  H   -0.033655
   117  H   -0.004471
   118  H   -0.022015
   119  H   -0.018296
   120  H   -0.030426
   121  H   -0.040589
   122  H   -0.037496
   123  H   -0.033582
   124  H   -0.029781
   125  H   -0.022473
   126  H   -0.008231
   127  H   -0.023990
   128  H   -0.032957
   129  H   -0.035601
   130  H   -0.014446
   131  H   -0.016260
   132  H   -0.048417
   133  H   -0.038772
   134  H   -0.025755
   135  H   -0.020509
   136  H   -0.007605
   137  H   -0.000686
   138  H   -0.016440
   139  H   -0.020858
   140  H   -0.031926
 Sum of Mulliken charges =  -0.00000

 Dipole moment (field-independent basis, Debye):
    X=             -3.8204    Y=              1.4284    Z=              2.7866  Tot=              4.9397
 Quadrupole moment (field-independent basis, Debye-Ang):
   XX=           -380.3193   YY=           -424.8645   ZZ=           -406.2751
   XY=              9.2136   XZ=              4.1567   YZ=            -13.2356

 Normal termination of Gaussian 16 at Thu Apr 28 08:53:28 2022.
