 Gaussian 16, Revision A.03,
 Gaussian 16:  ES64L-G16RevA.03 25-Dec-2016

 -----------------------------------
 #p cam-b3lyp/Def2SVP td=(nstates=5)
 -----------------------------------

 -------------------------------------------------------
 step_1501_chromophore_3 TDDFT with cam-b3lyp functional
 -------------------------------------------------------
 Symbolic Z-matrix:
 Charge =  0 Multiplicity = 1

                         Standard orientation:
 ---------------------------------------------------------------------
 Center     Atomic      Atomic             Coordinates (Angstroms)
 Number     Number       Type             X           Y           Z
 ---------------------------------------------------------------------
      1         12           0        5.458511    1.028383    0.338435
      2          6           0        4.402730   -2.255127   -0.002428
      3          6           0        2.204597    2.012647    0.244083
      4          6           0        6.655663    4.027127   -0.060921
      5          6           0        8.864576   -0.176914   -0.155597
      6          7           0        3.434575   -0.102370    0.338393
      7          6           0        3.245696   -1.432332    0.109977
      8          6           0        1.718324   -1.764008    0.170074
      9          6           0        1.135935   -0.304985    0.162192
     10          6           0        2.334255    0.613819    0.258080
     11          6           0        0.257889    0.074085   -1.066859
     12          6           0        1.406990   -2.614446    1.491383
     13          6           0        0.308708   -3.688243    1.291195
     14          6           0       -0.707690   -3.394243    0.331972
     15          8           0       -0.881196   -3.968095   -0.733870
     16          8           0       -1.425918   -2.340628    0.774882
     17          7           0        4.542432    2.796358    0.201644
     18          6           0        3.199123    3.036831    0.269718
     19          6           0        3.045710    4.446839    0.083109
     20          6           0        4.295665    5.048156    0.137990
     21          6           0        5.270726    3.931247    0.061958
     22          6           0        1.681049    5.077149   -0.001925
     23          6           0        4.598020    6.501111    0.123709
     24          8           0        5.745054    6.869525    0.129676
     25          6           0        3.480562    7.569174   -0.068153
     26          7           0        7.545615    1.886830    0.233980
     27          6           0        7.686445    3.171542    0.033523
     28          6           0        9.163745    3.518413   -0.365235
     29          6           0        9.892959    2.205513   -0.034975
     30          6           0        8.726128    1.211032    0.042901
     31          6           0        9.260062    3.993743   -1.819341
     32          6           0       10.696550    2.083747    1.325929
     33          6           0       12.071620    1.405307    1.118193
     34          7           0        6.467660   -0.716950   -0.047936
     35          6           0        7.828574   -1.116420   -0.174893
     36          6           0        7.921038   -2.535263   -0.388218
     37          6           0        6.646914   -3.020908   -0.401182
     38          6           0        5.771461   -1.926003   -0.111572
     39          6           0        9.207931   -3.469106   -0.379033
     40          6           0        5.856158   -4.219848   -0.516302
     41          8           0        6.189407   -5.344576   -0.915832
     42          6           0        4.373293   -3.801919   -0.094826
     43          6           0        3.496183   -4.263755   -1.167898
     44          8           0        3.075142   -3.547161   -2.034991
     45          8           0        3.344147   -5.660944   -1.053816
     46          6           0        2.612002   -6.387917   -2.139644
     47          6           0       -2.677211   -1.894663    0.074883
     48          6           0       -3.856288   -2.122981    1.068847
     49          6           0       -4.515213   -3.277864    1.427733
     50          6           0       -4.049521   -4.667233    0.916467
     51          6           0       -5.990148   -3.170215    1.976225
     52          6           0       -6.973488   -2.239593    1.171735
     53          6           0       -7.755603   -1.119764    1.893479
     54          6           0       -9.303193   -1.387617    1.969821
     55          6           0       -9.939249   -0.945505    3.342258
     56          6           0       -9.960117   -0.722048    0.668855
     57          6           0      -11.370056   -1.317209    0.350823
     58          6           0      -11.654009   -1.388299   -1.163292
     59          6           0      -12.803898   -0.399078   -1.574613
     60          6           0      -12.934743   -0.749989   -3.170876
     61          6           0      -12.656936    1.133632   -1.400952
     62          6           0      -13.899019    1.776973   -0.741968
     63          6           0      -13.714293    3.350145   -0.650171
     64          6           0      -15.029438    4.076504   -0.289744
     65          6           0      -15.607888    4.892419   -1.590762
     66          6           0      -14.811641    5.045056    0.878704
     67          1           0        1.190413    2.411952    0.180020
     68          1           0        6.948892    5.040704   -0.342090
     69          1           0        9.896683   -0.502302   -0.307506
     70          1           0        1.453028   -2.319238   -0.729333
     71          1           0        0.418998   -0.195360    0.976565
     72          1           0        0.276086   -0.709909   -1.823482
     73          1           0        0.424823    1.031456   -1.560680
     74          1           0       -0.777195    0.043186   -0.725407
     75          1           0        1.230748   -1.938593    2.327383
     76          1           0        2.306679   -3.155392    1.784389
     77          1           0       -0.177697   -3.936503    2.234310
     78          1           0        0.732302   -4.638411    0.966883
     79          1           0        0.898006    4.325791   -0.102324
     80          1           0        1.496281    5.810321   -0.787744
     81          1           0        1.494647    5.474936    0.995457
     82          1           0        2.972157    7.520940   -1.030860
     83          1           0        4.013792    8.511018    0.061653
     84          1           0        2.888832    7.513952    0.845488
     85          1           0        9.633643    4.282299    0.254368
     86          1           0       10.625254    2.079518   -0.832582
     87          1           0        8.588050    4.813570   -2.071621
     88          1           0        9.017593    3.151994   -2.468381
     89          1           0       10.299105    4.294780   -1.951535
     90          1           0       10.231442    1.463277    2.092118
     91          1           0       10.940769    3.057650    1.750453
     92          1           0       12.770942    2.200071    0.859810
     93          1           0       12.112273    0.733471    0.261209
     94          1           0       12.431083    0.845311    1.981253
     95          1           0       10.039424   -2.809672   -0.627537
     96          1           0        9.098237   -4.141751   -1.230245
     97          1           0        9.435736   -4.011641    0.538233
     98          1           0        4.121296   -4.184456    0.894673
     99          1           0        1.551229   -6.562805   -1.955272
    100          1           0        3.088433   -7.367919   -2.179517
    101          1           0        2.783114   -5.856058   -3.075063
    102          1           0       -2.688051   -2.473992   -0.848230
    103          1           0       -2.659698   -0.832486   -0.170675
    104          1           0       -4.236326   -1.123491    1.281479
    105          1           0       -3.526542   -4.539424   -0.031455
    106          1           0       -4.759295   -5.439961    0.620198
    107          1           0       -3.390873   -5.164859    1.627568
    108          1           0       -5.853406   -2.739399    2.968411
    109          1           0       -6.396592   -4.179173    2.034297
    110          1           0       -7.720056   -2.890403    0.716758
    111          1           0       -6.361959   -1.792249    0.388549
    112          1           0       -7.595371   -0.177389    1.370758
    113          1           0       -7.516542   -1.156823    2.956821
    114          1           0       -9.485229   -2.459536    1.892255
    115          1           0      -10.549610   -0.058128    3.179142
    116          1           0       -9.090357   -0.618068    3.942855
    117          1           0      -10.421145   -1.713063    3.947347
    118          1           0       -9.266226   -0.822052   -0.165650
    119          1           0      -10.206434    0.319386    0.876357
    120          1           0      -12.152994   -0.712552    0.808585
    121          1           0      -11.410349   -2.317814    0.782276
    122          1           0      -11.972235   -2.409148   -1.373282
    123          1           0      -10.722920   -1.290613   -1.723240
    124          1           0      -13.704362   -0.812859   -1.120416
    125          1           0      -13.853989   -1.322800   -3.298007
    126          1           0      -12.118531   -1.352324   -3.568459
    127          1           0      -13.073078    0.155981   -3.760967
    128          1           0      -12.553911    1.587634   -2.386583
    129          1           0      -11.735222    1.267494   -0.835208
    130          1           0      -13.904320    1.271399    0.223676
    131          1           0      -14.730174    1.547368   -1.408758
    132          1           0      -13.389104    3.729174   -1.619185
    133          1           0      -12.821744    3.548584   -0.056985
    134          1           0      -15.697166    3.365586    0.197807
    135          1           0      -15.445637    5.963845   -1.470566
    136          1           0      -16.696972    4.877553   -1.610990
    137          1           0      -15.056197    4.574553   -2.475229
    138          1           0      -15.571375    4.935515    1.652780
    139          1           0      -14.702413    6.091889    0.595825
    140          1           0      -13.871729    4.861514    1.398245
 ---------------------------------------------------------------------

 SCF Done:  E(RCAM-B3LYP) =  -3007.16385233     A.U. after   17 cycles

 Excitation energies and oscillator strengths:

 Excited State   1:      Singlet-A      1.7674 eV  701.52 nm  f=0.3640  <S**2>=0.000
     245 -> 248       -0.20404
     246 -> 247        0.67910
     245 <- 248       -0.11143
 This state for optimization and/or second-order correction.
 Total Energy, E(TD-HF/TD-DFT) =  -3007.09890290
 Copying the excited state density for this state as the 1-particle RhoCI density.

 Excited State   2:      Singlet-A      2.2607 eV  548.42 nm  f=0.1030  <S**2>=0.000
     245 -> 247        0.63594
     246 -> 248        0.30111

 Excited State   3:      Singlet-A      3.5222 eV  352.01 nm  f=0.6844  <S**2>=0.000
     245 -> 247       -0.27988
     246 -> 248        0.61546
     245 <- 247        0.10901

 Excited State   4:      Singlet-A      3.6062 eV  343.81 nm  f=0.0028  <S**2>=0.000
     243 -> 247        0.28112
     243 -> 249        0.13264
     244 -> 247        0.60046

 Excited State   5:      Singlet-A      3.6637 eV  338.41 nm  f=0.0033  <S**2>=0.000
     239 -> 247        0.15369
     240 -> 247        0.16827
     240 -> 249        0.14330
     240 -> 251        0.10472
     241 -> 247       -0.13104
     243 -> 247        0.41992
     243 -> 249        0.13181
     243 -> 251        0.11599
     244 -> 247       -0.33586

 The electronic state is 1-A.
 Alpha  occ. eigenvalues --  -46.88603 -19.24681 -19.23456 -19.19798 -19.19484
 Alpha  occ. eigenvalues --  -19.19011 -19.18634 -14.41590 -14.40940 -14.39388
 Alpha  occ. eigenvalues --  -14.39346 -10.38695 -10.38629 -10.35203 -10.34624
 Alpha  occ. eigenvalues --  -10.33067 -10.31044 -10.30676 -10.30351 -10.30285
 Alpha  occ. eigenvalues --  -10.30103 -10.29740 -10.29565 -10.29391 -10.29208
 Alpha  occ. eigenvalues --  -10.29059 -10.28278 -10.28070 -10.28042 -10.27913
 Alpha  occ. eigenvalues --  -10.27820 -10.27696 -10.27306 -10.27214 -10.27036
 Alpha  occ. eigenvalues --  -10.26963 -10.26962 -10.26829 -10.26817 -10.26792
 Alpha  occ. eigenvalues --  -10.26387 -10.26327 -10.26257 -10.26251 -10.26251
 Alpha  occ. eigenvalues --  -10.26201 -10.26175 -10.26103 -10.26042 -10.25685
 Alpha  occ. eigenvalues --  -10.25547 -10.25472 -10.25389 -10.25346 -10.25302
 Alpha  occ. eigenvalues --  -10.25258 -10.25177 -10.25005 -10.24945 -10.24900
 Alpha  occ. eigenvalues --  -10.24839 -10.24828 -10.24608 -10.24512 -10.24245
 Alpha  occ. eigenvalues --  -10.23986  -3.17132  -1.92031  -1.91600  -1.91427
 Alpha  occ. eigenvalues --   -1.16270  -1.14712  -1.10999  -1.08728  -1.07521
 Alpha  occ. eigenvalues --   -1.07082  -1.04463  -1.04016  -1.03178  -1.01509
 Alpha  occ. eigenvalues --   -0.91850  -0.90014  -0.89478  -0.88937  -0.88914
 Alpha  occ. eigenvalues --   -0.87984  -0.87964  -0.87175  -0.86991  -0.86833
 Alpha  occ. eigenvalues --   -0.85676  -0.85620  -0.83935  -0.83457  -0.83314
 Alpha  occ. eigenvalues --   -0.82266  -0.81518  -0.80696  -0.80259  -0.79914
 Alpha  occ. eigenvalues --   -0.79523  -0.78012  -0.77799  -0.76729  -0.75960
 Alpha  occ. eigenvalues --   -0.75634  -0.75264  -0.74807  -0.74459  -0.73927
 Alpha  occ. eigenvalues --   -0.73329  -0.72885  -0.71375  -0.71062  -0.68718
 Alpha  occ. eigenvalues --   -0.68270  -0.68116  -0.67373  -0.67001  -0.65766
 Alpha  occ. eigenvalues --   -0.65312  -0.64920  -0.64812  -0.64067  -0.63814
 Alpha  occ. eigenvalues --   -0.63455  -0.63175  -0.62533  -0.60911  -0.60323
 Alpha  occ. eigenvalues --   -0.60155  -0.59705  -0.59459  -0.58169  -0.57921
 Alpha  occ. eigenvalues --   -0.57613  -0.56501  -0.56179  -0.55721  -0.55337
 Alpha  occ. eigenvalues --   -0.55012  -0.54941  -0.54375  -0.54012  -0.53753
 Alpha  occ. eigenvalues --   -0.53341  -0.53103  -0.52959  -0.52897  -0.52801
 Alpha  occ. eigenvalues --   -0.52463  -0.52104  -0.51700  -0.51660  -0.51379
 Alpha  occ. eigenvalues --   -0.51162  -0.50786  -0.50507  -0.50464  -0.50384
 Alpha  occ. eigenvalues --   -0.50152  -0.50003  -0.49703  -0.49520  -0.49461
 Alpha  occ. eigenvalues --   -0.49280  -0.48925  -0.48836  -0.48621  -0.48503
 Alpha  occ. eigenvalues --   -0.48258  -0.47803  -0.47702  -0.47662  -0.47541
 Alpha  occ. eigenvalues --   -0.47296  -0.47088  -0.46863  -0.46655  -0.46603
 Alpha  occ. eigenvalues --   -0.46261  -0.46132  -0.46038  -0.45856  -0.45559
 Alpha  occ. eigenvalues --   -0.45461  -0.45215  -0.45093  -0.44934  -0.44880
 Alpha  occ. eigenvalues --   -0.44779  -0.44290  -0.44063  -0.43803  -0.43541
 Alpha  occ. eigenvalues --   -0.43323  -0.43251  -0.43029  -0.42874  -0.42848
 Alpha  occ. eigenvalues --   -0.42490  -0.42166  -0.41941  -0.41793  -0.41528
 Alpha  occ. eigenvalues --   -0.41270  -0.41115  -0.40878  -0.40828  -0.40729
 Alpha  occ. eigenvalues --   -0.40647  -0.40502  -0.40451  -0.40239  -0.40107
 Alpha  occ. eigenvalues --   -0.39810  -0.39619  -0.39318  -0.39131  -0.38790
 Alpha  occ. eigenvalues --   -0.38738  -0.38379  -0.38057  -0.37840  -0.37804
 Alpha  occ. eigenvalues --   -0.37407  -0.37188  -0.36739  -0.36512  -0.36300
 Alpha  occ. eigenvalues --   -0.35889  -0.35558  -0.35163  -0.34402  -0.34120
 Alpha  occ. eigenvalues --   -0.34052  -0.33299  -0.32889  -0.31459  -0.30865
 Alpha  occ. eigenvalues --   -0.30409  -0.30367  -0.30239  -0.29825  -0.23506
 Alpha  occ. eigenvalues --   -0.20882
 Alpha virt. eigenvalues --   -0.07984  -0.01520   0.00411   0.02339   0.02636
 Alpha virt. eigenvalues --    0.03366   0.05197   0.05971   0.06324   0.06913
 Alpha virt. eigenvalues --    0.08617   0.08755   0.08797   0.09406   0.09576

 Mulliken charges:
               1
     1  Mg   0.823091
     2  C   -0.018886
     3  C   -0.072623
     4  C   -0.062447
     5  C   -0.083256
     6  N   -0.237597
     7  C   -0.037828
     8  C   -0.039476
     9  C   -0.046611
    10  C    0.072367
    11  C    0.047448
    12  C    0.086976
    13  C    0.105216
    14  C    0.124507
    15  O   -0.234670
    16  O   -0.353729
    17  N   -0.424013
    18  C    0.134992
    19  C   -0.156505
    20  C    0.008041
    21  C    0.131874
    22  C    0.117303
    23  C   -0.055007
    24  O   -0.188856
    25  C    0.065517
    26  N   -0.229954
    27  C    0.028581
    28  C   -0.022806
    29  C   -0.043921
    30  C    0.020589
    31  C    0.072235
    32  C    0.059492
    33  C   -0.027455
    34  N   -0.401663
    35  C    0.154246
    36  C   -0.200967
    37  C    0.073657
    38  C    0.124856
    39  C    0.114032
    40  C    0.045164
    41  O   -0.176615
    42  C   -0.065582
    43  C    0.219874
    44  O   -0.194097
    45  O   -0.369091
    46  C    0.174223
    47  C    0.244118
    48  C   -0.113393
    49  C   -0.133231
    50  C    0.036542
    51  C    0.086083
    52  C    0.002626
    53  C    0.074075
    54  C   -0.174926
    55  C    0.059194
    56  C    0.017141
    57  C    0.034132
    58  C    0.032866
    59  C   -0.147414
    60  C    0.023283
    61  C    0.066691
    62  C   -0.012386
    63  C    0.041877
    64  C   -0.104210
    65  C    0.041052
    66  C    0.022517
    67  H   -0.033049
    68  H   -0.005396
    69  H   -0.031825
    70  H    0.052398
    71  H    0.015304
    72  H    0.022781
    73  H    0.023835
    74  H   -0.018401
    75  H    0.011621
    76  H    0.006131
    77  H    0.027337
    78  H    0.019012
    79  H   -0.000411
    80  H    0.030444
    81  H    0.028876
    82  H    0.054896
    83  H    0.016101
    84  H    0.020065
    85  H   -0.003787
    86  H   -0.002233
    87  H    0.030062
    88  H    0.014880
    89  H    0.015059
    90  H    0.021141
    91  H    0.006195
    92  H    0.009618
    93  H    0.010345
    94  H    0.019098
    95  H   -0.002166
    96  H    0.036360
    97  H    0.047348
    98  H    0.062940
    99  H    0.045906
   100  H    0.037484
   101  H    0.044308
   102  H    0.043212
   103  H    0.032043
   104  H    0.000412
   105  H    0.029281
   106  H    0.015863
   107  H    0.030463
   108  H    0.017987
   109  H    0.003925
   110  H    0.002132
   111  H   -0.001578
   112  H    0.007222
   113  H   -0.007158
   114  H   -0.004668
   115  H    0.006776
   116  H   -0.008509
   117  H    0.019998
   118  H    0.003749
   119  H    0.005958
   120  H   -0.005151
   121  H   -0.011181
   122  H   -0.006069
   123  H   -0.005401
   124  H    0.002530
   125  H    0.001650
   126  H    0.014632
   127  H   -0.000534
   128  H   -0.005309
   129  H   -0.010580
   130  H    0.009234
   131  H    0.009335
   132  H   -0.019874
   133  H   -0.009381
   134  H    0.006223
   135  H    0.002622
   136  H    0.016498
   137  H    0.021028
   138  H    0.007515
   139  H    0.002357
   140  H   -0.006790
 Sum of Mulliken charges =  -0.00000

 Dipole moment (field-independent basis, Debye):
    X=             -4.2424    Y=              1.9333    Z=              2.8289  Tot=              5.4533
 Quadrupole moment (field-independent basis, Debye-Ang):
   XX=           -382.2187   YY=           -419.5121   ZZ=           -406.2837
   XY=             10.4915   XZ=              4.5243   YZ=            -13.5547

 Normal termination of Gaussian 16 at Thu Apr 28 07:50:46 2022.
