 Gaussian 16, Revision A.03,
 Gaussian 16:  ES64L-G16RevA.03 25-Dec-2016

 ---------------------------------
 #p PBE1PBE/Def2SVP td=(nstates=5)
 ---------------------------------

 -----------------------------------------------------
 step_1501_chromophore_3 TDDFT with PBE1PBE functional
 -----------------------------------------------------
 Symbolic Z-matrix:
 Charge =  0 Multiplicity = 1

                         Standard orientation:
 ---------------------------------------------------------------------
 Center     Atomic      Atomic             Coordinates (Angstroms)
 Number     Number       Type             X           Y           Z
 ---------------------------------------------------------------------
      1         12           0        5.458511    1.028383    0.338435
      2          6           0        4.402730   -2.255127   -0.002428
      3          6           0        2.204597    2.012647    0.244083
      4          6           0        6.655663    4.027127   -0.060921
      5          6           0        8.864576   -0.176914   -0.155597
      6          7           0        3.434575   -0.102370    0.338393
      7          6           0        3.245696   -1.432332    0.109977
      8          6           0        1.718324   -1.764008    0.170074
      9          6           0        1.135935   -0.304985    0.162192
     10          6           0        2.334255    0.613819    0.258080
     11          6           0        0.257889    0.074085   -1.066859
     12          6           0        1.406990   -2.614446    1.491383
     13          6           0        0.308708   -3.688243    1.291195
     14          6           0       -0.707690   -3.394243    0.331972
     15          8           0       -0.881196   -3.968095   -0.733870
     16          8           0       -1.425918   -2.340628    0.774882
     17          7           0        4.542432    2.796358    0.201644
     18          6           0        3.199123    3.036831    0.269718
     19          6           0        3.045710    4.446839    0.083109
     20          6           0        4.295665    5.048156    0.137990
     21          6           0        5.270726    3.931247    0.061958
     22          6           0        1.681049    5.077149   -0.001925
     23          6           0        4.598020    6.501111    0.123709
     24          8           0        5.745054    6.869525    0.129676
     25          6           0        3.480562    7.569174   -0.068153
     26          7           0        7.545615    1.886830    0.233980
     27          6           0        7.686445    3.171542    0.033523
     28          6           0        9.163745    3.518413   -0.365235
     29          6           0        9.892959    2.205513   -0.034975
     30          6           0        8.726128    1.211032    0.042901
     31          6           0        9.260062    3.993743   -1.819341
     32          6           0       10.696550    2.083747    1.325929
     33          6           0       12.071620    1.405307    1.118193
     34          7           0        6.467660   -0.716950   -0.047936
     35          6           0        7.828574   -1.116420   -0.174893
     36          6           0        7.921038   -2.535263   -0.388218
     37          6           0        6.646914   -3.020908   -0.401182
     38          6           0        5.771461   -1.926003   -0.111572
     39          6           0        9.207931   -3.469106   -0.379033
     40          6           0        5.856158   -4.219848   -0.516302
     41          8           0        6.189407   -5.344576   -0.915832
     42          6           0        4.373293   -3.801919   -0.094826
     43          6           0        3.496183   -4.263755   -1.167898
     44          8           0        3.075142   -3.547161   -2.034991
     45          8           0        3.344147   -5.660944   -1.053816
     46          6           0        2.612002   -6.387917   -2.139644
     47          6           0       -2.677211   -1.894663    0.074883
     48          6           0       -3.856288   -2.122981    1.068847
     49          6           0       -4.515213   -3.277864    1.427733
     50          6           0       -4.049521   -4.667233    0.916467
     51          6           0       -5.990148   -3.170215    1.976225
     52          6           0       -6.973488   -2.239593    1.171735
     53          6           0       -7.755603   -1.119764    1.893479
     54          6           0       -9.303193   -1.387617    1.969821
     55          6           0       -9.939249   -0.945505    3.342258
     56          6           0       -9.960117   -0.722048    0.668855
     57          6           0      -11.370056   -1.317209    0.350823
     58          6           0      -11.654009   -1.388299   -1.163292
     59          6           0      -12.803898   -0.399078   -1.574613
     60          6           0      -12.934743   -0.749989   -3.170876
     61          6           0      -12.656936    1.133632   -1.400952
     62          6           0      -13.899019    1.776973   -0.741968
     63          6           0      -13.714293    3.350145   -0.650171
     64          6           0      -15.029438    4.076504   -0.289744
     65          6           0      -15.607888    4.892419   -1.590762
     66          6           0      -14.811641    5.045056    0.878704
     67          1           0        1.190413    2.411952    0.180020
     68          1           0        6.948892    5.040704   -0.342090
     69          1           0        9.896683   -0.502302   -0.307506
     70          1           0        1.453028   -2.319238   -0.729333
     71          1           0        0.418998   -0.195360    0.976565
     72          1           0        0.276086   -0.709909   -1.823482
     73          1           0        0.424823    1.031456   -1.560680
     74          1           0       -0.777195    0.043186   -0.725407
     75          1           0        1.230748   -1.938593    2.327383
     76          1           0        2.306679   -3.155392    1.784389
     77          1           0       -0.177697   -3.936503    2.234310
     78          1           0        0.732302   -4.638411    0.966883
     79          1           0        0.898006    4.325791   -0.102324
     80          1           0        1.496281    5.810321   -0.787744
     81          1           0        1.494647    5.474936    0.995457
     82          1           0        2.972157    7.520940   -1.030860
     83          1           0        4.013792    8.511018    0.061653
     84          1           0        2.888832    7.513952    0.845488
     85          1           0        9.633643    4.282299    0.254368
     86          1           0       10.625254    2.079518   -0.832582
     87          1           0        8.588050    4.813570   -2.071621
     88          1           0        9.017593    3.151994   -2.468381
     89          1           0       10.299105    4.294780   -1.951535
     90          1           0       10.231442    1.463277    2.092118
     91          1           0       10.940769    3.057650    1.750453
     92          1           0       12.770942    2.200071    0.859810
     93          1           0       12.112273    0.733471    0.261209
     94          1           0       12.431083    0.845311    1.981253
     95          1           0       10.039424   -2.809672   -0.627537
     96          1           0        9.098237   -4.141751   -1.230245
     97          1           0        9.435736   -4.011641    0.538233
     98          1           0        4.121296   -4.184456    0.894673
     99          1           0        1.551229   -6.562805   -1.955272
    100          1           0        3.088433   -7.367919   -2.179517
    101          1           0        2.783114   -5.856058   -3.075063
    102          1           0       -2.688051   -2.473992   -0.848230
    103          1           0       -2.659698   -0.832486   -0.170675
    104          1           0       -4.236326   -1.123491    1.281479
    105          1           0       -3.526542   -4.539424   -0.031455
    106          1           0       -4.759295   -5.439961    0.620198
    107          1           0       -3.390873   -5.164859    1.627568
    108          1           0       -5.853406   -2.739399    2.968411
    109          1           0       -6.396592   -4.179173    2.034297
    110          1           0       -7.720056   -2.890403    0.716758
    111          1           0       -6.361959   -1.792249    0.388549
    112          1           0       -7.595371   -0.177389    1.370758
    113          1           0       -7.516542   -1.156823    2.956821
    114          1           0       -9.485229   -2.459536    1.892255
    115          1           0      -10.549610   -0.058128    3.179142
    116          1           0       -9.090357   -0.618068    3.942855
    117          1           0      -10.421145   -1.713063    3.947347
    118          1           0       -9.266226   -0.822052   -0.165650
    119          1           0      -10.206434    0.319386    0.876357
    120          1           0      -12.152994   -0.712552    0.808585
    121          1           0      -11.410349   -2.317814    0.782276
    122          1           0      -11.972235   -2.409148   -1.373282
    123          1           0      -10.722920   -1.290613   -1.723240
    124          1           0      -13.704362   -0.812859   -1.120416
    125          1           0      -13.853989   -1.322800   -3.298007
    126          1           0      -12.118531   -1.352324   -3.568459
    127          1           0      -13.073078    0.155981   -3.760967
    128          1           0      -12.553911    1.587634   -2.386583
    129          1           0      -11.735222    1.267494   -0.835208
    130          1           0      -13.904320    1.271399    0.223676
    131          1           0      -14.730174    1.547368   -1.408758
    132          1           0      -13.389104    3.729174   -1.619185
    133          1           0      -12.821744    3.548584   -0.056985
    134          1           0      -15.697166    3.365586    0.197807
    135          1           0      -15.445637    5.963845   -1.470566
    136          1           0      -16.696972    4.877553   -1.610990
    137          1           0      -15.056197    4.574553   -2.475229
    138          1           0      -15.571375    4.935515    1.652780
    139          1           0      -14.702413    6.091889    0.595825
    140          1           0      -13.871729    4.861514    1.398245
 ---------------------------------------------------------------------

 SCF Done:  E(RPBE1PBE) =  -3005.35003612     A.U. after   15 cycles

 Excitation energies and oscillator strengths:

 Excited State   1:      Singlet-A      1.9187 eV  646.18 nm  f=0.3527  <S**2>=0.000
     245 -> 248       -0.19545
     246 -> 247        0.68551
 This state for optimization and/or second-order correction.
 Total Energy, E(TD-HF/TD-DFT) =  -3005.27952435
 Copying the excited state density for this state as the 1-particle RhoCI density.

 Excited State   2:      Singlet-A      2.2586 eV  548.94 nm  f=0.1084  <S**2>=0.000
     245 -> 247        0.64999
     246 -> 248        0.26953

 Excited State   3:      Singlet-A      3.1149 eV  398.03 nm  f=0.0002  <S**2>=0.000
     242 -> 247        0.35642
     242 -> 249       -0.13853
     243 -> 247        0.39988
     243 -> 249       -0.10502
     244 -> 247       -0.38214

 Excited State   4:      Singlet-A      3.1205 eV  397.32 nm  f=0.0090  <S**2>=0.000
     240 -> 247        0.10703
     242 -> 247        0.31092
     243 -> 247        0.21280
     244 -> 247        0.54029
     244 -> 249        0.12134

 Excited State   5:      Singlet-A      3.2805 eV  377.94 nm  f=0.0009  <S**2>=0.000
     242 -> 247       -0.46870
     243 -> 247        0.49424
     244 -> 247        0.10145

 The electronic state is 1-A.
 Alpha  occ. eigenvalues --  -46.92013 -19.25332 -19.24128 -19.19984 -19.19765
 Alpha  occ. eigenvalues --  -19.19307 -19.18779 -14.41050 -14.40466 -14.39137
 Alpha  occ. eigenvalues --  -14.38978 -10.35667 -10.35578 -10.32407 -10.31691
 Alpha  occ. eigenvalues --  -10.30464 -10.28888 -10.28127 -10.27996 -10.27890
 Alpha  occ. eigenvalues --  -10.27704 -10.27395 -10.27349 -10.27026 -10.26934
 Alpha  occ. eigenvalues --  -10.26868 -10.26143 -10.25720 -10.25702 -10.25669
 Alpha  occ. eigenvalues --  -10.25492 -10.25451 -10.25100 -10.25091 -10.24765
 Alpha  occ. eigenvalues --  -10.24658 -10.24584 -10.24412 -10.24281 -10.24176
 Alpha  occ. eigenvalues --  -10.24069 -10.24028 -10.24008 -10.23952 -10.23877
 Alpha  occ. eigenvalues --  -10.23847 -10.23689 -10.23578 -10.23267 -10.23266
 Alpha  occ. eigenvalues --  -10.23031 -10.23011 -10.22989 -10.22853 -10.22832
 Alpha  occ. eigenvalues --  -10.22729 -10.22690 -10.22654 -10.22584 -10.22403
 Alpha  occ. eigenvalues --  -10.22384 -10.22361 -10.22270 -10.22054 -10.21701
 Alpha  occ. eigenvalues --  -10.21375  -3.14122  -1.86961  -1.86508  -1.86340
 Alpha  occ. eigenvalues --   -1.11037  -1.09406  -1.05682  -1.03507  -1.02365
 Alpha  occ. eigenvalues --   -1.01908  -0.99076  -0.98656  -0.97825  -0.96233
 Alpha  occ. eigenvalues --   -0.86230  -0.84165  -0.83600  -0.83221  -0.83049
 Alpha  occ. eigenvalues --   -0.82263  -0.82104  -0.81487  -0.81272  -0.80950
 Alpha  occ. eigenvalues --   -0.80063  -0.79920  -0.78117  -0.77734  -0.77626
 Alpha  occ. eigenvalues --   -0.76464  -0.75753  -0.74854  -0.74541  -0.74140
 Alpha  occ. eigenvalues --   -0.73660  -0.72249  -0.72066  -0.71070  -0.70131
 Alpha  occ. eigenvalues --   -0.69949  -0.69349  -0.69150  -0.68629  -0.68099
 Alpha  occ. eigenvalues --   -0.67623  -0.67327  -0.65810  -0.65420  -0.63180
 Alpha  occ. eigenvalues --   -0.62634  -0.62369  -0.61820  -0.61227  -0.60247
 Alpha  occ. eigenvalues --   -0.59523  -0.59401  -0.59280  -0.58385  -0.58196
 Alpha  occ. eigenvalues --   -0.57932  -0.57382  -0.56739  -0.55483  -0.54835
 Alpha  occ. eigenvalues --   -0.54533  -0.54304  -0.53955  -0.52792  -0.52273
 Alpha  occ. eigenvalues --   -0.52271  -0.50997  -0.50778  -0.50182  -0.49855
 Alpha  occ. eigenvalues --   -0.49607  -0.49230  -0.48931  -0.48556  -0.48278
 Alpha  occ. eigenvalues --   -0.47846  -0.47604  -0.47519  -0.47298  -0.47221
 Alpha  occ. eigenvalues --   -0.46950  -0.46661  -0.46251  -0.46190  -0.45927
 Alpha  occ. eigenvalues --   -0.45760  -0.45345  -0.45095  -0.45053  -0.44933
 Alpha  occ. eigenvalues --   -0.44711  -0.44551  -0.44233  -0.44149  -0.44023
 Alpha  occ. eigenvalues --   -0.43812  -0.43496  -0.43430  -0.43178  -0.43092
 Alpha  occ. eigenvalues --   -0.42814  -0.42456  -0.42339  -0.42281  -0.42121
 Alpha  occ. eigenvalues --   -0.41913  -0.41718  -0.41549  -0.41346  -0.41265
 Alpha  occ. eigenvalues --   -0.40950  -0.40850  -0.40716  -0.40539  -0.40266
 Alpha  occ. eigenvalues --   -0.40141  -0.39908  -0.39825  -0.39649  -0.39524
 Alpha  occ. eigenvalues --   -0.39513  -0.39028  -0.38872  -0.38592  -0.38331
 Alpha  occ. eigenvalues --   -0.38051  -0.38016  -0.37839  -0.37724  -0.37590
 Alpha  occ. eigenvalues --   -0.37298  -0.36968  -0.36789  -0.36730  -0.36337
 Alpha  occ. eigenvalues --   -0.36037  -0.35996  -0.35737  -0.35630  -0.35576
 Alpha  occ. eigenvalues --   -0.35462  -0.35424  -0.35333  -0.35066  -0.34998
 Alpha  occ. eigenvalues --   -0.34690  -0.34382  -0.34231  -0.34048  -0.33686
 Alpha  occ. eigenvalues --   -0.33570  -0.33203  -0.32813  -0.32807  -0.32605
 Alpha  occ. eigenvalues --   -0.32251  -0.32114  -0.31795  -0.31387  -0.31211
 Alpha  occ. eigenvalues --   -0.30825  -0.30603  -0.30159  -0.29309  -0.29164
 Alpha  occ. eigenvalues --   -0.28919  -0.28452  -0.28342  -0.26973  -0.26183
 Alpha  occ. eigenvalues --   -0.25679  -0.25534  -0.25468  -0.25209  -0.20481
 Alpha  occ. eigenvalues --   -0.18528
 Alpha virt. eigenvalues --   -0.10538  -0.04987  -0.03848  -0.02141  -0.01681
 Alpha virt. eigenvalues --    0.00509   0.00660   0.01421   0.02350   0.03474
 Alpha virt. eigenvalues --    0.04466   0.05140   0.05359   0.05866   0.06165

 Mulliken charges:
               1
     1  Mg   0.970002
     2  C   -0.037762
     3  C   -0.070729
     4  C   -0.064556
     5  C   -0.072154
     6  N   -0.342232
     7  C    0.040387
     8  C   -0.112753
     9  C   -0.117990
    10  C    0.111105
    11  C   -0.014103
    12  C    0.036649
    13  C    0.028955
    14  C    0.194674
    15  O   -0.271306
    16  O   -0.380682
    17  N   -0.547696
    18  C    0.175523
    19  C   -0.192037
    20  C   -0.048932
    21  C    0.172549
    22  C    0.057460
    23  C    0.000916
    24  O   -0.225729
    25  C   -0.011240
    26  N   -0.333578
    27  C    0.075623
    28  C   -0.101384
    29  C   -0.115832
    30  C    0.050771
    31  C    0.012838
    32  C    0.004006
    33  C   -0.098887
    34  N   -0.518652
    35  C    0.165012
    36  C   -0.207590
    37  C    0.022631
    38  C    0.167442
    39  C    0.059397
    40  C    0.138443
    41  O   -0.219060
    42  C   -0.170131
    43  C    0.305890
    44  O   -0.228774
    45  O   -0.399592
    46  C    0.121186
    47  C    0.199018
    48  C   -0.128630
    49  C   -0.171776
    50  C   -0.024752
    51  C    0.028148
    52  C   -0.061127
    53  C    0.012960
    54  C   -0.254531
    55  C   -0.000315
    56  C   -0.037848
    57  C   -0.029799
    58  C   -0.020146
    59  C   -0.231057
    60  C   -0.035604
    61  C    0.012446
    62  C   -0.086254
    63  C   -0.007190
    64  C   -0.199338
    65  C   -0.020263
    66  C   -0.032178
    67  H    0.000030
    68  H    0.027603
    69  H    0.002059
    70  H    0.091124
    71  H    0.051669
    72  H    0.050283
    73  H    0.050913
    74  H    0.015325
    75  H    0.042580
    76  H    0.041863
    77  H    0.060034
    78  H    0.052163
    79  H    0.027633
    80  H    0.056863
    81  H    0.057588
    82  H    0.079896
    83  H    0.044259
    84  H    0.048106
    85  H    0.033460
    86  H    0.034548
    87  H    0.058034
    88  H    0.043389
    89  H    0.043696
    90  H    0.053222
    91  H    0.038932
    92  H    0.038458
    93  H    0.036920
    94  H    0.047002
    95  H    0.026315
    96  H    0.063895
    97  H    0.073729
    98  H    0.098012
    99  H    0.066440
   100  H    0.059019
   101  H    0.064986
   102  H    0.067527
   103  H    0.056265
   104  H    0.030550
   105  H    0.056230
   106  H    0.041971
   107  H    0.058296
   108  H    0.050849
   109  H    0.035492
   110  H    0.034688
   111  H    0.031853
   112  H    0.039291
   113  H    0.026215
   114  H    0.033022
   115  H    0.034278
   116  H    0.018702
   117  H    0.046636
   118  H    0.035753
   119  H    0.038738
   120  H    0.029222
   121  H    0.021873
   122  H    0.027803
   123  H    0.026231
   124  H    0.039493
   125  H    0.030013
   126  H    0.040982
   127  H    0.026588
   128  H    0.026861
   129  H    0.025825
   130  H    0.043343
   131  H    0.043402
   132  H    0.012668
   133  H    0.021766
   134  H    0.043022
   135  H    0.029311
   136  H    0.044020
   137  H    0.046926
   138  H    0.034738
   139  H    0.029014
   140  H    0.020656
 Sum of Mulliken charges =  -0.00000

 Dipole moment (field-independent basis, Debye):
    X=             -4.0779    Y=              1.7884    Z=              2.8304  Tot=              5.2763
 Quadrupole moment (field-independent basis, Debye-Ang):
   XX=           -374.6026   YY=           -417.1395   ZZ=           -403.9341
   XY=             10.4659   XZ=              4.4480   YZ=            -13.7170

 Normal termination of Gaussian 16 at Thu Apr 28 08:09:20 2022.
