 Gaussian 16, Revision A.03,
 Gaussian 16:  ES64L-G16RevA.03 25-Dec-2016

 --------------------------------
 #p wB97XD/Def2SVP td=(nstates=5)
 --------------------------------

 ----------------------------------------------------
 step_1501_chromophore_3 TDDFT with wB97XD functional
 ----------------------------------------------------
 Symbolic Z-matrix:
 Charge =  0 Multiplicity = 1

                         Standard orientation:
 ---------------------------------------------------------------------
 Center     Atomic      Atomic             Coordinates (Angstroms)
 Number     Number       Type             X           Y           Z
 ---------------------------------------------------------------------
      1         12           0        5.458511    1.028383    0.338435
      2          6           0        4.402730   -2.255127   -0.002428
      3          6           0        2.204597    2.012647    0.244083
      4          6           0        6.655663    4.027127   -0.060921
      5          6           0        8.864576   -0.176914   -0.155597
      6          7           0        3.434575   -0.102370    0.338393
      7          6           0        3.245696   -1.432332    0.109977
      8          6           0        1.718324   -1.764008    0.170074
      9          6           0        1.135935   -0.304985    0.162192
     10          6           0        2.334255    0.613819    0.258080
     11          6           0        0.257889    0.074085   -1.066859
     12          6           0        1.406990   -2.614446    1.491383
     13          6           0        0.308708   -3.688243    1.291195
     14          6           0       -0.707690   -3.394243    0.331972
     15          8           0       -0.881196   -3.968095   -0.733870
     16          8           0       -1.425918   -2.340628    0.774882
     17          7           0        4.542432    2.796358    0.201644
     18          6           0        3.199123    3.036831    0.269718
     19          6           0        3.045710    4.446839    0.083109
     20          6           0        4.295665    5.048156    0.137990
     21          6           0        5.270726    3.931247    0.061958
     22          6           0        1.681049    5.077149   -0.001925
     23          6           0        4.598020    6.501111    0.123709
     24          8           0        5.745054    6.869525    0.129676
     25          6           0        3.480562    7.569174   -0.068153
     26          7           0        7.545615    1.886830    0.233980
     27          6           0        7.686445    3.171542    0.033523
     28          6           0        9.163745    3.518413   -0.365235
     29          6           0        9.892959    2.205513   -0.034975
     30          6           0        8.726128    1.211032    0.042901
     31          6           0        9.260062    3.993743   -1.819341
     32          6           0       10.696550    2.083747    1.325929
     33          6           0       12.071620    1.405307    1.118193
     34          7           0        6.467660   -0.716950   -0.047936
     35          6           0        7.828574   -1.116420   -0.174893
     36          6           0        7.921038   -2.535263   -0.388218
     37          6           0        6.646914   -3.020908   -0.401182
     38          6           0        5.771461   -1.926003   -0.111572
     39          6           0        9.207931   -3.469106   -0.379033
     40          6           0        5.856158   -4.219848   -0.516302
     41          8           0        6.189407   -5.344576   -0.915832
     42          6           0        4.373293   -3.801919   -0.094826
     43          6           0        3.496183   -4.263755   -1.167898
     44          8           0        3.075142   -3.547161   -2.034991
     45          8           0        3.344147   -5.660944   -1.053816
     46          6           0        2.612002   -6.387917   -2.139644
     47          6           0       -2.677211   -1.894663    0.074883
     48          6           0       -3.856288   -2.122981    1.068847
     49          6           0       -4.515213   -3.277864    1.427733
     50          6           0       -4.049521   -4.667233    0.916467
     51          6           0       -5.990148   -3.170215    1.976225
     52          6           0       -6.973488   -2.239593    1.171735
     53          6           0       -7.755603   -1.119764    1.893479
     54          6           0       -9.303193   -1.387617    1.969821
     55          6           0       -9.939249   -0.945505    3.342258
     56          6           0       -9.960117   -0.722048    0.668855
     57          6           0      -11.370056   -1.317209    0.350823
     58          6           0      -11.654009   -1.388299   -1.163292
     59          6           0      -12.803898   -0.399078   -1.574613
     60          6           0      -12.934743   -0.749989   -3.170876
     61          6           0      -12.656936    1.133632   -1.400952
     62          6           0      -13.899019    1.776973   -0.741968
     63          6           0      -13.714293    3.350145   -0.650171
     64          6           0      -15.029438    4.076504   -0.289744
     65          6           0      -15.607888    4.892419   -1.590762
     66          6           0      -14.811641    5.045056    0.878704
     67          1           0        1.190413    2.411952    0.180020
     68          1           0        6.948892    5.040704   -0.342090
     69          1           0        9.896683   -0.502302   -0.307506
     70          1           0        1.453028   -2.319238   -0.729333
     71          1           0        0.418998   -0.195360    0.976565
     72          1           0        0.276086   -0.709909   -1.823482
     73          1           0        0.424823    1.031456   -1.560680
     74          1           0       -0.777195    0.043186   -0.725407
     75          1           0        1.230748   -1.938593    2.327383
     76          1           0        2.306679   -3.155392    1.784389
     77          1           0       -0.177697   -3.936503    2.234310
     78          1           0        0.732302   -4.638411    0.966883
     79          1           0        0.898006    4.325791   -0.102324
     80          1           0        1.496281    5.810321   -0.787744
     81          1           0        1.494647    5.474936    0.995457
     82          1           0        2.972157    7.520940   -1.030860
     83          1           0        4.013792    8.511018    0.061653
     84          1           0        2.888832    7.513952    0.845488
     85          1           0        9.633643    4.282299    0.254368
     86          1           0       10.625254    2.079518   -0.832582
     87          1           0        8.588050    4.813570   -2.071621
     88          1           0        9.017593    3.151994   -2.468381
     89          1           0       10.299105    4.294780   -1.951535
     90          1           0       10.231442    1.463277    2.092118
     91          1           0       10.940769    3.057650    1.750453
     92          1           0       12.770942    2.200071    0.859810
     93          1           0       12.112273    0.733471    0.261209
     94          1           0       12.431083    0.845311    1.981253
     95          1           0       10.039424   -2.809672   -0.627537
     96          1           0        9.098237   -4.141751   -1.230245
     97          1           0        9.435736   -4.011641    0.538233
     98          1           0        4.121296   -4.184456    0.894673
     99          1           0        1.551229   -6.562805   -1.955272
    100          1           0        3.088433   -7.367919   -2.179517
    101          1           0        2.783114   -5.856058   -3.075063
    102          1           0       -2.688051   -2.473992   -0.848230
    103          1           0       -2.659698   -0.832486   -0.170675
    104          1           0       -4.236326   -1.123491    1.281479
    105          1           0       -3.526542   -4.539424   -0.031455
    106          1           0       -4.759295   -5.439961    0.620198
    107          1           0       -3.390873   -5.164859    1.627568
    108          1           0       -5.853406   -2.739399    2.968411
    109          1           0       -6.396592   -4.179173    2.034297
    110          1           0       -7.720056   -2.890403    0.716758
    111          1           0       -6.361959   -1.792249    0.388549
    112          1           0       -7.595371   -0.177389    1.370758
    113          1           0       -7.516542   -1.156823    2.956821
    114          1           0       -9.485229   -2.459536    1.892255
    115          1           0      -10.549610   -0.058128    3.179142
    116          1           0       -9.090357   -0.618068    3.942855
    117          1           0      -10.421145   -1.713063    3.947347
    118          1           0       -9.266226   -0.822052   -0.165650
    119          1           0      -10.206434    0.319386    0.876357
    120          1           0      -12.152994   -0.712552    0.808585
    121          1           0      -11.410349   -2.317814    0.782276
    122          1           0      -11.972235   -2.409148   -1.373282
    123          1           0      -10.722920   -1.290613   -1.723240
    124          1           0      -13.704362   -0.812859   -1.120416
    125          1           0      -13.853989   -1.322800   -3.298007
    126          1           0      -12.118531   -1.352324   -3.568459
    127          1           0      -13.073078    0.155981   -3.760967
    128          1           0      -12.553911    1.587634   -2.386583
    129          1           0      -11.735222    1.267494   -0.835208
    130          1           0      -13.904320    1.271399    0.223676
    131          1           0      -14.730174    1.547368   -1.408758
    132          1           0      -13.389104    3.729174   -1.619185
    133          1           0      -12.821744    3.548584   -0.056985
    134          1           0      -15.697166    3.365586    0.197807
    135          1           0      -15.445637    5.963845   -1.470566
    136          1           0      -16.696972    4.877553   -1.610990
    137          1           0      -15.056197    4.574553   -2.475229
    138          1           0      -15.571375    4.935515    1.652780
    139          1           0      -14.702413    6.091889    0.595825
    140          1           0      -13.871729    4.861514    1.398245
 ---------------------------------------------------------------------

 SCF Done:  E(RwB97XD) =  -3007.86154174     A.U. after   19 cycles

 Excitation energies and oscillator strengths:

 Excited State   1:      Singlet-A      1.7092 eV  725.40 nm  f=0.3616  <S**2>=0.000
     245 -> 248       -0.20965
     246 -> 247        0.67721
     245 <- 248       -0.12099
 This state for optimization and/or second-order correction.
 Total Energy, E(TD-HF/TD-DFT) =  -3007.79873036
 Copying the excited state density for this state as the 1-particle RhoCI density.

 Excited State   2:      Singlet-A      2.2056 eV  562.13 nm  f=0.0997  <S**2>=0.000
     245 -> 247        0.63406
     246 -> 248        0.30356

 Excited State   3:      Singlet-A      3.5319 eV  351.04 nm  f=0.6945  <S**2>=0.000
     240 -> 247       -0.13024
     241 -> 247        0.10374
     245 -> 247       -0.27843
     246 -> 248        0.61338
     245 <- 247        0.11425

 Excited State   4:      Singlet-A      3.5685 eV  347.44 nm  f=0.0189  <S**2>=0.000
     240 -> 247        0.20302
     240 -> 249       -0.17551
     241 -> 247        0.44155
     241 -> 249       -0.31184
     241 -> 251        0.14562
     242 -> 247       -0.17055
     242 -> 249        0.11684

 Excited State   5:      Singlet-A      3.6191 eV  342.58 nm  f=0.0035  <S**2>=0.000
     243 -> 247        0.27402
     243 -> 249        0.16178
     243 -> 251        0.10395
     244 -> 247        0.60155

 The electronic state is 1-A.
 Alpha  occ. eigenvalues --  -46.94942 -19.29877 -19.28680 -19.24696 -19.24402
 Alpha  occ. eigenvalues --  -19.24070 -19.23650 -14.46170 -14.45518 -14.44029
 Alpha  occ. eigenvalues --  -14.43951 -10.42464 -10.42439 -10.39233 -10.38584
 Alpha  occ. eigenvalues --  -10.36986 -10.35086 -10.34397 -10.34370 -10.34300
 Alpha  occ. eigenvalues --  -10.34169 -10.33809 -10.33582 -10.33397 -10.33249
 Alpha  occ. eigenvalues --  -10.33085 -10.32376 -10.32109 -10.32063 -10.32028
 Alpha  occ. eigenvalues --  -10.31966 -10.31809 -10.31358 -10.31260 -10.31128
 Alpha  occ. eigenvalues --  -10.30990 -10.30936 -10.30777 -10.30775 -10.30652
 Alpha  occ. eigenvalues --  -10.30402 -10.30347 -10.30299 -10.30269 -10.30185
 Alpha  occ. eigenvalues --  -10.30115 -10.30085 -10.30026 -10.29925 -10.29637
 Alpha  occ. eigenvalues --  -10.29405 -10.29391 -10.29342 -10.29242 -10.29214
 Alpha  occ. eigenvalues --  -10.29144 -10.28992 -10.28944 -10.28927 -10.28783
 Alpha  occ. eigenvalues --  -10.28769 -10.28764 -10.28640 -10.28429 -10.28100
 Alpha  occ. eigenvalues --  -10.27798  -3.20917  -1.94505  -1.94053  -1.93877
 Alpha  occ. eigenvalues --   -1.18407  -1.16824  -1.13212  -1.10962  -1.09688
 Alpha  occ. eigenvalues --   -1.09275  -1.06472  -1.06021  -1.05237  -1.03547
 Alpha  occ. eigenvalues --   -0.93826  -0.91831  -0.91265  -0.90820  -0.90723
 Alpha  occ. eigenvalues --   -0.89869  -0.89776  -0.89126  -0.88926  -0.88621
 Alpha  occ. eigenvalues --   -0.87615  -0.87532  -0.85775  -0.85312  -0.85243
 Alpha  occ. eigenvalues --   -0.84126  -0.83436  -0.82575  -0.82177  -0.81857
 Alpha  occ. eigenvalues --   -0.81343  -0.79977  -0.79696  -0.78644  -0.77809
 Alpha  occ. eigenvalues --   -0.77568  -0.77058  -0.76736  -0.76300  -0.75771
 Alpha  occ. eigenvalues --   -0.75237  -0.74869  -0.73342  -0.73004  -0.70730
 Alpha  occ. eigenvalues --   -0.70166  -0.70004  -0.69386  -0.68871  -0.67727
 Alpha  occ. eigenvalues --   -0.67173  -0.66856  -0.66785  -0.65877  -0.65813
 Alpha  occ. eigenvalues --   -0.65399  -0.65036  -0.64374  -0.62906  -0.62304
 Alpha  occ. eigenvalues --   -0.62047  -0.61706  -0.61417  -0.60158  -0.59832
 Alpha  occ. eigenvalues --   -0.59621  -0.58427  -0.58181  -0.57622  -0.57269
 Alpha  occ. eigenvalues --   -0.56982  -0.56765  -0.56328  -0.55928  -0.55672
 Alpha  occ. eigenvalues --   -0.55232  -0.55031  -0.54908  -0.54800  -0.54687
 Alpha  occ. eigenvalues --   -0.54362  -0.54008  -0.53576  -0.53551  -0.53285
 Alpha  occ. eigenvalues --   -0.53062  -0.52687  -0.52441  -0.52371  -0.52282
 Alpha  occ. eigenvalues --   -0.52096  -0.51925  -0.51585  -0.51468  -0.51377
 Alpha  occ. eigenvalues --   -0.51155  -0.50822  -0.50741  -0.50516  -0.50423
 Alpha  occ. eigenvalues --   -0.50185  -0.49703  -0.49636  -0.49573  -0.49409
 Alpha  occ. eigenvalues --   -0.49230  -0.48972  -0.48791  -0.48562  -0.48498
 Alpha  occ. eigenvalues --   -0.48168  -0.48056  -0.47925  -0.47745  -0.47407
 Alpha  occ. eigenvalues --   -0.47398  -0.47139  -0.46996  -0.46855  -0.46741
 Alpha  occ. eigenvalues --   -0.46721  -0.46184  -0.46001  -0.45737  -0.45463
 Alpha  occ. eigenvalues --   -0.45211  -0.45181  -0.44977  -0.44822  -0.44783
 Alpha  occ. eigenvalues --   -0.44467  -0.44062  -0.43861  -0.43693  -0.43449
 Alpha  occ. eigenvalues --   -0.43140  -0.43026  -0.42816  -0.42685  -0.42630
 Alpha  occ. eigenvalues --   -0.42513  -0.42415  -0.42352  -0.42130  -0.42006
 Alpha  occ. eigenvalues --   -0.41711  -0.41471  -0.41215  -0.41023  -0.40649
 Alpha  occ. eigenvalues --   -0.40616  -0.40255  -0.39896  -0.39736  -0.39680
 Alpha  occ. eigenvalues --   -0.39254  -0.39104  -0.38853  -0.38390  -0.38200
 Alpha  occ. eigenvalues --   -0.37846  -0.37542  -0.37003  -0.36293  -0.36077
 Alpha  occ. eigenvalues --   -0.36024  -0.35154  -0.35146  -0.33627  -0.32926
 Alpha  occ. eigenvalues --   -0.32449  -0.32409  -0.32296  -0.32010  -0.25436
 Alpha  occ. eigenvalues --   -0.22696
 Alpha virt. eigenvalues --   -0.06342   0.00377   0.02469   0.04526   0.04790
 Alpha virt. eigenvalues --    0.06396   0.07480   0.08191   0.09088   0.09504
 Alpha virt. eigenvalues --    0.11286   0.11925   0.12060   0.12699   0.12945

 Mulliken charges:
               1
     1  Mg   0.960529
     2  C   -0.033583
     3  C   -0.084506
     4  C   -0.076605
     5  C   -0.089779
     6  N   -0.305580
     7  C    0.006804
     8  C   -0.083089
     9  C   -0.097440
    10  C    0.097799
    11  C    0.003022
    12  C    0.046898
    13  C    0.044521
    14  C    0.176713
    15  O   -0.265111
    16  O   -0.378203
    17  N   -0.513340
    18  C    0.160218
    19  C   -0.177103
    20  C   -0.039634
    21  C    0.160035
    22  C    0.069096
    23  C   -0.005884
    24  O   -0.220666
    25  C    0.002006
    26  N   -0.299393
    27  C    0.057517
    28  C   -0.074747
    29  C   -0.090278
    30  C    0.040844
    31  C    0.022583
    32  C    0.013466
    33  C   -0.081927
    34  N   -0.486828
    35  C    0.162536
    36  C   -0.211740
    37  C    0.028600
    38  C    0.153900
    39  C    0.074134
    40  C    0.119011
    41  O   -0.210319
    42  C   -0.135001
    43  C    0.285685
    44  O   -0.223054
    45  O   -0.399787
    46  C    0.136510
    47  C    0.213980
    48  C   -0.134183
    49  C   -0.161068
    50  C   -0.010961
    51  C    0.043118
    52  C   -0.043129
    53  C    0.033049
    54  C   -0.225837
    55  C    0.011713
    56  C   -0.021519
    57  C   -0.010827
    58  C   -0.005316
    59  C   -0.206094
    60  C   -0.020788
    61  C    0.029669
    62  C   -0.062842
    63  C    0.006643
    64  C   -0.173274
    65  C   -0.005145
    66  C   -0.020408
    67  H   -0.009713
    68  H    0.020278
    69  H   -0.006155
    70  H    0.074754
    71  H    0.042058
    72  H    0.045586
    73  H    0.045286
    74  H    0.000835
    75  H    0.037109
    76  H    0.030053
    77  H    0.055005
    78  H    0.047037
    79  H    0.023951
    80  H    0.052466
    81  H    0.051967
    82  H    0.076326
    83  H    0.042728
    84  H    0.042104
    85  H    0.024640
    86  H    0.022972
    87  H    0.052553
    88  H    0.036621
    89  H    0.038041
    90  H    0.045152
    91  H    0.031234
    92  H    0.031738
    93  H    0.028864
    94  H    0.042259
    95  H    0.019158
    96  H    0.059399
    97  H    0.069464
    98  H    0.091475
    99  H    0.063335
   100  H    0.055391
   101  H    0.060988
   102  H    0.063338
   103  H    0.052967
   104  H    0.025537
   105  H    0.047842
   106  H    0.038284
   107  H    0.052829
   108  H    0.041968
   109  H    0.029427
   110  H    0.025601
   111  H    0.021455
   112  H    0.031839
   113  H    0.013218
   114  H    0.018379
   115  H    0.028034
   116  H    0.011875
   117  H    0.042446
   118  H    0.024934
   119  H    0.027161
   120  H    0.017708
   121  H    0.013136
   122  H    0.019718
   123  H    0.016172
   124  H    0.027904
   125  H    0.023890
   126  H    0.034575
   127  H    0.019958
   128  H    0.016076
   129  H    0.011919
   130  H    0.032731
   131  H    0.033235
   132  H    0.001637
   133  H    0.013698
   134  H    0.032970
   135  H    0.022241
   136  H    0.038794
   137  H    0.040540
   138  H    0.029623
   139  H    0.022116
   140  H    0.013655
 Sum of Mulliken charges =  -0.00000

 Dipole moment (field-independent basis, Debye):
    X=             -4.3015    Y=              2.0065    Z=              2.8423  Tot=              5.5325
 Quadrupole moment (field-independent basis, Debye-Ang):
   XX=           -377.1147   YY=           -414.7829   ZZ=           -403.5353
   XY=             10.5289   XZ=              4.6418   YZ=            -13.6904

 Normal termination of Gaussian 16 at Thu Apr 28 08:41:51 2022.
