 Gaussian 16, Revision A.03,
 Gaussian 16:  ES64L-G16RevA.03 25-Dec-2016

 --------------------
 #p ZINDO=(nstates=5)
 --------------------

 -----------------------------
 step_1501_chromophore_3 ZINDO
 -----------------------------
 Symbolic Z-matrix:
 Charge =  0 Multiplicity = 1

                         Standard orientation:
 ---------------------------------------------------------------------
 Center     Atomic      Atomic             Coordinates (Angstroms)
 Number     Number       Type             X           Y           Z
 ---------------------------------------------------------------------
      1         12           0        5.458511    1.028383    0.338435
      2          6           0        4.402730   -2.255127   -0.002428
      3          6           0        2.204597    2.012647    0.244083
      4          6           0        6.655663    4.027127   -0.060921
      5          6           0        8.864576   -0.176914   -0.155597
      6          7           0        3.434575   -0.102370    0.338393
      7          6           0        3.245696   -1.432332    0.109977
      8          6           0        1.718324   -1.764008    0.170074
      9          6           0        1.135935   -0.304985    0.162192
     10          6           0        2.334255    0.613819    0.258080
     11          6           0        0.257889    0.074085   -1.066859
     12          6           0        1.406990   -2.614446    1.491383
     13          6           0        0.308708   -3.688243    1.291195
     14          6           0       -0.707690   -3.394243    0.331972
     15          8           0       -0.881196   -3.968095   -0.733870
     16          8           0       -1.425918   -2.340628    0.774882
     17          7           0        4.542432    2.796358    0.201644
     18          6           0        3.199123    3.036831    0.269718
     19          6           0        3.045710    4.446839    0.083109
     20          6           0        4.295665    5.048156    0.137990
     21          6           0        5.270726    3.931247    0.061958
     22          6           0        1.681049    5.077149   -0.001925
     23          6           0        4.598020    6.501111    0.123709
     24          8           0        5.745054    6.869525    0.129676
     25          6           0        3.480562    7.569174   -0.068153
     26          7           0        7.545615    1.886830    0.233980
     27          6           0        7.686445    3.171542    0.033523
     28          6           0        9.163745    3.518413   -0.365235
     29          6           0        9.892959    2.205513   -0.034975
     30          6           0        8.726128    1.211032    0.042901
     31          6           0        9.260062    3.993743   -1.819341
     32          6           0       10.696550    2.083747    1.325929
     33          6           0       12.071620    1.405307    1.118193
     34          7           0        6.467660   -0.716950   -0.047936
     35          6           0        7.828574   -1.116420   -0.174893
     36          6           0        7.921038   -2.535263   -0.388218
     37          6           0        6.646914   -3.020908   -0.401182
     38          6           0        5.771461   -1.926003   -0.111572
     39          6           0        9.207931   -3.469106   -0.379033
     40          6           0        5.856158   -4.219848   -0.516302
     41          8           0        6.189407   -5.344576   -0.915832
     42          6           0        4.373293   -3.801919   -0.094826
     43          6           0        3.496183   -4.263755   -1.167898
     44          8           0        3.075142   -3.547161   -2.034991
     45          8           0        3.344147   -5.660944   -1.053816
     46          6           0        2.612002   -6.387917   -2.139644
     47          6           0       -2.677211   -1.894663    0.074883
     48          6           0       -3.856288   -2.122981    1.068847
     49          6           0       -4.515213   -3.277864    1.427733
     50          6           0       -4.049521   -4.667233    0.916467
     51          6           0       -5.990148   -3.170215    1.976225
     52          6           0       -6.973488   -2.239593    1.171735
     53          6           0       -7.755603   -1.119764    1.893479
     54          6           0       -9.303193   -1.387617    1.969821
     55          6           0       -9.939249   -0.945505    3.342258
     56          6           0       -9.960117   -0.722048    0.668855
     57          6           0      -11.370056   -1.317209    0.350823
     58          6           0      -11.654009   -1.388299   -1.163292
     59          6           0      -12.803898   -0.399078   -1.574613
     60          6           0      -12.934743   -0.749989   -3.170876
     61          6           0      -12.656936    1.133632   -1.400952
     62          6           0      -13.899019    1.776973   -0.741968
     63          6           0      -13.714293    3.350145   -0.650171
     64          6           0      -15.029438    4.076504   -0.289744
     65          6           0      -15.607888    4.892419   -1.590762
     66          6           0      -14.811641    5.045056    0.878704
     67          1           0        1.190413    2.411952    0.180020
     68          1           0        6.948892    5.040704   -0.342090
     69          1           0        9.896683   -0.502302   -0.307506
     70          1           0        1.453028   -2.319238   -0.729333
     71          1           0        0.418998   -0.195360    0.976565
     72          1           0        0.276086   -0.709909   -1.823482
     73          1           0        0.424823    1.031456   -1.560680
     74          1           0       -0.777195    0.043186   -0.725407
     75          1           0        1.230748   -1.938593    2.327383
     76          1           0        2.306679   -3.155392    1.784389
     77          1           0       -0.177697   -3.936503    2.234310
     78          1           0        0.732302   -4.638411    0.966883
     79          1           0        0.898006    4.325791   -0.102324
     80          1           0        1.496281    5.810321   -0.787744
     81          1           0        1.494647    5.474936    0.995457
     82          1           0        2.972157    7.520940   -1.030860
     83          1           0        4.013792    8.511018    0.061653
     84          1           0        2.888832    7.513952    0.845488
     85          1           0        9.633643    4.282299    0.254368
     86          1           0       10.625254    2.079518   -0.832582
     87          1           0        8.588050    4.813570   -2.071621
     88          1           0        9.017593    3.151994   -2.468381
     89          1           0       10.299105    4.294780   -1.951535
     90          1           0       10.231442    1.463277    2.092118
     91          1           0       10.940769    3.057650    1.750453
     92          1           0       12.770942    2.200071    0.859810
     93          1           0       12.112273    0.733471    0.261209
     94          1           0       12.431083    0.845311    1.981253
     95          1           0       10.039424   -2.809672   -0.627537
     96          1           0        9.098237   -4.141751   -1.230245
     97          1           0        9.435736   -4.011641    0.538233
     98          1           0        4.121296   -4.184456    0.894673
     99          1           0        1.551229   -6.562805   -1.955272
    100          1           0        3.088433   -7.367919   -2.179517
    101          1           0        2.783114   -5.856058   -3.075063
    102          1           0       -2.688051   -2.473992   -0.848230
    103          1           0       -2.659698   -0.832486   -0.170675
    104          1           0       -4.236326   -1.123491    1.281479
    105          1           0       -3.526542   -4.539424   -0.031455
    106          1           0       -4.759295   -5.439961    0.620198
    107          1           0       -3.390873   -5.164859    1.627568
    108          1           0       -5.853406   -2.739399    2.968411
    109          1           0       -6.396592   -4.179173    2.034297
    110          1           0       -7.720056   -2.890403    0.716758
    111          1           0       -6.361959   -1.792249    0.388549
    112          1           0       -7.595371   -0.177389    1.370758
    113          1           0       -7.516542   -1.156823    2.956821
    114          1           0       -9.485229   -2.459536    1.892255
    115          1           0      -10.549610   -0.058128    3.179142
    116          1           0       -9.090357   -0.618068    3.942855
    117          1           0      -10.421145   -1.713063    3.947347
    118          1           0       -9.266226   -0.822052   -0.165650
    119          1           0      -10.206434    0.319386    0.876357
    120          1           0      -12.152994   -0.712552    0.808585
    121          1           0      -11.410349   -2.317814    0.782276
    122          1           0      -11.972235   -2.409148   -1.373282
    123          1           0      -10.722920   -1.290613   -1.723240
    124          1           0      -13.704362   -0.812859   -1.120416
    125          1           0      -13.853989   -1.322800   -3.298007
    126          1           0      -12.118531   -1.352324   -3.568459
    127          1           0      -13.073078    0.155981   -3.760967
    128          1           0      -12.553911    1.587634   -2.386583
    129          1           0      -11.735222    1.267494   -0.835208
    130          1           0      -13.904320    1.271399    0.223676
    131          1           0      -14.730174    1.547368   -1.408758
    132          1           0      -13.389104    3.729174   -1.619185
    133          1           0      -12.821744    3.548584   -0.056985
    134          1           0      -15.697166    3.365586    0.197807
    135          1           0      -15.445637    5.963845   -1.470566
    136          1           0      -16.696972    4.877553   -1.610990
    137          1           0      -15.056197    4.574553   -2.475229
    138          1           0      -15.571375    4.935515    1.652780
    139          1           0      -14.702413    6.091889    0.595825
    140          1           0      -13.871729    4.861514    1.398245
 ---------------------------------------------------------------------

 SCF Done:  E(RZINDO/S) =  -474.034375931     A.U. after   18 cycles

 Excitation energies and oscillator strengths:

 Excited State   1:      Singlet-A      1.2598 eV  984.20 nm  f=0.5615  <S**2>=0.000
     175 ->178         0.20757
     176 ->177         0.65797
 This state for optimization and/or second-order correction.
 Total Energy, E(CIS/TDA) =  -473.988080906
 Copying the excited state density for this state as the 1-particle RhoCI density.

 Excited State   2:      Singlet-A      1.9090 eV  649.46 nm  f=0.0240  <S**2>=0.000
     175 ->177         0.53157
     176 ->178        -0.44204

 Excited State   3:      Singlet-A      2.8839 eV  429.91 nm  f=0.4271  <S**2>=0.000
     169 ->177         0.11327
     169 ->180        -0.13376
     175 ->177         0.27116
     176 ->178         0.39320
     176 ->179         0.40477

 Excited State   4:      Singlet-A      2.9237 eV  424.07 nm  f=0.0198  <S**2>=0.000
     169 ->177         0.23344
     169 ->179        -0.29292
     169 ->180        -0.31840
     169 ->186        -0.16651
     169 ->187         0.12297
     170 ->180         0.11587
     176 ->179        -0.18540

 Excited State   5:      Singlet-A      3.0036 eV  412.79 nm  f=0.1071  <S**2>=0.000
     168 ->177         0.29984
     168 ->178         0.19132
     168 ->179         0.38602
     168 ->180        -0.24396
     168 ->186         0.19312
     168 ->201        -0.10135
     175 ->177         0.10887
     176 ->178         0.13817

 The electronic state is 1-A.
 Alpha  occ. eigenvalues --   -1.83308  -1.81714  -1.80838  -1.74667  -1.71419
 Alpha  occ. eigenvalues --   -1.69473  -1.63122  -1.60385  -1.58447  -1.55120
 Alpha  occ. eigenvalues --   -1.53023  -1.50470  -1.49463  -1.47342  -1.45569
 Alpha  occ. eigenvalues --   -1.44099  -1.42617  -1.40232  -1.39071  -1.37716
 Alpha  occ. eigenvalues --   -1.36733  -1.32970  -1.31259  -1.30931  -1.29877
 Alpha  occ. eigenvalues --   -1.26539  -1.25451  -1.21545  -1.20309  -1.17514
 Alpha  occ. eigenvalues --   -1.16798  -1.15033  -1.15002  -1.14504  -1.11845
 Alpha  occ. eigenvalues --   -1.11390  -1.10218  -1.09793  -1.04314  -1.03401
 Alpha  occ. eigenvalues --   -1.02448  -1.00995  -0.97790  -0.97192  -0.95313
 Alpha  occ. eigenvalues --   -0.94940  -0.94630  -0.93861  -0.92980  -0.92211
 Alpha  occ. eigenvalues --   -0.91045  -0.90582  -0.90137  -0.88780  -0.87119
 Alpha  occ. eigenvalues --   -0.86988  -0.84806  -0.83584  -0.82121  -0.80254
 Alpha  occ. eigenvalues --   -0.78958  -0.78710  -0.77884  -0.76858  -0.76541
 Alpha  occ. eigenvalues --   -0.75160  -0.75043  -0.74795  -0.73644  -0.73122
 Alpha  occ. eigenvalues --   -0.72342  -0.71904  -0.71704  -0.71286  -0.71123
 Alpha  occ. eigenvalues --   -0.70330  -0.69289  -0.68915  -0.68477  -0.68387
 Alpha  occ. eigenvalues --   -0.67610  -0.67052  -0.66412  -0.65962  -0.65338
 Alpha  occ. eigenvalues --   -0.64566  -0.64175  -0.63894  -0.63798  -0.62849
 Alpha  occ. eigenvalues --   -0.62606  -0.62242  -0.61905  -0.61621  -0.61496
 Alpha  occ. eigenvalues --   -0.61180  -0.60989  -0.60529  -0.59842  -0.59648
 Alpha  occ. eigenvalues --   -0.59128  -0.58949  -0.58381  -0.58032  -0.57833
 Alpha  occ. eigenvalues --   -0.57809  -0.57442  -0.56965  -0.56843  -0.56509
 Alpha  occ. eigenvalues --   -0.56222  -0.55560  -0.55030  -0.54882  -0.54491
 Alpha  occ. eigenvalues --   -0.54384  -0.54206  -0.53223  -0.52717  -0.52318
 Alpha  occ. eigenvalues --   -0.52158  -0.51764  -0.51670  -0.51321  -0.51134
 Alpha  occ. eigenvalues --   -0.51078  -0.51016  -0.50681  -0.50215  -0.49584
 Alpha  occ. eigenvalues --   -0.49335  -0.49072  -0.49009  -0.48928  -0.48707
 Alpha  occ. eigenvalues --   -0.48492  -0.48454  -0.48057  -0.47983  -0.47565
 Alpha  occ. eigenvalues --   -0.47430  -0.46966  -0.46644  -0.46584  -0.46468
 Alpha  occ. eigenvalues --   -0.46220  -0.46097  -0.46034  -0.45927  -0.45799
 Alpha  occ. eigenvalues --   -0.45425  -0.45196  -0.44851  -0.44729  -0.44283
 Alpha  occ. eigenvalues --   -0.44156  -0.43694  -0.43492  -0.42823  -0.41983
 Alpha  occ. eigenvalues --   -0.41835  -0.41451  -0.41371  -0.38615  -0.38476
 Alpha  occ. eigenvalues --   -0.38192  -0.36908  -0.35247  -0.35075  -0.34563
 Alpha  occ. eigenvalues --   -0.33473  -0.32870  -0.32399  -0.32123  -0.26185
 Alpha  occ. eigenvalues --   -0.21433
 Alpha virt. eigenvalues --   -0.07954  -0.02082  -0.00332   0.01384   0.02229
 Alpha virt. eigenvalues --    0.02682   0.02722   0.03248   0.03474   0.05469
 Alpha virt. eigenvalues --    0.06799   0.07085   0.07655   0.07961   0.08367

 Mulliken charges:
               1
     1  Mg   0.428946
     2  C   -0.042742
     3  C   -0.084908
     4  C   -0.063151
     5  C   -0.068565
     6  N   -0.270818
     7  C    0.111740
     8  C    0.007752
     9  C    0.008255
    10  C    0.148697
    11  C   -0.057709
    12  C   -0.016483
    13  C    0.011156
    14  C    0.492479
    15  O   -0.533454
    16  O   -0.287046
    17  N   -0.313307
    18  C    0.096503
    19  C    0.023518
    20  C   -0.046100
    21  C    0.143519
    22  C   -0.049438
    23  C    0.320636
    24  O   -0.514535
    25  C   -0.039322
    26  N   -0.271192
    27  C    0.154531
    28  C    0.002903
    29  C    0.002564
    30  C    0.120087
    31  C   -0.045942
    32  C   -0.029258
    33  C   -0.061960
    34  N   -0.341295
    35  C    0.099387
    36  C    0.020219
    37  C   -0.033918
    38  C    0.102915
    39  C   -0.045931
    40  C    0.334269
    41  O   -0.517896
    42  C    0.048902
    43  C    0.493096
    44  O   -0.508859
    45  O   -0.284264
    46  C    0.072856
    47  C    0.096899
    48  C   -0.081277
    49  C   -0.004020
    50  C   -0.047683
    51  C   -0.022302
    52  C   -0.037443
    53  C   -0.039333
    54  C   -0.025258
    55  C   -0.064022
    56  C   -0.042417
    57  C   -0.046752
    58  C   -0.034035
    59  C   -0.022891
    60  C   -0.076531
    61  C   -0.033023
    62  C   -0.041330
    63  C   -0.038418
    64  C   -0.015361
    65  C   -0.063774
    66  C   -0.060716
    67  H    0.024697
    68  H    0.033995
    69  H    0.027562
    70  H    0.061477
    71  H    0.029946
    72  H    0.025401
    73  H    0.029264
    74  H    0.011289
    75  H    0.030427
    76  H    0.020363
    77  H    0.036372
    78  H    0.033420
    79  H    0.017727
    80  H    0.033935
    81  H    0.028816
    82  H    0.050721
    83  H    0.030890
    84  H    0.034969
    85  H    0.026982
    86  H    0.029131
    87  H    0.030430
    88  H    0.021532
    89  H    0.017015
    90  H    0.028360
    91  H    0.022021
    92  H    0.013295
    93  H    0.017021
    94  H    0.020638
    95  H    0.014326
    96  H    0.035850
    97  H    0.042549
    98  H    0.059520
    99  H    0.045908
   100  H    0.033254
   101  H    0.050728
   102  H    0.059987
   103  H    0.040461
   104  H    0.025898
   105  H    0.028292
   106  H    0.025642
   107  H    0.028763
   108  H    0.026186
   109  H    0.025580
   110  H    0.018844
   111  H    0.019562
   112  H    0.030010
   113  H    0.023757
   114  H    0.020126
   115  H    0.022348
   116  H    0.011911
   117  H    0.028477
   118  H    0.027376
   119  H    0.019876
   120  H    0.019844
   121  H    0.014802
   122  H    0.012821
   123  H    0.023605
   124  H    0.025235
   125  H    0.010082
   126  H    0.025557
   127  H    0.016663
   128  H    0.020640
   129  H    0.020690
   130  H    0.029513
   131  H    0.028032
   132  H    0.013901
   133  H    0.022844
   134  H    0.029819
   135  H    0.017613
   136  H    0.024666
   137  H    0.031663
   138  H    0.015145
   139  H    0.017637
   140  H    0.009153
 Sum of Mulliken charges =   0.00000

 Dipole moment (field-independent basis, Debye):
    X=             -5.3549    Y=              3.5448    Z=              4.3272  Tot=              7.7437
 N-N= 4.264360075344D+03 E-N= 0.000000000000D+00  KE=-9.203356124734D+03
 Leave Link  601 at Thu Apr 28 08:53:34 2022, MaxMem=  6710886400 cpu:               0.8 elap:               0.0
 (Enter /sw/apps/gaussian-16.0/g16/l9999.exe)
 1\1\GINC-BP1-COMPUTE070\SP\RZINDO CIS\STO-3G\C55H74Mg1N4O6\OF15641\28-
 Apr-2022\0\\#p ZINDO=(nstates=5)\\step_1501_chromophore_3 ZINDO\\0,1\M
 g,0,1.904,7.718,26.551\C,0,2.491,9.51,29.459\C,0,2.012,4.851,28.377\C,
 0,2.071,6.208,23.674\C,0,2.394,10.831,24.716\N,0,2.03,7.259,28.82\C,0,
 2.352,8.137,29.811\C,0,2.352,7.397,31.189\C,0,2.276,5.911,30.685\C,0,2
 .089,5.997,29.186\C,0,3.498,5.009,31.029\C,0,1.099,7.886,32.059\C,0,1.
 398,7.979,33.576\C,0,2.36,7.061,34.097\O,0,3.466,7.346,34.534\O,0,1.86

 Normal termination of Gaussian 16 at Thu Apr 28 08:53:34 2022.
