 Gaussian 16, Revision A.03,
 Gaussian 16:  ES64L-G16RevA.03 25-Dec-2016

 ------------------------------
 #p blyp/Def2SVP td=(nstates=5)
 ------------------------------

 ---------------------------------------------------
 step_1501_chromophore_25 TDDFT with blyp functional
 ---------------------------------------------------
 Symbolic Z-matrix:
 Charge =  0 Multiplicity = 1

                         Standard orientation:
 ---------------------------------------------------------------------
 Center     Atomic      Atomic             Coordinates (Angstroms)
 Number     Number       Type             X           Y           Z
 ---------------------------------------------------------------------
      1         12           0        6.082634    0.470343    0.420728
      2          6           0        3.682250   -2.124275    0.275778
      3          6           0        3.628381    2.663902   -0.474593
      4          6           0        8.548962    2.841695   -0.178185
      5          6           0        8.593840   -2.016001    0.542230
      6          7           0        3.785121    0.301198    0.049078
      7          6           0        3.057467   -0.854830    0.098260
      8          6           0        1.563336   -0.518645   -0.121223
      9          6           0        1.660848    0.994736   -0.489053
     10          6           0        3.118951    1.327012   -0.210694
     11          6           0        1.050021    1.489339   -1.794598
     12          6           0        0.835162   -0.917513    1.219572
     13          6           0       -0.191948   -2.000226    1.032102
     14          6           0       -1.609257   -1.664838    1.327401
     15          8           0       -2.081960   -1.736274    2.447879
     16          8           0       -2.261345   -1.250333    0.228841
     17          7           0        6.040942    2.489572   -0.122394
     18          6           0        4.938399    3.216788   -0.431843
     19          6           0        5.294259    4.564248   -0.726250
     20          6           0        6.690845    4.712218   -0.566808
     21          6           0        7.171845    3.310890   -0.232719
     22          6           0        4.247679    5.662318   -1.008538
     23          6           0        7.600688    5.940566   -0.703711
     24          8           0        8.822327    5.864493   -0.589161
     25          6           0        7.062210    7.275604   -0.999905
     26          7           0        8.250024    0.390381    0.213775
     27          6           0        9.008669    1.505207   -0.000731
     28          6           0       10.521855    1.110478   -0.057737
     29          6           0       10.511204   -0.421412    0.186163
     30          6           0        9.021261   -0.711808    0.352058
     31          6           0       11.238042    1.456106   -1.379908
     32          6           0       11.395497   -0.760992    1.415062
     33          6           0       10.758028   -0.998500    2.752583
     34          7           0        6.178601   -1.604128    0.556190
     35          6           0        7.225122   -2.500899    0.654326
     36          6           0        6.717347   -3.796777    0.873624
     37          6           0        5.349328   -3.710520    0.668681
     38          6           0        5.081264   -2.358047    0.438733
     39          6           0        7.454779   -5.040434    1.152535
     40          6           0        4.145907   -4.514075    0.420949
     41          8           0        3.908041   -5.701285    0.405553
     42          6           0        2.998845   -3.475821    0.284972
     43          6           0        2.326236   -3.735484   -1.070683
     44          8           0        2.683280   -3.384689   -2.163540
     45          8           0        1.311848   -4.606802   -0.751611
     46          6           0        0.344730   -4.736254   -1.827046
     47          6           0       -3.737242   -0.807381    0.481148
     48          6           0       -4.664881   -1.170864   -0.594039
     49          6           0       -5.995971   -1.017944   -0.665729
     50          6           0       -6.687698   -0.231154    0.479118
     51          6           0       -6.959302   -1.665742   -1.690372
     52          6           0       -7.763162   -0.690645   -2.552940
     53          6           0       -9.318629   -0.638789   -2.107153
     54          6           0      -10.224343    0.033844   -3.190291
     55          6           0      -10.297674    1.577681   -3.003769
     56          6           0      -11.653913   -0.581472   -3.176121
     57          6           0      -12.305827   -0.726062   -1.713670
     58          6           0      -13.654246    0.113535   -1.633164
     59          6           0      -14.385589   -0.031241   -0.194774
     60          6           0      -15.892669   -0.326275   -0.314652
     61          6           0      -14.156766    1.341956    0.690634
     62          6           0      -12.977930    0.944675    1.580456
     63          6           0      -12.337747    2.139958    2.326270
     64          6           0      -12.588968    2.149789    3.821399
     65          6           0      -13.178200    3.593022    4.209512
     66          6           0      -11.415563    1.762174    4.766230
     67          1           0        2.908507    3.438872   -0.742072
     68          1           0        9.426784    3.474459   -0.317794
     69          1           0        9.369574   -2.776511    0.655530
     70          1           0        1.210835   -1.118928   -0.960784
     71          1           0        1.095547    1.524664    0.277762
     72          1           0        0.723959    0.615992   -2.360314
     73          1           0        1.825801    1.920993   -2.427924
     74          1           0        0.235745    2.198731   -1.652345
     75          1           0        0.420937   -0.039373    1.715700
     76          1           0        1.533144   -1.432727    1.878731
     77          1           0       -0.019787   -2.820779    1.728612
     78          1           0       -0.179438   -2.456365    0.042024
     79          1           0        4.183654    6.254530   -0.095085
     80          1           0        3.297985    5.307975   -1.411100
     81          1           0        4.792235    6.302891   -1.702004
     82          1           0        7.841228    8.016384   -0.818093
     83          1           0        6.262904    7.563854   -0.317871
     84          1           0        6.750432    7.368808   -2.039637
     85          1           0       10.913480    1.650982    0.803753
     86          1           0       10.773196   -1.022506   -0.683514
     87          1           0       11.793324    2.358729   -1.120757
     88          1           0       10.505502    1.759013   -2.127733
     89          1           0       11.888275    0.633225   -1.674896
     90          1           0       12.032568    0.122632    1.460139
     91          1           0       12.043163   -1.597643    1.151599
     92          1           0       10.820015   -2.027205    3.109292
     93          1           0        9.683389   -0.817156    2.732467
     94          1           0       11.037372   -0.338946    3.573597
     95          1           0        7.684039   -5.359802    2.168852
     96          1           0        8.350533   -4.930338    0.540185
     97          1           0        6.958744   -5.911949    0.724324
     98          1           0        2.246262   -3.669385    1.049084
     99          1           0        0.852685   -4.823796   -2.787859
    100          1           0       -0.458765   -4.000759   -1.820748
    101          1           0       -0.123979   -5.709436   -1.674466
    102          1           0       -3.618591    0.275410    0.449441
    103          1           0       -4.110637   -1.175686    1.436110
    104          1           0       -4.289418   -1.692334   -1.473686
    105          1           0       -7.433113   -0.848869    0.979403
    106          1           0       -7.287566    0.531146   -0.017843
    107          1           0       -5.965197    0.150722    1.200314
    108          1           0       -7.668537   -2.277790   -1.133848
    109          1           0       -6.319370   -2.161741   -2.420460
    110          1           0       -7.674994   -1.162549   -3.531815
    111          1           0       -7.257817    0.274059   -2.505794
    112          1           0       -9.423110   -0.077878   -1.178851
    113          1           0       -9.698308   -1.639612   -1.901059
    114          1           0       -9.790830   -0.263233   -4.144865
    115          1           0       -9.566299    2.018717   -3.681594
    116          1           0      -10.017180    1.826441   -1.980043
    117          1           0      -11.305460    1.943688   -3.199798
    118          1           0      -11.786363   -1.606180   -3.522900
    119          1           0      -12.380917    0.011784   -3.729771
    120          1           0      -11.660525   -0.568868   -0.849507
    121          1           0      -12.629879   -1.758930   -1.590382
    122          1           0      -14.244730   -0.400918   -2.391398
    123          1           0      -13.566763    1.177241   -1.855416
    124          1           0      -13.950034   -0.893987    0.308341
    125          1           0      -16.488269    0.559178   -0.092944
    126          1           0      -16.250383   -1.009345    0.455503
    127          1           0      -16.206411   -0.627049   -1.314415
    128          1           0      -15.015369    1.625868    1.299551
    129          1           0      -13.840718    2.171697    0.058963
    130          1           0      -12.226878    0.491745    0.933648
    131          1           0      -13.167016    0.175316    2.327923
    132          1           0      -12.728921    3.065168    1.901255
    133          1           0      -11.257619    2.133420    2.178617
    134          1           0      -13.384846    1.455020    4.089720
    135          1           0      -13.963733    3.640831    3.455161
    136          1           0      -12.377321    4.319219    4.073392
    137          1           0      -13.488876    3.539454    5.252973
    138          1           0      -10.727348    1.044700    4.318440
    139          1           0      -11.882593    1.328381    5.649941
    140          1           0      -10.934249    2.685548    5.088692
 ---------------------------------------------------------------------

 SCF Done:  E(RB-LYP) =  -3007.37494965     A.U. after   21 cycles

 Excitation energies and oscillator strengths:

 Excited State   1:      Singlet-A      1.8320 eV  676.75 nm  f=0.2759  <S**2>=0.000
     245 -> 248       -0.20331
     246 -> 247        0.68175
     246 <- 247       -0.13643
 This state for optimization and/or second-order correction.
 Total Energy, E(TD-HF/TD-DFT) =  -3007.30762306
 Copying the excited state density for this state as the 1-particle RhoCI density.

 Excited State   2:      Singlet-A      2.0331 eV  609.84 nm  f=0.0876  <S**2>=0.000
     244 -> 247        0.18789
     245 -> 247        0.62771
     246 -> 248        0.23368

 Excited State   3:      Singlet-A      2.0862 eV  594.30 nm  f=0.0077  <S**2>=0.000
     244 -> 247        0.68110
     245 -> 247       -0.16773

 Excited State   4:      Singlet-A      2.1258 eV  583.24 nm  f=0.0000  <S**2>=0.000
     243 -> 247        0.70621

 Excited State   5:      Singlet-A      2.5082 eV  494.31 nm  f=0.0001  <S**2>=0.000
     241 -> 247        0.65533
     242 -> 247        0.26386

 The electronic state is 1-A.
 Alpha  occ. eigenvalues --  -46.28165 -18.82551 -18.82024 -18.77596 -18.75876
 Alpha  occ. eigenvalues --  -18.75756 -18.75690 -14.03207 -14.02723 -14.01504
 Alpha  occ. eigenvalues --  -14.00790 -10.03891 -10.03223 -10.00188  -9.99585
 Alpha  occ. eigenvalues --   -9.98784  -9.97234  -9.97032  -9.96520  -9.96443
 Alpha  occ. eigenvalues --   -9.96257  -9.95620  -9.95593  -9.95129  -9.94321
 Alpha  occ. eigenvalues --   -9.94185  -9.94126  -9.93846  -9.93718  -9.93706
 Alpha  occ. eigenvalues --   -9.93572  -9.93420  -9.93375  -9.93263  -9.93256
 Alpha  occ. eigenvalues --   -9.93186  -9.92976  -9.92739  -9.92706  -9.92638
 Alpha  occ. eigenvalues --   -9.92615  -9.92575  -9.92500  -9.92493  -9.92446
 Alpha  occ. eigenvalues --   -9.92431  -9.92369  -9.92323  -9.92282  -9.92163
 Alpha  occ. eigenvalues --   -9.92073  -9.91954  -9.91814  -9.91800  -9.91680
 Alpha  occ. eigenvalues --   -9.91668  -9.91522  -9.91495  -9.91470  -9.91169
 Alpha  occ. eigenvalues --   -9.91016  -9.90850  -9.90850  -9.90520  -9.90399
 Alpha  occ. eigenvalues --   -9.90396  -2.92605  -1.73034  -1.72489  -1.72311
 Alpha  occ. eigenvalues --   -0.98324  -0.97575  -0.91888  -0.91561  -0.91169
 Alpha  occ. eigenvalues --   -0.89282  -0.88596  -0.86545  -0.85477  -0.84825
 Alpha  occ. eigenvalues --   -0.75336  -0.73967  -0.73258  -0.72468  -0.72328
 Alpha  occ. eigenvalues --   -0.71966  -0.71249  -0.70731  -0.70402  -0.70231
 Alpha  occ. eigenvalues --   -0.70005  -0.69435  -0.68557  -0.67167  -0.67057
 Alpha  occ. eigenvalues --   -0.66404  -0.66049  -0.65398  -0.64785  -0.64397
 Alpha  occ. eigenvalues --   -0.64082  -0.62533  -0.62196  -0.61498  -0.60674
 Alpha  occ. eigenvalues --   -0.60550  -0.59904  -0.59754  -0.59319  -0.58811
 Alpha  occ. eigenvalues --   -0.58356  -0.57689  -0.56598  -0.56204  -0.54881
 Alpha  occ. eigenvalues --   -0.53982  -0.53534  -0.52975  -0.52571  -0.52065
 Alpha  occ. eigenvalues --   -0.51553  -0.51089  -0.50595  -0.50238  -0.49752
 Alpha  occ. eigenvalues --   -0.49365  -0.48479  -0.48246  -0.48241  -0.46278
 Alpha  occ. eigenvalues --   -0.46194  -0.45921  -0.45565  -0.44890  -0.44517
 Alpha  occ. eigenvalues --   -0.44194  -0.43868  -0.42892  -0.42524  -0.42411
 Alpha  occ. eigenvalues --   -0.42212  -0.42184  -0.41971  -0.41727  -0.41266
 Alpha  occ. eigenvalues --   -0.41092  -0.40943  -0.40315  -0.40281  -0.40168
 Alpha  occ. eigenvalues --   -0.40023  -0.39871  -0.39716  -0.39458  -0.39289
 Alpha  occ. eigenvalues --   -0.38886  -0.38726  -0.38456  -0.38210  -0.38075
 Alpha  occ. eigenvalues --   -0.38017  -0.37813  -0.37631  -0.37294  -0.37182
 Alpha  occ. eigenvalues --   -0.37154  -0.37043  -0.36969  -0.36749  -0.36599
 Alpha  occ. eigenvalues --   -0.36493  -0.36433  -0.36314  -0.36125  -0.35669
 Alpha  occ. eigenvalues --   -0.35488  -0.35371  -0.35220  -0.34980  -0.34878
 Alpha  occ. eigenvalues --   -0.34574  -0.34403  -0.34077  -0.34064  -0.33726
 Alpha  occ. eigenvalues --   -0.33639  -0.33538  -0.33497  -0.33426  -0.33397
 Alpha  occ. eigenvalues --   -0.33046  -0.32902  -0.32745  -0.32717  -0.32547
 Alpha  occ. eigenvalues --   -0.32410  -0.32284  -0.31916  -0.31825  -0.31714
 Alpha  occ. eigenvalues --   -0.31597  -0.31459  -0.31241  -0.30977  -0.30919
 Alpha  occ. eigenvalues --   -0.30805  -0.30580  -0.30514  -0.29994  -0.29887
 Alpha  occ. eigenvalues --   -0.29667  -0.29478  -0.29301  -0.29059  -0.28952
 Alpha  occ. eigenvalues --   -0.28746  -0.28449  -0.28162  -0.27858  -0.27811
 Alpha  occ. eigenvalues --   -0.27195  -0.27081  -0.27057  -0.27037  -0.26610
 Alpha  occ. eigenvalues --   -0.26465  -0.26384  -0.25874  -0.25425  -0.25327
 Alpha  occ. eigenvalues --   -0.25116  -0.24932  -0.24669  -0.23649  -0.23428
 Alpha  occ. eigenvalues --   -0.23218  -0.22597  -0.21900  -0.21282  -0.20946
 Alpha  occ. eigenvalues --   -0.20454  -0.20412  -0.18945  -0.18793  -0.17013
 Alpha  occ. eigenvalues --   -0.15721
 Alpha virt. eigenvalues --   -0.11233  -0.06885  -0.06197  -0.04395  -0.02910
 Alpha virt. eigenvalues --   -0.02447  -0.02064  -0.01794  -0.00404   0.00246
 Alpha virt. eigenvalues --    0.01212   0.01441   0.01762   0.02049   0.02513

 Mulliken charges:
               1
     1  Mg   0.700465
     2  C    0.025990
     3  C   -0.067928
     4  C   -0.004538
     5  C   -0.061956
     6  N   -0.099524
     7  C   -0.132773
     8  C    0.000693
     9  C    0.023448
    10  C   -0.017239
    11  C    0.156505
    12  C    0.164382
    13  C    0.136281
    14  C    0.023994
    15  O   -0.200039
    16  O   -0.282756
    17  N   -0.297998
    18  C    0.124293
    19  C   -0.164550
    20  C    0.032065
    21  C    0.110785
    22  C    0.173374
    23  C   -0.068410
    24  O   -0.166221
    25  C    0.127191
    26  N   -0.199796
    27  C   -0.046338
    28  C    0.006509
    29  C    0.023635
    30  C   -0.006400
    31  C    0.140503
    32  C    0.111173
    33  C    0.075858
    34  N   -0.258240
    35  C    0.103010
    36  C   -0.161905
    37  C    0.058829
    38  C    0.098180
    39  C    0.147535
    40  C   -0.021515
    41  O   -0.110535
    42  C    0.005277
    43  C    0.099552
    44  O   -0.147246
    45  O   -0.262133
    46  C    0.198554
    47  C    0.321741
    48  C   -0.091964
    49  C   -0.203921
    50  C    0.121718
    51  C    0.185141
    52  C    0.064959
    53  C    0.037747
    54  C   -0.024893
    55  C    0.117023
    56  C    0.094188
    57  C   -0.015314
    58  C    0.079762
    59  C   -0.065425
    60  C    0.105464
    61  C    0.113084
    62  C    0.029122
    63  C    0.147375
    64  C   -0.132006
    65  C    0.068153
    66  C    0.116476
    67  H   -0.080146
    68  H   -0.049517
    69  H   -0.069210
    70  H   -0.007198
    71  H   -0.039629
    72  H   -0.011586
    73  H   -0.011642
    74  H   -0.005402
    75  H   -0.008204
    76  H   -0.005244
    77  H   -0.003907
    78  H   -0.015555
    79  H    0.013513
    80  H    0.010581
    81  H   -0.013102
    82  H   -0.011886
    83  H   -0.003239
    84  H    0.027820
    85  H   -0.013820
    86  H   -0.021144
    87  H   -0.004390
    88  H    0.003456
    89  H    0.001699
    90  H   -0.028431
    91  H   -0.028039
    92  H   -0.010740
    93  H   -0.008046
    94  H   -0.016749
    95  H    0.010015
    96  H   -0.014942
    97  H   -0.007875
    98  H    0.006901
    99  H    0.020366
   100  H    0.021234
   101  H    0.006294
   102  H    0.010967
   103  H    0.040742
   104  H   -0.046350
   105  H   -0.008723
   106  H   -0.004185
   107  H   -0.006498
   108  H   -0.014623
   109  H   -0.040532
   110  H   -0.025250
   111  H   -0.012200
   112  H   -0.016058
   113  H   -0.022621
   114  H   -0.038151
   115  H   -0.009613
   116  H   -0.016814
   117  H   -0.008027
   118  H   -0.034590
   119  H   -0.030665
   120  H   -0.012680
   121  H   -0.032674
   122  H   -0.028703
   123  H   -0.015552
   124  H   -0.027650
   125  H   -0.030099
   126  H   -0.018549
   127  H   -0.022109
   128  H   -0.021733
   129  H   -0.022704
   130  H   -0.046527
   131  H   -0.027587
   132  H   -0.047063
   133  H   -0.049749
   134  H   -0.035858
   135  H   -0.000349
   136  H   -0.004208
   137  H   -0.012794
   138  H   -0.012065
   139  H   -0.019474
   140  H   -0.019393
 Sum of Mulliken charges =  -0.00000

 Dipole moment (field-independent basis, Debye):
    X=             -3.0005    Y=              3.6040    Z=             -1.0233  Tot=              4.7999
 Quadrupole moment (field-independent basis, Debye-Ang):
   XX=           -386.9721   YY=           -424.0675   ZZ=           -411.2844
   XY=              0.9164   XZ=             18.1719   YZ=              1.7680

 Normal termination of Gaussian 16 at Thu Apr 28 08:46:21 2022.
