 Gaussian 16, Revision A.03,
 Gaussian 16:  ES64L-G16RevA.03 25-Dec-2016

 -----------------------------------
 #p cam-b3lyp/Def2SVP td=(nstates=5)
 -----------------------------------

 --------------------------------------------------------
 step_1501_chromophore_25 TDDFT with cam-b3lyp functional
 --------------------------------------------------------
 Symbolic Z-matrix:
 Charge =  0 Multiplicity = 1

                         Standard orientation:
 ---------------------------------------------------------------------
 Center     Atomic      Atomic             Coordinates (Angstroms)
 Number     Number       Type             X           Y           Z
 ---------------------------------------------------------------------
      1         12           0        6.082634    0.470343    0.420728
      2          6           0        3.682250   -2.124275    0.275778
      3          6           0        3.628381    2.663902   -0.474593
      4          6           0        8.548962    2.841695   -0.178185
      5          6           0        8.593840   -2.016001    0.542230
      6          7           0        3.785121    0.301198    0.049078
      7          6           0        3.057467   -0.854830    0.098260
      8          6           0        1.563336   -0.518645   -0.121223
      9          6           0        1.660848    0.994736   -0.489053
     10          6           0        3.118951    1.327012   -0.210694
     11          6           0        1.050021    1.489339   -1.794598
     12          6           0        0.835162   -0.917513    1.219572
     13          6           0       -0.191948   -2.000226    1.032102
     14          6           0       -1.609257   -1.664838    1.327401
     15          8           0       -2.081960   -1.736274    2.447879
     16          8           0       -2.261345   -1.250333    0.228841
     17          7           0        6.040942    2.489572   -0.122394
     18          6           0        4.938399    3.216788   -0.431843
     19          6           0        5.294259    4.564248   -0.726250
     20          6           0        6.690845    4.712218   -0.566808
     21          6           0        7.171845    3.310890   -0.232719
     22          6           0        4.247679    5.662318   -1.008538
     23          6           0        7.600688    5.940566   -0.703711
     24          8           0        8.822327    5.864493   -0.589161
     25          6           0        7.062210    7.275604   -0.999905
     26          7           0        8.250024    0.390381    0.213775
     27          6           0        9.008669    1.505207   -0.000731
     28          6           0       10.521855    1.110478   -0.057737
     29          6           0       10.511204   -0.421412    0.186163
     30          6           0        9.021261   -0.711808    0.352058
     31          6           0       11.238042    1.456106   -1.379908
     32          6           0       11.395497   -0.760992    1.415062
     33          6           0       10.758028   -0.998500    2.752583
     34          7           0        6.178601   -1.604128    0.556190
     35          6           0        7.225122   -2.500899    0.654326
     36          6           0        6.717347   -3.796777    0.873624
     37          6           0        5.349328   -3.710520    0.668681
     38          6           0        5.081264   -2.358047    0.438733
     39          6           0        7.454779   -5.040434    1.152535
     40          6           0        4.145907   -4.514075    0.420949
     41          8           0        3.908041   -5.701285    0.405553
     42          6           0        2.998845   -3.475821    0.284972
     43          6           0        2.326236   -3.735484   -1.070683
     44          8           0        2.683280   -3.384689   -2.163540
     45          8           0        1.311848   -4.606802   -0.751611
     46          6           0        0.344730   -4.736254   -1.827046
     47          6           0       -3.737242   -0.807381    0.481148
     48          6           0       -4.664881   -1.170864   -0.594039
     49          6           0       -5.995971   -1.017944   -0.665729
     50          6           0       -6.687698   -0.231154    0.479118
     51          6           0       -6.959302   -1.665742   -1.690372
     52          6           0       -7.763162   -0.690645   -2.552940
     53          6           0       -9.318629   -0.638789   -2.107153
     54          6           0      -10.224343    0.033844   -3.190291
     55          6           0      -10.297674    1.577681   -3.003769
     56          6           0      -11.653913   -0.581472   -3.176121
     57          6           0      -12.305827   -0.726062   -1.713670
     58          6           0      -13.654246    0.113535   -1.633164
     59          6           0      -14.385589   -0.031241   -0.194774
     60          6           0      -15.892669   -0.326275   -0.314652
     61          6           0      -14.156766    1.341956    0.690634
     62          6           0      -12.977930    0.944675    1.580456
     63          6           0      -12.337747    2.139958    2.326270
     64          6           0      -12.588968    2.149789    3.821399
     65          6           0      -13.178200    3.593022    4.209512
     66          6           0      -11.415563    1.762174    4.766230
     67          1           0        2.908507    3.438872   -0.742072
     68          1           0        9.426784    3.474459   -0.317794
     69          1           0        9.369574   -2.776511    0.655530
     70          1           0        1.210835   -1.118928   -0.960784
     71          1           0        1.095547    1.524664    0.277762
     72          1           0        0.723959    0.615992   -2.360314
     73          1           0        1.825801    1.920993   -2.427924
     74          1           0        0.235745    2.198731   -1.652345
     75          1           0        0.420937   -0.039373    1.715700
     76          1           0        1.533144   -1.432727    1.878731
     77          1           0       -0.019787   -2.820779    1.728612
     78          1           0       -0.179438   -2.456365    0.042024
     79          1           0        4.183654    6.254530   -0.095085
     80          1           0        3.297985    5.307975   -1.411100
     81          1           0        4.792235    6.302891   -1.702004
     82          1           0        7.841228    8.016384   -0.818093
     83          1           0        6.262904    7.563854   -0.317871
     84          1           0        6.750432    7.368808   -2.039637
     85          1           0       10.913480    1.650982    0.803753
     86          1           0       10.773196   -1.022506   -0.683514
     87          1           0       11.793324    2.358729   -1.120757
     88          1           0       10.505502    1.759013   -2.127733
     89          1           0       11.888275    0.633225   -1.674896
     90          1           0       12.032568    0.122632    1.460139
     91          1           0       12.043163   -1.597643    1.151599
     92          1           0       10.820015   -2.027205    3.109292
     93          1           0        9.683389   -0.817156    2.732467
     94          1           0       11.037372   -0.338946    3.573597
     95          1           0        7.684039   -5.359802    2.168852
     96          1           0        8.350533   -4.930338    0.540185
     97          1           0        6.958744   -5.911949    0.724324
     98          1           0        2.246262   -3.669385    1.049084
     99          1           0        0.852685   -4.823796   -2.787859
    100          1           0       -0.458765   -4.000759   -1.820748
    101          1           0       -0.123979   -5.709436   -1.674466
    102          1           0       -3.618591    0.275410    0.449441
    103          1           0       -4.110637   -1.175686    1.436110
    104          1           0       -4.289418   -1.692334   -1.473686
    105          1           0       -7.433113   -0.848869    0.979403
    106          1           0       -7.287566    0.531146   -0.017843
    107          1           0       -5.965197    0.150722    1.200314
    108          1           0       -7.668537   -2.277790   -1.133848
    109          1           0       -6.319370   -2.161741   -2.420460
    110          1           0       -7.674994   -1.162549   -3.531815
    111          1           0       -7.257817    0.274059   -2.505794
    112          1           0       -9.423110   -0.077878   -1.178851
    113          1           0       -9.698308   -1.639612   -1.901059
    114          1           0       -9.790830   -0.263233   -4.144865
    115          1           0       -9.566299    2.018717   -3.681594
    116          1           0      -10.017180    1.826441   -1.980043
    117          1           0      -11.305460    1.943688   -3.199798
    118          1           0      -11.786363   -1.606180   -3.522900
    119          1           0      -12.380917    0.011784   -3.729771
    120          1           0      -11.660525   -0.568868   -0.849507
    121          1           0      -12.629879   -1.758930   -1.590382
    122          1           0      -14.244730   -0.400918   -2.391398
    123          1           0      -13.566763    1.177241   -1.855416
    124          1           0      -13.950034   -0.893987    0.308341
    125          1           0      -16.488269    0.559178   -0.092944
    126          1           0      -16.250383   -1.009345    0.455503
    127          1           0      -16.206411   -0.627049   -1.314415
    128          1           0      -15.015369    1.625868    1.299551
    129          1           0      -13.840718    2.171697    0.058963
    130          1           0      -12.226878    0.491745    0.933648
    131          1           0      -13.167016    0.175316    2.327923
    132          1           0      -12.728921    3.065168    1.901255
    133          1           0      -11.257619    2.133420    2.178617
    134          1           0      -13.384846    1.455020    4.089720
    135          1           0      -13.963733    3.640831    3.455161
    136          1           0      -12.377321    4.319219    4.073392
    137          1           0      -13.488876    3.539454    5.252973
    138          1           0      -10.727348    1.044700    4.318440
    139          1           0      -11.882593    1.328381    5.649941
    140          1           0      -10.934249    2.685548    5.088692
 ---------------------------------------------------------------------

 SCF Done:  E(RCAM-B3LYP) =  -3007.17104948     A.U. after   16 cycles

 Excitation energies and oscillator strengths:

 Excited State   1:      Singlet-A      1.8066 eV  686.30 nm  f=0.3703  <S**2>=0.000
     245 -> 248       -0.18608
     246 -> 247        0.68122
     245 <- 248       -0.10289
 This state for optimization and/or second-order correction.
 Total Energy, E(TD-HF/TD-DFT) =  -3007.10465985
 Copying the excited state density for this state as the 1-particle RhoCI density.

 Excited State   2:      Singlet-A      2.2713 eV  545.88 nm  f=0.1184  <S**2>=0.000
     245 -> 247        0.63523
     246 -> 248        0.29205

 Excited State   3:      Singlet-A      3.5034 eV  353.89 nm  f=0.5000  <S**2>=0.000
     240 -> 247       -0.18710
     241 -> 247       -0.21077
     242 -> 247        0.18599
     244 -> 247        0.12642
     245 -> 247       -0.23574
     246 -> 248        0.55348

 Excited State   4:      Singlet-A      3.5959 eV  344.80 nm  f=0.1147  <S**2>=0.000
     240 -> 247       -0.11030
     241 -> 247       -0.14761
     242 -> 247        0.17263
     244 -> 247        0.58531
     245 -> 247        0.12036
     246 -> 248       -0.24694

 Excited State   5:      Singlet-A      3.6935 eV  335.68 nm  f=0.0237  <S**2>=0.000
     239 -> 247        0.46053
     239 -> 248        0.15857
     239 -> 249        0.33159
     239 -> 251       -0.17848
     240 -> 247       -0.20655
     244 -> 247       -0.14267

 The electronic state is 1-A.
 Alpha  occ. eigenvalues --  -46.89748 -19.25457 -19.24888 -19.20640 -19.19369
 Alpha  occ. eigenvalues --  -19.18792 -19.18551 -14.42178 -14.41319 -14.40162
 Alpha  occ. eigenvalues --  -14.38886 -10.39261 -10.38378 -10.35795 -10.34541
 Alpha  occ. eigenvalues --  -10.33060 -10.32189 -10.31240 -10.31165 -10.31079
 Alpha  occ. eigenvalues --  -10.30579 -10.30463 -10.29535 -10.29445 -10.28694
 Alpha  occ. eigenvalues --  -10.28425 -10.28320 -10.28166 -10.27972 -10.27925
 Alpha  occ. eigenvalues --  -10.27762 -10.27732 -10.27573 -10.27502 -10.27500
 Alpha  occ. eigenvalues --  -10.27197 -10.26770 -10.26672 -10.26540 -10.26520
 Alpha  occ. eigenvalues --  -10.26452 -10.26412 -10.26389 -10.26350 -10.26295
 Alpha  occ. eigenvalues --  -10.26186 -10.26136 -10.26101 -10.26001 -10.25994
 Alpha  occ. eigenvalues --  -10.25795 -10.25624 -10.25619 -10.25559 -10.25486
 Alpha  occ. eigenvalues --  -10.25441 -10.25292 -10.25096 -10.24703 -10.24688
 Alpha  occ. eigenvalues --  -10.24545 -10.24527 -10.24480 -10.24136 -10.24073
 Alpha  occ. eigenvalues --  -10.23920  -3.18081  -1.92989  -1.92523  -1.92379
 Alpha  occ. eigenvalues --   -1.16840  -1.16031  -1.10393  -1.09952  -1.09070
 Alpha  occ. eigenvalues --   -1.07107  -1.06505  -1.03767  -1.03190  -1.02509
 Alpha  occ. eigenvalues --   -0.92263  -0.90907  -0.90027  -0.89281  -0.88882
 Alpha  occ. eigenvalues --   -0.88701  -0.88155  -0.87446  -0.87061  -0.86777
 Alpha  occ. eigenvalues --   -0.86219  -0.85900  -0.84894  -0.83334  -0.83080
 Alpha  occ. eigenvalues --   -0.82536  -0.82462  -0.81289  -0.80607  -0.80209
 Alpha  occ. eigenvalues --   -0.79875  -0.78248  -0.78055  -0.76850  -0.76060
 Alpha  occ. eigenvalues --   -0.75851  -0.75279  -0.74952  -0.74613  -0.74058
 Alpha  occ. eigenvalues --   -0.73468  -0.72648  -0.71523  -0.71013  -0.69374
 Alpha  occ. eigenvalues --   -0.68739  -0.68124  -0.67431  -0.66952  -0.66345
 Alpha  occ. eigenvalues --   -0.65888  -0.64946  -0.64483  -0.64256  -0.63844
 Alpha  occ. eigenvalues --   -0.63138  -0.62386  -0.62099  -0.61883  -0.60092
 Alpha  occ. eigenvalues --   -0.59698  -0.59406  -0.59220  -0.58222  -0.57871
 Alpha  occ. eigenvalues --   -0.57676  -0.57378  -0.56057  -0.55583  -0.55515
 Alpha  occ. eigenvalues --   -0.55370  -0.55063  -0.54782  -0.54768  -0.54292
 Alpha  occ. eigenvalues --   -0.54098  -0.53981  -0.53325  -0.53309  -0.53005
 Alpha  occ. eigenvalues --   -0.52744  -0.52466  -0.52400  -0.51994  -0.51817
 Alpha  occ. eigenvalues --   -0.51621  -0.51193  -0.51070  -0.50776  -0.50521
 Alpha  occ. eigenvalues --   -0.50345  -0.50206  -0.50067  -0.49879  -0.49692
 Alpha  occ. eigenvalues --   -0.49537  -0.49394  -0.49226  -0.49082  -0.48950
 Alpha  occ. eigenvalues --   -0.48893  -0.48598  -0.48524  -0.48402  -0.47794
 Alpha  occ. eigenvalues --   -0.47743  -0.47296  -0.47228  -0.46797  -0.46770
 Alpha  occ. eigenvalues --   -0.46664  -0.46126  -0.46039  -0.45963  -0.45599
 Alpha  occ. eigenvalues --   -0.45335  -0.45293  -0.45214  -0.45181  -0.45084
 Alpha  occ. eigenvalues --   -0.44739  -0.44531  -0.44425  -0.44333  -0.44021
 Alpha  occ. eigenvalues --   -0.43931  -0.43902  -0.43765  -0.43555  -0.43201
 Alpha  occ. eigenvalues --   -0.43042  -0.43006  -0.42758  -0.42583  -0.42438
 Alpha  occ. eigenvalues --   -0.42234  -0.42160  -0.41924  -0.41850  -0.41104
 Alpha  occ. eigenvalues --   -0.41022  -0.40788  -0.40379  -0.40204  -0.40077
 Alpha  occ. eigenvalues --   -0.39791  -0.39490  -0.39075  -0.38811  -0.38699
 Alpha  occ. eigenvalues --   -0.38058  -0.37930  -0.37895  -0.37877  -0.37592
 Alpha  occ. eigenvalues --   -0.37315  -0.37084  -0.37011  -0.36899  -0.36363
 Alpha  occ. eigenvalues --   -0.35938  -0.35728  -0.35114  -0.34731  -0.34039
 Alpha  occ. eigenvalues --   -0.33713  -0.33320  -0.32656  -0.31826  -0.31368
 Alpha  occ. eigenvalues --   -0.30478  -0.30310  -0.30273  -0.29392  -0.23719
 Alpha  occ. eigenvalues --   -0.21065
 Alpha virt. eigenvalues --   -0.08219  -0.01650   0.00238   0.02123   0.02642
 Alpha virt. eigenvalues --    0.05327   0.05384   0.05802   0.06632   0.07183
 Alpha virt. eigenvalues --    0.07369   0.08002   0.08633   0.08980   0.09102

 Mulliken charges:
               1
     1  Mg   0.829468
     2  C    0.001258
     3  C   -0.082171
     4  C   -0.036464
     5  C   -0.065233
     6  N   -0.169199
     7  C   -0.096247
     8  C   -0.043065
     9  C   -0.033783
    10  C    0.013362
    11  C    0.091407
    12  C    0.108954
    13  C    0.065735
    14  C    0.111493
    15  O   -0.243529
    16  O   -0.346878
    17  N   -0.389845
    18  C    0.138506
    19  C   -0.165808
    20  C   -0.039421
    21  C    0.146022
    22  C    0.119888
    23  C    0.014388
    24  O   -0.202997
    25  C    0.039486
    26  N   -0.275984
    27  C   -0.008809
    28  C   -0.054547
    29  C   -0.028901
    30  C    0.008500
    31  C    0.080082
    32  C    0.052367
    33  C    0.010807
    34  N   -0.345514
    35  C    0.099193
    36  C   -0.165916
    37  C   -0.019051
    38  C    0.129922
    39  C    0.098204
    40  C    0.077847
    41  O   -0.151029
    42  C   -0.066293
    43  C    0.184549
    44  O   -0.183664
    45  O   -0.323490
    46  C    0.158550
    47  C    0.288722
    48  C   -0.118557
    49  C   -0.220119
    50  C    0.064353
    51  C    0.124063
    52  C    0.010940
    53  C   -0.013206
    54  C   -0.081903
    55  C    0.060316
    56  C    0.043163
    57  C   -0.063767
    58  C    0.034332
    59  C   -0.124653
    60  C    0.047999
    61  C    0.060754
    62  C   -0.019582
    63  C    0.085968
    64  C   -0.188342
    65  C    0.014914
    66  C    0.057462
    67  H   -0.043644
    68  H   -0.009410
    69  H   -0.034967
    70  H    0.024269
    71  H   -0.002928
    72  H    0.015673
    73  H    0.014816
    74  H    0.019837
    75  H    0.021381
    76  H    0.027467
    77  H    0.029035
    78  H    0.010275
    79  H    0.042122
    80  H    0.038469
    81  H    0.013675
    82  H    0.026576
    83  H    0.025860
    84  H    0.055777
    85  H    0.020155
    86  H    0.015317
    87  H    0.019067
    88  H    0.029420
    89  H    0.026551
    90  H    0.000127
    91  H    0.001641
    92  H    0.013588
    93  H    0.016985
    94  H    0.008182
    95  H    0.033257
    96  H    0.006225
    97  H    0.018608
    98  H    0.047587
    99  H    0.047067
   100  H    0.038531
   101  H    0.030690
   102  H    0.039187
   103  H    0.072085
   104  H   -0.010364
   105  H    0.015990
   106  H    0.017306
   107  H    0.017387
   108  H    0.014852
   109  H   -0.007701
   110  H    0.004256
   111  H    0.014495
   112  H    0.005071
   113  H    0.005791
   114  H   -0.005311
   115  H    0.014701
   116  H    0.005004
   117  H    0.014442
   118  H   -0.004202
   119  H   -0.001344
   120  H    0.008604
   121  H   -0.003969
   122  H   -0.001063
   123  H    0.007744
   124  H    0.003727
   125  H   -0.005868
   126  H    0.006129
   127  H    0.002743
   128  H    0.004939
   129  H    0.004380
   130  H   -0.020740
   131  H    0.000085
   132  H   -0.016101
   133  H   -0.018551
   134  H   -0.004867
   135  H    0.019999
   136  H    0.017358
   137  H    0.011447
   138  H    0.011466
   139  H    0.004857
   140  H    0.003746
 Sum of Mulliken charges =  -0.00000

 Dipole moment (field-independent basis, Debye):
    X=             -3.4599    Y=              5.2265    Z=             -1.3329  Tot=              6.4081
 Quadrupole moment (field-independent basis, Debye-Ang):
   XX=           -387.0295   YY=           -418.6653   ZZ=           -411.6062
   XY=             10.4931   XZ=             16.8654   YZ=              1.4851

 Normal termination of Gaussian 16 at Thu Apr 28 07:42:49 2022.
