 Gaussian 16, Revision A.03,
 Gaussian 16:  ES64L-G16RevA.03 25-Dec-2016

 ---------------------------------
 #p PBE1PBE/Def2SVP td=(nstates=5)
 ---------------------------------

 ------------------------------------------------------
 step_1501_chromophore_25 TDDFT with PBE1PBE functional
 ------------------------------------------------------
 Symbolic Z-matrix:
 Charge =  0 Multiplicity = 1

                         Standard orientation:
 ---------------------------------------------------------------------
 Center     Atomic      Atomic             Coordinates (Angstroms)
 Number     Number       Type             X           Y           Z
 ---------------------------------------------------------------------
      1         12           0        6.082634    0.470343    0.420728
      2          6           0        3.682250   -2.124275    0.275778
      3          6           0        3.628381    2.663902   -0.474593
      4          6           0        8.548962    2.841695   -0.178185
      5          6           0        8.593840   -2.016001    0.542230
      6          7           0        3.785121    0.301198    0.049078
      7          6           0        3.057467   -0.854830    0.098260
      8          6           0        1.563336   -0.518645   -0.121223
      9          6           0        1.660848    0.994736   -0.489053
     10          6           0        3.118951    1.327012   -0.210694
     11          6           0        1.050021    1.489339   -1.794598
     12          6           0        0.835162   -0.917513    1.219572
     13          6           0       -0.191948   -2.000226    1.032102
     14          6           0       -1.609257   -1.664838    1.327401
     15          8           0       -2.081960   -1.736274    2.447879
     16          8           0       -2.261345   -1.250333    0.228841
     17          7           0        6.040942    2.489572   -0.122394
     18          6           0        4.938399    3.216788   -0.431843
     19          6           0        5.294259    4.564248   -0.726250
     20          6           0        6.690845    4.712218   -0.566808
     21          6           0        7.171845    3.310890   -0.232719
     22          6           0        4.247679    5.662318   -1.008538
     23          6           0        7.600688    5.940566   -0.703711
     24          8           0        8.822327    5.864493   -0.589161
     25          6           0        7.062210    7.275604   -0.999905
     26          7           0        8.250024    0.390381    0.213775
     27          6           0        9.008669    1.505207   -0.000731
     28          6           0       10.521855    1.110478   -0.057737
     29          6           0       10.511204   -0.421412    0.186163
     30          6           0        9.021261   -0.711808    0.352058
     31          6           0       11.238042    1.456106   -1.379908
     32          6           0       11.395497   -0.760992    1.415062
     33          6           0       10.758028   -0.998500    2.752583
     34          7           0        6.178601   -1.604128    0.556190
     35          6           0        7.225122   -2.500899    0.654326
     36          6           0        6.717347   -3.796777    0.873624
     37          6           0        5.349328   -3.710520    0.668681
     38          6           0        5.081264   -2.358047    0.438733
     39          6           0        7.454779   -5.040434    1.152535
     40          6           0        4.145907   -4.514075    0.420949
     41          8           0        3.908041   -5.701285    0.405553
     42          6           0        2.998845   -3.475821    0.284972
     43          6           0        2.326236   -3.735484   -1.070683
     44          8           0        2.683280   -3.384689   -2.163540
     45          8           0        1.311848   -4.606802   -0.751611
     46          6           0        0.344730   -4.736254   -1.827046
     47          6           0       -3.737242   -0.807381    0.481148
     48          6           0       -4.664881   -1.170864   -0.594039
     49          6           0       -5.995971   -1.017944   -0.665729
     50          6           0       -6.687698   -0.231154    0.479118
     51          6           0       -6.959302   -1.665742   -1.690372
     52          6           0       -7.763162   -0.690645   -2.552940
     53          6           0       -9.318629   -0.638789   -2.107153
     54          6           0      -10.224343    0.033844   -3.190291
     55          6           0      -10.297674    1.577681   -3.003769
     56          6           0      -11.653913   -0.581472   -3.176121
     57          6           0      -12.305827   -0.726062   -1.713670
     58          6           0      -13.654246    0.113535   -1.633164
     59          6           0      -14.385589   -0.031241   -0.194774
     60          6           0      -15.892669   -0.326275   -0.314652
     61          6           0      -14.156766    1.341956    0.690634
     62          6           0      -12.977930    0.944675    1.580456
     63          6           0      -12.337747    2.139958    2.326270
     64          6           0      -12.588968    2.149789    3.821399
     65          6           0      -13.178200    3.593022    4.209512
     66          6           0      -11.415563    1.762174    4.766230
     67          1           0        2.908507    3.438872   -0.742072
     68          1           0        9.426784    3.474459   -0.317794
     69          1           0        9.369574   -2.776511    0.655530
     70          1           0        1.210835   -1.118928   -0.960784
     71          1           0        1.095547    1.524664    0.277762
     72          1           0        0.723959    0.615992   -2.360314
     73          1           0        1.825801    1.920993   -2.427924
     74          1           0        0.235745    2.198731   -1.652345
     75          1           0        0.420937   -0.039373    1.715700
     76          1           0        1.533144   -1.432727    1.878731
     77          1           0       -0.019787   -2.820779    1.728612
     78          1           0       -0.179438   -2.456365    0.042024
     79          1           0        4.183654    6.254530   -0.095085
     80          1           0        3.297985    5.307975   -1.411100
     81          1           0        4.792235    6.302891   -1.702004
     82          1           0        7.841228    8.016384   -0.818093
     83          1           0        6.262904    7.563854   -0.317871
     84          1           0        6.750432    7.368808   -2.039637
     85          1           0       10.913480    1.650982    0.803753
     86          1           0       10.773196   -1.022506   -0.683514
     87          1           0       11.793324    2.358729   -1.120757
     88          1           0       10.505502    1.759013   -2.127733
     89          1           0       11.888275    0.633225   -1.674896
     90          1           0       12.032568    0.122632    1.460139
     91          1           0       12.043163   -1.597643    1.151599
     92          1           0       10.820015   -2.027205    3.109292
     93          1           0        9.683389   -0.817156    2.732467
     94          1           0       11.037372   -0.338946    3.573597
     95          1           0        7.684039   -5.359802    2.168852
     96          1           0        8.350533   -4.930338    0.540185
     97          1           0        6.958744   -5.911949    0.724324
     98          1           0        2.246262   -3.669385    1.049084
     99          1           0        0.852685   -4.823796   -2.787859
    100          1           0       -0.458765   -4.000759   -1.820748
    101          1           0       -0.123979   -5.709436   -1.674466
    102          1           0       -3.618591    0.275410    0.449441
    103          1           0       -4.110637   -1.175686    1.436110
    104          1           0       -4.289418   -1.692334   -1.473686
    105          1           0       -7.433113   -0.848869    0.979403
    106          1           0       -7.287566    0.531146   -0.017843
    107          1           0       -5.965197    0.150722    1.200314
    108          1           0       -7.668537   -2.277790   -1.133848
    109          1           0       -6.319370   -2.161741   -2.420460
    110          1           0       -7.674994   -1.162549   -3.531815
    111          1           0       -7.257817    0.274059   -2.505794
    112          1           0       -9.423110   -0.077878   -1.178851
    113          1           0       -9.698308   -1.639612   -1.901059
    114          1           0       -9.790830   -0.263233   -4.144865
    115          1           0       -9.566299    2.018717   -3.681594
    116          1           0      -10.017180    1.826441   -1.980043
    117          1           0      -11.305460    1.943688   -3.199798
    118          1           0      -11.786363   -1.606180   -3.522900
    119          1           0      -12.380917    0.011784   -3.729771
    120          1           0      -11.660525   -0.568868   -0.849507
    121          1           0      -12.629879   -1.758930   -1.590382
    122          1           0      -14.244730   -0.400918   -2.391398
    123          1           0      -13.566763    1.177241   -1.855416
    124          1           0      -13.950034   -0.893987    0.308341
    125          1           0      -16.488269    0.559178   -0.092944
    126          1           0      -16.250383   -1.009345    0.455503
    127          1           0      -16.206411   -0.627049   -1.314415
    128          1           0      -15.015369    1.625868    1.299551
    129          1           0      -13.840718    2.171697    0.058963
    130          1           0      -12.226878    0.491745    0.933648
    131          1           0      -13.167016    0.175316    2.327923
    132          1           0      -12.728921    3.065168    1.901255
    133          1           0      -11.257619    2.133420    2.178617
    134          1           0      -13.384846    1.455020    4.089720
    135          1           0      -13.963733    3.640831    3.455161
    136          1           0      -12.377321    4.319219    4.073392
    137          1           0      -13.488876    3.539454    5.252973
    138          1           0      -10.727348    1.044700    4.318440
    139          1           0      -11.882593    1.328381    5.649941
    140          1           0      -10.934249    2.685548    5.088692
 ---------------------------------------------------------------------

 SCF Done:  E(RPBE1PBE) =  -3005.35957950     A.U. after   16 cycles

 Excitation energies and oscillator strengths:

 Excited State   1:      Singlet-A      1.9078 eV  649.88 nm  f=0.3534  <S**2>=0.000
     245 -> 248        0.18596
     246 -> 247        0.68720
 This state for optimization and/or second-order correction.
 Total Energy, E(TD-HF/TD-DFT) =  -3005.28946895
 Copying the excited state density for this state as the 1-particle RhoCI density.

 Excited State   2:      Singlet-A      2.2620 eV  548.11 nm  f=0.1199  <S**2>=0.000
     245 -> 247        0.64929
     246 -> 248       -0.26683

 Excited State   3:      Singlet-A      3.1567 eV  392.77 nm  f=0.0013  <S**2>=0.000
     242 -> 247       -0.14192
     243 -> 247        0.53931
     243 -> 249        0.14701
     243 -> 250        0.10156
     244 -> 247       -0.37477

 Excited State   4:      Singlet-A      3.2019 eV  387.22 nm  f=0.0003  <S**2>=0.000
     241 -> 247       -0.10127
     243 -> 247        0.36633
     244 -> 247        0.57219

 Excited State   5:      Singlet-A      3.2434 eV  382.26 nm  f=0.0009  <S**2>=0.000
     240 -> 247        0.59467
     240 -> 248       -0.10475
     240 -> 249       -0.18096
     241 -> 247       -0.25585
     244 -> 247       -0.10510

 The electronic state is 1-A.
 Alpha  occ. eigenvalues --  -46.93154 -19.26182 -19.25634 -19.20925 -19.19307
 Alpha  occ. eigenvalues --  -19.19138 -19.19042 -14.41495 -14.40956 -14.39692
 Alpha  occ. eigenvalues --  -14.38733 -10.36368 -10.35443 -10.32654 -10.31935
 Alpha  occ. eigenvalues --  -10.30461 -10.29526 -10.28656 -10.28601 -10.28590
 Alpha  occ. eigenvalues --  -10.28454 -10.27729 -10.27544 -10.26856 -10.26632
 Alpha  occ. eigenvalues --  -10.26194 -10.26004 -10.25957 -10.25796 -10.25457
 Alpha  occ. eigenvalues --  -10.25341 -10.25205 -10.25177 -10.25177 -10.25108
 Alpha  occ. eigenvalues --  -10.24999 -10.24614 -10.24474 -10.24157 -10.24149
 Alpha  occ. eigenvalues --  -10.24122 -10.24095 -10.24010 -10.23935 -10.23924
 Alpha  occ. eigenvalues --  -10.23747 -10.23665 -10.23607 -10.23588 -10.23571
 Alpha  occ. eigenvalues --  -10.23507 -10.23230 -10.23147 -10.23084 -10.23072
 Alpha  occ. eigenvalues --  -10.23047 -10.22963 -10.22473 -10.22423 -10.22103
 Alpha  occ. eigenvalues --  -10.22082 -10.22038 -10.22012 -10.21851 -10.21615
 Alpha  occ. eigenvalues --  -10.21529  -3.15072  -1.87920  -1.87432  -1.87293
 Alpha  occ. eigenvalues --   -1.11681  -1.10878  -1.04956  -1.04857  -1.03980
 Alpha  occ. eigenvalues --   -1.02022  -1.01088  -0.98732  -0.97722  -0.97078
 Alpha  occ. eigenvalues --   -0.86759  -0.85050  -0.84276  -0.83351  -0.83214
 Alpha  occ. eigenvalues --   -0.82796  -0.82264  -0.81647  -0.81317  -0.80915
 Alpha  occ. eigenvalues --   -0.80736  -0.80133  -0.79063  -0.77607  -0.77455
 Alpha  occ. eigenvalues --   -0.76653  -0.76512  -0.75609  -0.74837  -0.74559
 Alpha  occ. eigenvalues --   -0.74049  -0.72423  -0.72289  -0.71237  -0.70331
 Alpha  occ. eigenvalues --   -0.70126  -0.69368  -0.69341  -0.68750  -0.68227
 Alpha  occ. eigenvalues --   -0.67743  -0.67147  -0.65865  -0.65437  -0.63790
 Alpha  occ. eigenvalues --   -0.63142  -0.62319  -0.61856  -0.61200  -0.60708
 Alpha  occ. eigenvalues --   -0.60056  -0.59473  -0.59105  -0.58845  -0.58012
 Alpha  occ. eigenvalues --   -0.57678  -0.56562  -0.56560  -0.56347  -0.54525
 Alpha  occ. eigenvalues --   -0.54299  -0.53801  -0.53703  -0.52841  -0.52391
 Alpha  occ. eigenvalues --   -0.52202  -0.51858  -0.50537  -0.50182  -0.50062
 Alpha  occ. eigenvalues --   -0.49909  -0.49502  -0.49372  -0.49209  -0.48929
 Alpha  occ. eigenvalues --   -0.48700  -0.48420  -0.47940  -0.47547  -0.47367
 Alpha  occ. eigenvalues --   -0.47252  -0.46972  -0.46841  -0.46664  -0.46451
 Alpha  occ. eigenvalues --   -0.46183  -0.45815  -0.45601  -0.45098  -0.45011
 Alpha  occ. eigenvalues --   -0.44893  -0.44781  -0.44723  -0.44517  -0.44264
 Alpha  occ. eigenvalues --   -0.44101  -0.43974  -0.43775  -0.43694  -0.43604
 Alpha  occ. eigenvalues --   -0.43483  -0.43225  -0.43071  -0.42994  -0.42535
 Alpha  occ. eigenvalues --   -0.42410  -0.41910  -0.41840  -0.41426  -0.41400
 Alpha  occ. eigenvalues --   -0.41290  -0.41014  -0.40775  -0.40723  -0.40272
 Alpha  occ. eigenvalues --   -0.40149  -0.39984  -0.39919  -0.39788  -0.39762
 Alpha  occ. eigenvalues --   -0.39520  -0.39281  -0.39202  -0.39089  -0.38835
 Alpha  occ. eigenvalues --   -0.38785  -0.38526  -0.38496  -0.38445  -0.38024
 Alpha  occ. eigenvalues --   -0.37857  -0.37772  -0.37525  -0.37337  -0.37246
 Alpha  occ. eigenvalues --   -0.37005  -0.36986  -0.36806  -0.36654  -0.35986
 Alpha  occ. eigenvalues --   -0.35769  -0.35723  -0.35134  -0.35075  -0.34873
 Alpha  occ. eigenvalues --   -0.34711  -0.34398  -0.33936  -0.33694  -0.33600
 Alpha  occ. eigenvalues --   -0.32937  -0.32869  -0.32730  -0.32672  -0.32643
 Alpha  occ. eigenvalues --   -0.32196  -0.31980  -0.31952  -0.31893  -0.31466
 Alpha  occ. eigenvalues --   -0.30977  -0.30600  -0.30115  -0.29712  -0.29288
 Alpha  occ. eigenvalues --   -0.28753  -0.28279  -0.28198  -0.26866  -0.26253
 Alpha  occ. eigenvalues --   -0.25972  -0.25550  -0.25512  -0.25273  -0.20643
 Alpha  occ. eigenvalues --   -0.18655
 Alpha virt. eigenvalues --   -0.10760  -0.05190  -0.03928  -0.01805  -0.00624
 Alpha virt. eigenvalues --    0.00636   0.00966   0.01329   0.02576   0.03316
 Alpha virt. eigenvalues --    0.04007   0.04107   0.04781   0.05246   0.05485

 Mulliken charges:
               1
     1  Mg   0.968677
     2  C   -0.020692
     3  C   -0.074475
     4  C   -0.028172
     5  C   -0.052538
     6  N   -0.283771
     7  C   -0.015964
     8  C   -0.115513
     9  C   -0.106522
    10  C    0.063526
    11  C    0.030035
    12  C    0.059208
    13  C   -0.021017
    14  C    0.188749
    15  O   -0.277163
    16  O   -0.376272
    17  N   -0.503271
    18  C    0.162861
    19  C   -0.192590
    20  C   -0.091001
    21  C    0.174710
    22  C    0.057245
    23  C    0.062917
    24  O   -0.241434
    25  C   -0.032945
    26  N   -0.381496
    27  C    0.029088
    28  C   -0.137460
    29  C   -0.097728
    30  C    0.043665
    31  C    0.020736
    32  C   -0.011330
    33  C   -0.061032
    34  N   -0.471544
    35  C    0.120540
    36  C   -0.186105
    37  C   -0.066322
    38  C    0.187576
    39  C    0.050572
    40  C    0.175541
    41  O   -0.195972
    42  C   -0.171008
    43  C    0.270656
    44  O   -0.219176
    45  O   -0.354123
    46  C    0.103216
    47  C    0.242224
    48  C   -0.128773
    49  C   -0.261456
    50  C    0.004446
    51  C    0.056476
    52  C   -0.049739
    53  C   -0.069009
    54  C   -0.169742
    55  C    0.002267
    56  C   -0.012510
    57  C   -0.125314
    58  C   -0.018332
    59  C   -0.211707
    60  C   -0.009222
    61  C    0.006410
    62  C   -0.091770
    63  C    0.032048
    64  C   -0.272988
    65  C   -0.053631
    66  C   -0.005001
    67  H   -0.009796
    68  H    0.023303
    69  H   -0.001992
    70  H    0.062809
    71  H    0.036490
    72  H    0.042955
    73  H    0.043397
    74  H    0.046230
    75  H    0.052581
    76  H    0.061054
    77  H    0.061326
    78  H    0.049818
    79  H    0.069209
    80  H    0.062352
    81  H    0.043046
    82  H    0.053431
    83  H    0.052431
    84  H    0.080545
    85  H    0.056773
    86  H    0.051341
    87  H    0.046567
    88  H    0.057713
    89  H    0.052935
    90  H    0.035080
    91  H    0.034174
    92  H    0.040810
    93  H    0.047435
    94  H    0.037158
    95  H    0.061821
    96  H    0.034938
    97  H    0.047942
    98  H    0.085010
    99  H    0.068827
   100  H    0.059020
   101  H    0.053148
   102  H    0.066678
   103  H    0.095929
   104  H    0.020365
   105  H    0.043461
   106  H    0.046331
   107  H    0.044222
   108  H    0.047587
   109  H    0.025113
   110  H    0.036858
   111  H    0.047013
   112  H    0.036964
   113  H    0.038502
   114  H    0.033008
   115  H    0.042439
   116  H    0.031536
   117  H    0.041316
   118  H    0.028660
   119  H    0.031442
   120  H    0.041054
   121  H    0.029616
   122  H    0.032027
   123  H    0.039394
   124  H    0.040552
   125  H    0.021835
   126  H    0.033773
   127  H    0.029522
   128  H    0.036971
   129  H    0.035707
   130  H    0.020797
   131  H    0.032485
   132  H    0.016355
   133  H    0.014551
   134  H    0.033004
   135  H    0.049039
   136  H    0.045552
   137  H    0.039831
   138  H    0.038710
   139  H    0.032903
   140  H    0.031454
 Sum of Mulliken charges =  -0.00000

 Dipole moment (field-independent basis, Debye):
    X=             -3.3101    Y=              4.3947    Z=             -1.1659  Tot=              5.6240
 Quadrupole moment (field-independent basis, Debye-Ang):
   XX=           -379.6686   YY=           -416.6379   ZZ=           -408.9922
   XY=              5.0682   XZ=             18.2619   YZ=              1.4694

 Normal termination of Gaussian 16 at Thu Apr 28 08:01:05 2022.
