 Gaussian 16, Revision A.03,
 Gaussian 16:  ES64L-G16RevA.03 25-Dec-2016

 --------------------------------
 #p wB97XD/Def2SVP td=(nstates=5)
 --------------------------------

 -----------------------------------------------------
 step_1501_chromophore_25 TDDFT with wB97XD functional
 -----------------------------------------------------
 Symbolic Z-matrix:
 Charge =  0 Multiplicity = 1

                         Standard orientation:
 ---------------------------------------------------------------------
 Center     Atomic      Atomic             Coordinates (Angstroms)
 Number     Number       Type             X           Y           Z
 ---------------------------------------------------------------------
      1         12           0        6.082634    0.470343    0.420728
      2          6           0        3.682250   -2.124275    0.275778
      3          6           0        3.628381    2.663902   -0.474593
      4          6           0        8.548962    2.841695   -0.178185
      5          6           0        8.593840   -2.016001    0.542230
      6          7           0        3.785121    0.301198    0.049078
      7          6           0        3.057467   -0.854830    0.098260
      8          6           0        1.563336   -0.518645   -0.121223
      9          6           0        1.660848    0.994736   -0.489053
     10          6           0        3.118951    1.327012   -0.210694
     11          6           0        1.050021    1.489339   -1.794598
     12          6           0        0.835162   -0.917513    1.219572
     13          6           0       -0.191948   -2.000226    1.032102
     14          6           0       -1.609257   -1.664838    1.327401
     15          8           0       -2.081960   -1.736274    2.447879
     16          8           0       -2.261345   -1.250333    0.228841
     17          7           0        6.040942    2.489572   -0.122394
     18          6           0        4.938399    3.216788   -0.431843
     19          6           0        5.294259    4.564248   -0.726250
     20          6           0        6.690845    4.712218   -0.566808
     21          6           0        7.171845    3.310890   -0.232719
     22          6           0        4.247679    5.662318   -1.008538
     23          6           0        7.600688    5.940566   -0.703711
     24          8           0        8.822327    5.864493   -0.589161
     25          6           0        7.062210    7.275604   -0.999905
     26          7           0        8.250024    0.390381    0.213775
     27          6           0        9.008669    1.505207   -0.000731
     28          6           0       10.521855    1.110478   -0.057737
     29          6           0       10.511204   -0.421412    0.186163
     30          6           0        9.021261   -0.711808    0.352058
     31          6           0       11.238042    1.456106   -1.379908
     32          6           0       11.395497   -0.760992    1.415062
     33          6           0       10.758028   -0.998500    2.752583
     34          7           0        6.178601   -1.604128    0.556190
     35          6           0        7.225122   -2.500899    0.654326
     36          6           0        6.717347   -3.796777    0.873624
     37          6           0        5.349328   -3.710520    0.668681
     38          6           0        5.081264   -2.358047    0.438733
     39          6           0        7.454779   -5.040434    1.152535
     40          6           0        4.145907   -4.514075    0.420949
     41          8           0        3.908041   -5.701285    0.405553
     42          6           0        2.998845   -3.475821    0.284972
     43          6           0        2.326236   -3.735484   -1.070683
     44          8           0        2.683280   -3.384689   -2.163540
     45          8           0        1.311848   -4.606802   -0.751611
     46          6           0        0.344730   -4.736254   -1.827046
     47          6           0       -3.737242   -0.807381    0.481148
     48          6           0       -4.664881   -1.170864   -0.594039
     49          6           0       -5.995971   -1.017944   -0.665729
     50          6           0       -6.687698   -0.231154    0.479118
     51          6           0       -6.959302   -1.665742   -1.690372
     52          6           0       -7.763162   -0.690645   -2.552940
     53          6           0       -9.318629   -0.638789   -2.107153
     54          6           0      -10.224343    0.033844   -3.190291
     55          6           0      -10.297674    1.577681   -3.003769
     56          6           0      -11.653913   -0.581472   -3.176121
     57          6           0      -12.305827   -0.726062   -1.713670
     58          6           0      -13.654246    0.113535   -1.633164
     59          6           0      -14.385589   -0.031241   -0.194774
     60          6           0      -15.892669   -0.326275   -0.314652
     61          6           0      -14.156766    1.341956    0.690634
     62          6           0      -12.977930    0.944675    1.580456
     63          6           0      -12.337747    2.139958    2.326270
     64          6           0      -12.588968    2.149789    3.821399
     65          6           0      -13.178200    3.593022    4.209512
     66          6           0      -11.415563    1.762174    4.766230
     67          1           0        2.908507    3.438872   -0.742072
     68          1           0        9.426784    3.474459   -0.317794
     69          1           0        9.369574   -2.776511    0.655530
     70          1           0        1.210835   -1.118928   -0.960784
     71          1           0        1.095547    1.524664    0.277762
     72          1           0        0.723959    0.615992   -2.360314
     73          1           0        1.825801    1.920993   -2.427924
     74          1           0        0.235745    2.198731   -1.652345
     75          1           0        0.420937   -0.039373    1.715700
     76          1           0        1.533144   -1.432727    1.878731
     77          1           0       -0.019787   -2.820779    1.728612
     78          1           0       -0.179438   -2.456365    0.042024
     79          1           0        4.183654    6.254530   -0.095085
     80          1           0        3.297985    5.307975   -1.411100
     81          1           0        4.792235    6.302891   -1.702004
     82          1           0        7.841228    8.016384   -0.818093
     83          1           0        6.262904    7.563854   -0.317871
     84          1           0        6.750432    7.368808   -2.039637
     85          1           0       10.913480    1.650982    0.803753
     86          1           0       10.773196   -1.022506   -0.683514
     87          1           0       11.793324    2.358729   -1.120757
     88          1           0       10.505502    1.759013   -2.127733
     89          1           0       11.888275    0.633225   -1.674896
     90          1           0       12.032568    0.122632    1.460139
     91          1           0       12.043163   -1.597643    1.151599
     92          1           0       10.820015   -2.027205    3.109292
     93          1           0        9.683389   -0.817156    2.732467
     94          1           0       11.037372   -0.338946    3.573597
     95          1           0        7.684039   -5.359802    2.168852
     96          1           0        8.350533   -4.930338    0.540185
     97          1           0        6.958744   -5.911949    0.724324
     98          1           0        2.246262   -3.669385    1.049084
     99          1           0        0.852685   -4.823796   -2.787859
    100          1           0       -0.458765   -4.000759   -1.820748
    101          1           0       -0.123979   -5.709436   -1.674466
    102          1           0       -3.618591    0.275410    0.449441
    103          1           0       -4.110637   -1.175686    1.436110
    104          1           0       -4.289418   -1.692334   -1.473686
    105          1           0       -7.433113   -0.848869    0.979403
    106          1           0       -7.287566    0.531146   -0.017843
    107          1           0       -5.965197    0.150722    1.200314
    108          1           0       -7.668537   -2.277790   -1.133848
    109          1           0       -6.319370   -2.161741   -2.420460
    110          1           0       -7.674994   -1.162549   -3.531815
    111          1           0       -7.257817    0.274059   -2.505794
    112          1           0       -9.423110   -0.077878   -1.178851
    113          1           0       -9.698308   -1.639612   -1.901059
    114          1           0       -9.790830   -0.263233   -4.144865
    115          1           0       -9.566299    2.018717   -3.681594
    116          1           0      -10.017180    1.826441   -1.980043
    117          1           0      -11.305460    1.943688   -3.199798
    118          1           0      -11.786363   -1.606180   -3.522900
    119          1           0      -12.380917    0.011784   -3.729771
    120          1           0      -11.660525   -0.568868   -0.849507
    121          1           0      -12.629879   -1.758930   -1.590382
    122          1           0      -14.244730   -0.400918   -2.391398
    123          1           0      -13.566763    1.177241   -1.855416
    124          1           0      -13.950034   -0.893987    0.308341
    125          1           0      -16.488269    0.559178   -0.092944
    126          1           0      -16.250383   -1.009345    0.455503
    127          1           0      -16.206411   -0.627049   -1.314415
    128          1           0      -15.015369    1.625868    1.299551
    129          1           0      -13.840718    2.171697    0.058963
    130          1           0      -12.226878    0.491745    0.933648
    131          1           0      -13.167016    0.175316    2.327923
    132          1           0      -12.728921    3.065168    1.901255
    133          1           0      -11.257619    2.133420    2.178617
    134          1           0      -13.384846    1.455020    4.089720
    135          1           0      -13.963733    3.640831    3.455161
    136          1           0      -12.377321    4.319219    4.073392
    137          1           0      -13.488876    3.539454    5.252973
    138          1           0      -10.727348    1.044700    4.318440
    139          1           0      -11.882593    1.328381    5.649941
    140          1           0      -10.934249    2.685548    5.088692
 ---------------------------------------------------------------------

 SCF Done:  E(RwB97XD) =  -3007.87092162     A.U. after   17 cycles

 Excitation energies and oscillator strengths:

 Excited State   1:      Singlet-A      1.7757 eV  698.24 nm  f=0.3701  <S**2>=0.000
     245 -> 248       -0.18883
     246 -> 247        0.67904
     245 <- 248       -0.10997
 This state for optimization and/or second-order correction.
 Total Energy, E(TD-HF/TD-DFT) =  -3007.80566682
 Copying the excited state density for this state as the 1-particle RhoCI density.

 Excited State   2:      Singlet-A      2.2219 eV  558.00 nm  f=0.1157  <S**2>=0.000
     245 -> 247        0.63307
     246 -> 248        0.29256

 Excited State   3:      Singlet-A      3.5089 eV  353.35 nm  f=0.4469  <S**2>=0.000
     240 -> 247        0.19828
     241 -> 247       -0.31605
     244 -> 247        0.12003
     245 -> 247       -0.21544
     246 -> 248        0.52599

 Excited State   4:      Singlet-A      3.6320 eV  341.36 nm  f=0.1901  <S**2>=0.000
     240 -> 247        0.15187
     241 -> 247       -0.24454
     244 -> 247        0.52076
     245 -> 247        0.15251
     246 -> 248       -0.29287

 Excited State   5:      Singlet-A      3.6971 eV  335.36 nm  f=0.0053  <S**2>=0.000
     239 -> 247        0.42001
     239 -> 248        0.14370
     239 -> 249        0.32355
     239 -> 250       -0.16091
     240 -> 247        0.27309
     240 -> 249        0.18390
     244 -> 247       -0.15560

 The electronic state is 1-A.
 Alpha  occ. eigenvalues --  -46.96072 -19.30715 -19.30099 -19.25538 -19.24457
 Alpha  occ. eigenvalues --  -19.23766 -19.23526 -14.46739 -14.45874 -14.44801
 Alpha  occ. eigenvalues --  -14.43430 -10.43099 -10.42189 -10.39821 -10.38498
 Alpha  occ. eigenvalues --  -10.36994 -10.36395 -10.35279 -10.35183 -10.34901
 Alpha  occ. eigenvalues --  -10.34605 -10.34567 -10.33705 -10.33474 -10.32627
 Alpha  occ. eigenvalues --  -10.32618 -10.32390 -10.32292 -10.31996 -10.31890
 Alpha  occ. eigenvalues --  -10.31833 -10.31807 -10.31597 -10.31526 -10.31472
 Alpha  occ. eigenvalues --  -10.31242 -10.30857 -10.30689 -10.30484 -10.30435
 Alpha  occ. eigenvalues --  -10.30414 -10.30411 -10.30379 -10.30306 -10.30165
 Alpha  occ. eigenvalues --  -10.30121 -10.30034 -10.30024 -10.29969 -10.29962
 Alpha  occ. eigenvalues --  -10.29701 -10.29590 -10.29506 -10.29491 -10.29452
 Alpha  occ. eigenvalues --  -10.29403 -10.29234 -10.28923 -10.28527 -10.28494
 Alpha  occ. eigenvalues --  -10.28461 -10.28309 -10.28283 -10.27981 -10.27958
 Alpha  occ. eigenvalues --  -10.27869  -3.21879  -1.95471  -1.94982  -1.94839
 Alpha  occ. eigenvalues --   -1.18981  -1.18230  -1.12667  -1.12127  -1.11244
 Alpha  occ. eigenvalues --   -1.09329  -1.08518  -1.05734  -1.05267  -1.04537
 Alpha  occ. eigenvalues --   -0.94189  -0.92735  -0.91874  -0.91041  -0.90730
 Alpha  occ. eigenvalues --   -0.90479  -0.90135  -0.89411  -0.88970  -0.88566
 Alpha  occ. eigenvalues --   -0.88084  -0.87810  -0.86760  -0.85281  -0.84949
 Alpha  occ. eigenvalues --   -0.84453  -0.84318  -0.83194  -0.82473  -0.82173
 Alpha  occ. eigenvalues --   -0.81719  -0.80277  -0.79946  -0.78743  -0.77906
 Alpha  occ. eigenvalues --   -0.77758  -0.77073  -0.76882  -0.76448  -0.75903
 Alpha  occ. eigenvalues --   -0.75376  -0.74618  -0.73466  -0.72980  -0.71268
 Alpha  occ. eigenvalues --   -0.70751  -0.69986  -0.69434  -0.68855  -0.68280
 Alpha  occ. eigenvalues --   -0.67726  -0.66855  -0.66494  -0.66254  -0.65683
 Alpha  occ. eigenvalues --   -0.65136  -0.64213  -0.63971  -0.63849  -0.62133
 Alpha  occ. eigenvalues --   -0.61635  -0.61346  -0.61214  -0.60143  -0.59798
 Alpha  occ. eigenvalues --   -0.59630  -0.59343  -0.57966  -0.57586  -0.57403
 Alpha  occ. eigenvalues --   -0.57305  -0.56948  -0.56729  -0.56659  -0.56255
 Alpha  occ. eigenvalues --   -0.56036  -0.55896  -0.55304  -0.55281  -0.54908
 Alpha  occ. eigenvalues --   -0.54651  -0.54359  -0.54264  -0.53922  -0.53725
 Alpha  occ. eigenvalues --   -0.53520  -0.53088  -0.52960  -0.52794  -0.52406
 Alpha  occ. eigenvalues --   -0.52258  -0.52135  -0.51973  -0.51779  -0.51644
 Alpha  occ. eigenvalues --   -0.51523  -0.51289  -0.51114  -0.50975  -0.50864
 Alpha  occ. eigenvalues --   -0.50785  -0.50502  -0.50388  -0.50317  -0.49749
 Alpha  occ. eigenvalues --   -0.49689  -0.49253  -0.49114  -0.48670  -0.48646
 Alpha  occ. eigenvalues --   -0.48612  -0.48019  -0.47960  -0.47889  -0.47502
 Alpha  occ. eigenvalues --   -0.47231  -0.47163  -0.47087  -0.47051  -0.46966
 Alpha  occ. eigenvalues --   -0.46626  -0.46412  -0.46289  -0.46207  -0.45933
 Alpha  occ. eigenvalues --   -0.45859  -0.45814  -0.45638  -0.45529  -0.45097
 Alpha  occ. eigenvalues --   -0.44993  -0.44913  -0.44714  -0.44563  -0.44393
 Alpha  occ. eigenvalues --   -0.44151  -0.44046  -0.43878  -0.43746  -0.43019
 Alpha  occ. eigenvalues --   -0.42889  -0.42682  -0.42229  -0.42107  -0.41933
 Alpha  occ. eigenvalues --   -0.41692  -0.41384  -0.40957  -0.40652  -0.40575
 Alpha  occ. eigenvalues --   -0.39921  -0.39812  -0.39769  -0.39716  -0.39487
 Alpha  occ. eigenvalues --   -0.39173  -0.38992  -0.38960  -0.38916  -0.38552
 Alpha  occ. eigenvalues --   -0.37851  -0.37572  -0.36975  -0.36703  -0.36012
 Alpha  occ. eigenvalues --   -0.35562  -0.35246  -0.34890  -0.33843  -0.33575
 Alpha  occ. eigenvalues --   -0.32648  -0.32313  -0.32288  -0.31480  -0.25651
 Alpha  occ. eigenvalues --   -0.22892
 Alpha virt. eigenvalues --   -0.06554   0.00275   0.02290   0.04744   0.05308
 Alpha virt. eigenvalues --    0.07503   0.07671   0.08134   0.09328   0.09794
 Alpha virt. eigenvalues --    0.10433   0.10756   0.11593   0.12040   0.12310

 Mulliken charges:
               1
     1  Mg   0.961901
     2  C   -0.012867
     3  C   -0.090095
     4  C   -0.052727
     5  C   -0.072619
     6  N   -0.240682
     7  C   -0.053050
     8  C   -0.087266
     9  C   -0.084621
    10  C    0.045659
    11  C    0.041395
    12  C    0.071019
    13  C    0.006636
    14  C    0.175894
    15  O   -0.275266
    16  O   -0.375836
    17  N   -0.474484
    18  C    0.157742
    19  C   -0.179922
    20  C   -0.084808
    21  C    0.172790
    22  C    0.072191
    23  C    0.062377
    24  O   -0.233460
    25  C   -0.025604
    26  N   -0.348873
    27  C    0.020519
    28  C   -0.109186
    29  C   -0.077768
    30  C    0.034010
    31  C    0.031196
    32  C    0.002793
    33  C   -0.043092
    34  N   -0.434042
    35  C    0.109586
    36  C   -0.184329
    37  C   -0.061331
    38  C    0.162170
    39  C    0.059565
    40  C    0.153643
    41  O   -0.188242
    42  C   -0.132005
    43  C    0.247792
    44  O   -0.213591
    45  O   -0.352584
    46  C    0.118594
    47  C    0.257009
    48  C   -0.137788
    49  C   -0.249671
    50  C    0.018588
    51  C    0.076554
    52  C   -0.036350
    53  C   -0.049146
    54  C   -0.141106
    55  C    0.013265
    56  C    0.004565
    57  C   -0.106237
    58  C   -0.002429
    59  C   -0.179756
    60  C    0.002846
    61  C    0.017925
    62  C   -0.064040
    63  C    0.045160
    64  C   -0.247740
    65  C   -0.033880
    66  C    0.006928
    67  H   -0.019112
    68  H    0.019087
    69  H   -0.009077
    70  H    0.047209
    71  H    0.025083
    72  H    0.038773
    73  H    0.035723
    74  H    0.042413
    75  H    0.045997
    76  H    0.050893
    77  H    0.056041
    78  H    0.029595
    79  H    0.065975
    80  H    0.061636
    81  H    0.035700
    82  H    0.053587
    83  H    0.047708
    84  H    0.077833
    85  H    0.045454
    86  H    0.042020
    87  H    0.040980
    88  H    0.051498
    89  H    0.048569
    90  H    0.024429
    91  H    0.028103
    92  H    0.035770
    93  H    0.036294
    94  H    0.031672
    95  H    0.055949
    96  H    0.026269
    97  H    0.042338
    98  H    0.075806
    99  H    0.064667
   100  H    0.055506
   101  H    0.049408
   102  H    0.061820
   103  H    0.092008
   104  H    0.017292
   105  H    0.038175
   106  H    0.037611
   107  H    0.039219
   108  H    0.038943
   109  H    0.018628
   110  H    0.029665
   111  H    0.038358
   112  H    0.021906
   113  H    0.028038
   114  H    0.022252
   115  H    0.037467
   116  H    0.024710
   117  H    0.034863
   118  H    0.021906
   119  H    0.021238
   120  H    0.025024
   121  H    0.021025
   122  H    0.021406
   123  H    0.028613
   124  H    0.027068
   125  H    0.014619
   126  H    0.028581
   127  H    0.023855
   128  H    0.028553
   129  H    0.026724
   130  H    0.003901
   131  H    0.022462
   132  H    0.005399
   133  H    0.007209
   134  H    0.020438
   135  H    0.039795
   136  H    0.038038
   137  H    0.034473
   138  H    0.033333
   139  H    0.027103
   140  H    0.024666
 Sum of Mulliken charges =  -0.00000

 Dipole moment (field-independent basis, Debye):
    X=             -3.5234    Y=              5.5096    Z=             -1.3572  Tot=              6.6792
 Quadrupole moment (field-independent basis, Debye-Ang):
   XX=           -382.0008   YY=           -414.0428   ZZ=           -408.6938
   XY=             11.7956   XZ=             17.0819   YZ=              1.3481

 Normal termination of Gaussian 16 at Thu Apr 28 08:34:18 2022.
