 Gaussian 16, Revision A.03,
 Gaussian 16:  ES64L-G16RevA.03 25-Dec-2016

 --------------------
 #p ZINDO=(nstates=5)
 --------------------

 ------------------------------
 step_1501_chromophore_25 ZINDO
 ------------------------------
 Symbolic Z-matrix:
 Charge =  0 Multiplicity = 1

                         Standard orientation:
 ---------------------------------------------------------------------
 Center     Atomic      Atomic             Coordinates (Angstroms)
 Number     Number       Type             X           Y           Z
 ---------------------------------------------------------------------
      1         12           0        6.082634    0.470343    0.420728
      2          6           0        3.682250   -2.124275    0.275778
      3          6           0        3.628381    2.663902   -0.474593
      4          6           0        8.548962    2.841695   -0.178185
      5          6           0        8.593840   -2.016001    0.542230
      6          7           0        3.785121    0.301198    0.049078
      7          6           0        3.057467   -0.854830    0.098260
      8          6           0        1.563336   -0.518645   -0.121223
      9          6           0        1.660848    0.994736   -0.489053
     10          6           0        3.118951    1.327012   -0.210694
     11          6           0        1.050021    1.489339   -1.794598
     12          6           0        0.835162   -0.917513    1.219572
     13          6           0       -0.191948   -2.000226    1.032102
     14          6           0       -1.609257   -1.664838    1.327401
     15          8           0       -2.081960   -1.736274    2.447879
     16          8           0       -2.261345   -1.250333    0.228841
     17          7           0        6.040942    2.489572   -0.122394
     18          6           0        4.938399    3.216788   -0.431843
     19          6           0        5.294259    4.564248   -0.726250
     20          6           0        6.690845    4.712218   -0.566808
     21          6           0        7.171845    3.310890   -0.232719
     22          6           0        4.247679    5.662318   -1.008538
     23          6           0        7.600688    5.940566   -0.703711
     24          8           0        8.822327    5.864493   -0.589161
     25          6           0        7.062210    7.275604   -0.999905
     26          7           0        8.250024    0.390381    0.213775
     27          6           0        9.008669    1.505207   -0.000731
     28          6           0       10.521855    1.110478   -0.057737
     29          6           0       10.511204   -0.421412    0.186163
     30          6           0        9.021261   -0.711808    0.352058
     31          6           0       11.238042    1.456106   -1.379908
     32          6           0       11.395497   -0.760992    1.415062
     33          6           0       10.758028   -0.998500    2.752583
     34          7           0        6.178601   -1.604128    0.556190
     35          6           0        7.225122   -2.500899    0.654326
     36          6           0        6.717347   -3.796777    0.873624
     37          6           0        5.349328   -3.710520    0.668681
     38          6           0        5.081264   -2.358047    0.438733
     39          6           0        7.454779   -5.040434    1.152535
     40          6           0        4.145907   -4.514075    0.420949
     41          8           0        3.908041   -5.701285    0.405553
     42          6           0        2.998845   -3.475821    0.284972
     43          6           0        2.326236   -3.735484   -1.070683
     44          8           0        2.683280   -3.384689   -2.163540
     45          8           0        1.311848   -4.606802   -0.751611
     46          6           0        0.344730   -4.736254   -1.827046
     47          6           0       -3.737242   -0.807381    0.481148
     48          6           0       -4.664881   -1.170864   -0.594039
     49          6           0       -5.995971   -1.017944   -0.665729
     50          6           0       -6.687698   -0.231154    0.479118
     51          6           0       -6.959302   -1.665742   -1.690372
     52          6           0       -7.763162   -0.690645   -2.552940
     53          6           0       -9.318629   -0.638789   -2.107153
     54          6           0      -10.224343    0.033844   -3.190291
     55          6           0      -10.297674    1.577681   -3.003769
     56          6           0      -11.653913   -0.581472   -3.176121
     57          6           0      -12.305827   -0.726062   -1.713670
     58          6           0      -13.654246    0.113535   -1.633164
     59          6           0      -14.385589   -0.031241   -0.194774
     60          6           0      -15.892669   -0.326275   -0.314652
     61          6           0      -14.156766    1.341956    0.690634
     62          6           0      -12.977930    0.944675    1.580456
     63          6           0      -12.337747    2.139958    2.326270
     64          6           0      -12.588968    2.149789    3.821399
     65          6           0      -13.178200    3.593022    4.209512
     66          6           0      -11.415563    1.762174    4.766230
     67          1           0        2.908507    3.438872   -0.742072
     68          1           0        9.426784    3.474459   -0.317794
     69          1           0        9.369574   -2.776511    0.655530
     70          1           0        1.210835   -1.118928   -0.960784
     71          1           0        1.095547    1.524664    0.277762
     72          1           0        0.723959    0.615992   -2.360314
     73          1           0        1.825801    1.920993   -2.427924
     74          1           0        0.235745    2.198731   -1.652345
     75          1           0        0.420937   -0.039373    1.715700
     76          1           0        1.533144   -1.432727    1.878731
     77          1           0       -0.019787   -2.820779    1.728612
     78          1           0       -0.179438   -2.456365    0.042024
     79          1           0        4.183654    6.254530   -0.095085
     80          1           0        3.297985    5.307975   -1.411100
     81          1           0        4.792235    6.302891   -1.702004
     82          1           0        7.841228    8.016384   -0.818093
     83          1           0        6.262904    7.563854   -0.317871
     84          1           0        6.750432    7.368808   -2.039637
     85          1           0       10.913480    1.650982    0.803753
     86          1           0       10.773196   -1.022506   -0.683514
     87          1           0       11.793324    2.358729   -1.120757
     88          1           0       10.505502    1.759013   -2.127733
     89          1           0       11.888275    0.633225   -1.674896
     90          1           0       12.032568    0.122632    1.460139
     91          1           0       12.043163   -1.597643    1.151599
     92          1           0       10.820015   -2.027205    3.109292
     93          1           0        9.683389   -0.817156    2.732467
     94          1           0       11.037372   -0.338946    3.573597
     95          1           0        7.684039   -5.359802    2.168852
     96          1           0        8.350533   -4.930338    0.540185
     97          1           0        6.958744   -5.911949    0.724324
     98          1           0        2.246262   -3.669385    1.049084
     99          1           0        0.852685   -4.823796   -2.787859
    100          1           0       -0.458765   -4.000759   -1.820748
    101          1           0       -0.123979   -5.709436   -1.674466
    102          1           0       -3.618591    0.275410    0.449441
    103          1           0       -4.110637   -1.175686    1.436110
    104          1           0       -4.289418   -1.692334   -1.473686
    105          1           0       -7.433113   -0.848869    0.979403
    106          1           0       -7.287566    0.531146   -0.017843
    107          1           0       -5.965197    0.150722    1.200314
    108          1           0       -7.668537   -2.277790   -1.133848
    109          1           0       -6.319370   -2.161741   -2.420460
    110          1           0       -7.674994   -1.162549   -3.531815
    111          1           0       -7.257817    0.274059   -2.505794
    112          1           0       -9.423110   -0.077878   -1.178851
    113          1           0       -9.698308   -1.639612   -1.901059
    114          1           0       -9.790830   -0.263233   -4.144865
    115          1           0       -9.566299    2.018717   -3.681594
    116          1           0      -10.017180    1.826441   -1.980043
    117          1           0      -11.305460    1.943688   -3.199798
    118          1           0      -11.786363   -1.606180   -3.522900
    119          1           0      -12.380917    0.011784   -3.729771
    120          1           0      -11.660525   -0.568868   -0.849507
    121          1           0      -12.629879   -1.758930   -1.590382
    122          1           0      -14.244730   -0.400918   -2.391398
    123          1           0      -13.566763    1.177241   -1.855416
    124          1           0      -13.950034   -0.893987    0.308341
    125          1           0      -16.488269    0.559178   -0.092944
    126          1           0      -16.250383   -1.009345    0.455503
    127          1           0      -16.206411   -0.627049   -1.314415
    128          1           0      -15.015369    1.625868    1.299551
    129          1           0      -13.840718    2.171697    0.058963
    130          1           0      -12.226878    0.491745    0.933648
    131          1           0      -13.167016    0.175316    2.327923
    132          1           0      -12.728921    3.065168    1.901255
    133          1           0      -11.257619    2.133420    2.178617
    134          1           0      -13.384846    1.455020    4.089720
    135          1           0      -13.963733    3.640831    3.455161
    136          1           0      -12.377321    4.319219    4.073392
    137          1           0      -13.488876    3.539454    5.252973
    138          1           0      -10.727348    1.044700    4.318440
    139          1           0      -11.882593    1.328381    5.649941
    140          1           0      -10.934249    2.685548    5.088692
 ---------------------------------------------------------------------

 SCF Done:  E(RZINDO/S) =  -474.247807045     A.U. after   19 cycles

 Excitation energies and oscillator strengths:

 Excited State   1:      Singlet-A      1.3638 eV  909.10 nm  f=0.5359  <S**2>=0.000
     175 ->178         0.17222
     176 ->177         0.66765
 This state for optimization and/or second-order correction.
 Total Energy, E(CIS/TDA) =  -474.197687801
 Copying the excited state density for this state as the 1-particle RhoCI density.

 Excited State   2:      Singlet-A      1.9413 eV  638.65 nm  f=0.0376  <S**2>=0.000
     175 ->177         0.53286
     176 ->178        -0.43066

 Excited State   3:      Singlet-A      2.9426 eV  421.34 nm  f=0.8584  <S**2>=0.000
     175 ->177         0.35498
     176 ->178         0.45611
     176 ->179        -0.30133
     176 ->181         0.14418

 Excited State   4:      Singlet-A      2.9538 eV  419.74 nm  f=0.0017  <S**2>=0.000
     167 ->177        -0.17845
     167 ->179         0.26811
     167 ->181         0.11030
     167 ->185         0.12054
     168 ->177        -0.26484
     168 ->178         0.10353
     168 ->179         0.37948
     168 ->180        -0.11252
     168 ->181         0.15369
     168 ->183         0.11516
     168 ->185         0.17030

 Excited State   5:      Singlet-A      3.0716 eV  403.64 nm  f=0.1735  <S**2>=0.000
     170 ->177         0.16760
     170 ->178        -0.11205
     170 ->179         0.16680
     170 ->180         0.10356
     170 ->181        -0.19615
     170 ->185         0.12941
     171 ->177         0.14191
     171 ->178        -0.10658
     171 ->179         0.13515
     171 ->180         0.10160
     171 ->181        -0.20042
     171 ->185         0.12847
     175 ->177         0.13001
     176 ->178         0.16845
     176 ->179         0.29802
     176 ->180         0.13014

 The electronic state is 1-A.
 Alpha  occ. eigenvalues --   -1.85193  -1.81868  -1.79864  -1.73996  -1.73173
 Alpha  occ. eigenvalues --   -1.71656  -1.63385  -1.60303  -1.60147  -1.58269
 Alpha  occ. eigenvalues --   -1.54528  -1.50873  -1.49386  -1.48372  -1.46759
 Alpha  occ. eigenvalues --   -1.44834  -1.44104  -1.40271  -1.39734  -1.37647
 Alpha  occ. eigenvalues --   -1.37218  -1.33748  -1.33273  -1.32110  -1.28174
 Alpha  occ. eigenvalues --   -1.27641  -1.24086  -1.22515  -1.20033  -1.17962
 Alpha  occ. eigenvalues --   -1.17184  -1.15546  -1.15139  -1.14772  -1.12552
 Alpha  occ. eigenvalues --   -1.12309  -1.10366  -1.09825  -1.04421  -1.03853
 Alpha  occ. eigenvalues --   -1.03015  -1.01301  -0.99365  -0.98381  -0.97734
 Alpha  occ. eigenvalues --   -0.97188  -0.95257  -0.94048  -0.92654  -0.91559
 Alpha  occ. eigenvalues --   -0.90107  -0.89082  -0.88638  -0.88195  -0.85823
 Alpha  occ. eigenvalues --   -0.84353  -0.83587  -0.83483  -0.81546  -0.80312
 Alpha  occ. eigenvalues --   -0.79214  -0.78456  -0.78138  -0.76692  -0.76397
 Alpha  occ. eigenvalues --   -0.75498  -0.74697  -0.74135  -0.73837  -0.73513
 Alpha  occ. eigenvalues --   -0.73244  -0.72741  -0.72143  -0.71827  -0.71103
 Alpha  occ. eigenvalues --   -0.69997  -0.69338  -0.68796  -0.68521  -0.67771
 Alpha  occ. eigenvalues --   -0.67716  -0.67247  -0.66712  -0.66565  -0.65230
 Alpha  occ. eigenvalues --   -0.65165  -0.64851  -0.63803  -0.63751  -0.63361
 Alpha  occ. eigenvalues --   -0.62856  -0.62528  -0.62347  -0.62106  -0.61906
 Alpha  occ. eigenvalues --   -0.61552  -0.61355  -0.60845  -0.60681  -0.60258
 Alpha  occ. eigenvalues --   -0.59973  -0.59162  -0.59069  -0.58605  -0.58064
 Alpha  occ. eigenvalues --   -0.57707  -0.57441  -0.57287  -0.57043  -0.56920
 Alpha  occ. eigenvalues --   -0.56345  -0.56136  -0.55777  -0.55079  -0.54883
 Alpha  occ. eigenvalues --   -0.54646  -0.54513  -0.54068  -0.53700  -0.53653
 Alpha  occ. eigenvalues --   -0.53238  -0.52212  -0.52097  -0.51661  -0.51333
 Alpha  occ. eigenvalues --   -0.51170  -0.50735  -0.50623  -0.50431  -0.50074
 Alpha  occ. eigenvalues --   -0.49881  -0.49879  -0.49754  -0.49662  -0.49382
 Alpha  occ. eigenvalues --   -0.48732  -0.48220  -0.47995  -0.47770  -0.47722
 Alpha  occ. eigenvalues --   -0.47564  -0.47336  -0.46940  -0.46779  -0.46650
 Alpha  occ. eigenvalues --   -0.46315  -0.46186  -0.45986  -0.45667  -0.45563
 Alpha  occ. eigenvalues --   -0.45518  -0.45215  -0.44936  -0.44509  -0.44095
 Alpha  occ. eigenvalues --   -0.43907  -0.43482  -0.43339  -0.42297  -0.42045
 Alpha  occ. eigenvalues --   -0.41786  -0.41679  -0.41105  -0.38556  -0.38230
 Alpha  occ. eigenvalues --   -0.37881  -0.36738  -0.36287  -0.34529  -0.34326
 Alpha  occ. eigenvalues --   -0.33850  -0.32320  -0.32029  -0.31650  -0.26397
 Alpha  occ. eigenvalues --   -0.21778
 Alpha virt. eigenvalues --   -0.08003  -0.02082  -0.00738   0.01512   0.01561
 Alpha virt. eigenvalues --    0.02385   0.03223   0.03607   0.04731   0.04753
 Alpha virt. eigenvalues --    0.05898   0.06659   0.07037   0.07639   0.08227

 Mulliken charges:
               1
     1  Mg   0.431996
     2  C   -0.024457
     3  C   -0.101184
     4  C   -0.090548
     5  C   -0.084018
     6  N   -0.235687
     7  C    0.059479
     8  C    0.000115
     9  C    0.007010
    10  C    0.180425
    11  C   -0.046267
    12  C   -0.012754
    13  C    0.002983
    14  C    0.476089
    15  O   -0.536494
    16  O   -0.280489
    17  N   -0.336036
    18  C    0.133772
    19  C    0.035220
    20  C   -0.045793
    21  C    0.154238
    22  C   -0.049691
    23  C    0.338159
    24  O   -0.516714
    25  C   -0.023813
    26  N   -0.280621
    27  C    0.163311
    28  C    0.002359
    29  C   -0.001921
    30  C    0.109351
    31  C   -0.051102
    32  C   -0.020556
    33  C   -0.053857
    34  N   -0.313507
    35  C    0.070521
    36  C    0.013767
    37  C   -0.064609
    38  C    0.091068
    39  C   -0.045198
    40  C    0.336515
    41  O   -0.517688
    42  C    0.047132
    43  C    0.485375
    44  O   -0.509587
    45  O   -0.265357
    46  C    0.070011
    47  C    0.112346
    48  C   -0.077196
    49  C   -0.029276
    50  C   -0.056654
    51  C   -0.022283
    52  C   -0.041440
    53  C   -0.038689
    54  C   -0.008759
    55  C   -0.054311
    56  C   -0.042008
    57  C   -0.051381
    58  C   -0.045071
    59  C   -0.026834
    60  C   -0.061885
    61  C   -0.035642
    62  C   -0.039074
    63  C   -0.035440
    64  C   -0.024374
    65  C   -0.070964
    66  C   -0.058511
    67  H    0.021487
    68  H    0.050228
    69  H    0.022789
    70  H    0.041384
    71  H    0.020231
    72  H    0.023217
    73  H    0.021798
    74  H    0.026869
    75  H    0.034363
    76  H    0.032249
    77  H    0.036054
    78  H    0.035204
    79  H    0.037534
    80  H    0.041549
    81  H    0.025485
    82  H    0.034089
    83  H    0.029655
    84  H    0.044957
    85  H    0.038654
    86  H    0.036164
    87  H    0.018777
    88  H    0.030697
    89  H    0.030965
    90  H    0.014830
    91  H    0.016790
    92  H    0.020087
    93  H    0.018384
    94  H    0.017668
    95  H    0.036548
    96  H    0.016585
    97  H    0.023639
    98  H    0.061325
    99  H    0.051589
   100  H    0.040033
   101  H    0.024846
   102  H    0.044726
   103  H    0.072805
   104  H    0.023892
   105  H    0.024409
   106  H    0.025439
   107  H    0.028328
   108  H    0.037875
   109  H    0.022136
   110  H    0.021819
   111  H    0.030317
   112  H    0.022205
   113  H    0.022365
   114  H    0.019346
   115  H    0.018476
   116  H    0.021696
   117  H    0.024722
   118  H    0.019183
   119  H    0.018214
   120  H    0.028418
   121  H    0.011833
   122  H    0.019064
   123  H    0.028809
   124  H    0.027524
   125  H    0.009697
   126  H    0.017564
   127  H    0.020227
   128  H    0.028382
   129  H    0.028276
   130  H    0.012551
   131  H    0.022860
   132  H    0.017191
   133  H    0.013075
   134  H    0.013935
   135  H    0.027215
   136  H    0.024809
   137  H    0.021741
   138  H    0.023128
   139  H    0.015129
   140  H    0.020401
 Sum of Mulliken charges =  -0.00000

 Dipole moment (field-independent basis, Debye):
    X=             -4.5671    Y=              9.7860    Z=             -1.3858  Tot=             10.8878
 N-N= 4.234687652258D+03 E-N= 0.000000000000D+00  KE=-9.143556343337D+03
 Leave Link  601 at Thu Apr 28 08:46:29 2022, MaxMem=  6710886400 cpu:               0.7 elap:               0.0
 (Enter /sw/apps/gaussian-16.0/g16/l9999.exe)
 1\1\GINC-BP1-COMPUTE134\SP\RZINDO CIS\STO-3G\C55H74Mg1N4O6\OF15641\28-
 Apr-2022\0\\#p ZINDO=(nstates=5)\\step_1501_chromophore_25 ZINDO\\0,1\
 Mg,0,-2.019,34.138,26.358\C,0,-3.311,32.493,29.211\C,0,-0.781,36.552,2
 8.426\C,0,-1.434,36.107,23.557\C,0,-4.029,32.017,24.367\N,0,-1.942,34.
 437,28.671\C,0,-2.502,33.602,29.597\C,0,-2.149,34.113,31.014\C,0,-1.46
 9,35.474,30.667\C,0,-1.342,35.423,29.152\C,0,-1.995,36.757,31.299\C,0,
 -1.267,32.981,31.668\C,0,-1.895,32.381,32.896\C,0,-1.177,32.543,34.187

 Normal termination of Gaussian 16 at Thu Apr 28 08:46:30 2022.
