 Gaussian 16, Revision A.03,
 Gaussian 16:  ES64L-G16RevA.03 25-Dec-2016

 ------------------------------
 #p blyp/Def2SVP td=(nstates=5)
 ------------------------------

 -------------------------------------------------
 step_51_chromophore_22 TDDFT with blyp functional
 -------------------------------------------------
 Symbolic Z-matrix:
 Charge =  0 Multiplicity = 1

                         Standard orientation:
 ---------------------------------------------------------------------
 Center     Atomic      Atomic             Coordinates (Angstroms)
 Number     Number       Type             X           Y           Z
 ---------------------------------------------------------------------
      1         12           0        6.040158    0.553022    0.096309
      2          6           0        3.526135   -1.958771   -0.573811
      3          6           0        3.796610    2.834713   -1.235154
      4          6           0        8.403726    2.902400    0.329189
      5          6           0        8.296925   -1.967633    0.329043
      6          7           0        3.885922    0.367211   -0.873454
      7          6           0        3.087934   -0.668015   -0.924094
      8          6           0        1.753712   -0.183459   -1.521063
      9          6           0        2.080903    1.244251   -2.178827
     10          6           0        3.325424    1.527242   -1.369030
     11          6           0        2.466620    1.304927   -3.648489
     12          6           0        0.642441   -0.187967   -0.454497
     13          6           0       -0.765627   -0.336437   -1.037813
     14          6           0       -1.752817   -1.159335   -0.160261
     15          8           0       -2.067184   -0.967796    0.971486
     16          8           0       -2.260064   -2.266944   -0.850838
     17          7           0        6.065169    2.581308   -0.250792
     18          6           0        4.975631    3.324757   -0.579478
     19          6           0        5.270425    4.749714   -0.459602
     20          6           0        6.661884    4.842487   -0.088764
     21          6           0        7.142367    3.421422    0.004479
     22          6           0        4.267898    5.816617   -0.737693
     23          6           0        7.606969    6.042953    0.212082
     24          8           0        8.766118    6.013014    0.661522
     25          6           0        7.017121    7.324070   -0.122728
     26          7           0        8.092803    0.471164    0.141896
     27          6           0        8.899920    1.603426    0.299991
     28          6           0       10.298460    1.293787    0.646254
     29          6           0       10.306577   -0.308466    0.811469
     30          6           0        8.815471   -0.662739    0.468157
     31          6           0       11.393453    1.784800   -0.417255
     32          6           0       10.576836   -0.853473    2.309350
     33          6           0       11.431385   -2.084657    2.458895
     34          7           0        6.030185   -1.604776   -0.014606
     35          6           0        7.016399   -2.508382    0.114669
     36          6           0        6.558583   -3.850808   -0.045992
     37          6           0        5.116407   -3.634167   -0.104769
     38          6           0        4.883085   -2.255748   -0.206479
     39          6           0        7.311880   -5.137542   -0.024541
     40          6           0        3.895482   -4.317785   -0.123446
     41          8           0        3.720514   -5.528247    0.097075
     42          6           0        2.894740   -3.274778   -0.525854
     43          6           0        1.861951   -3.459350    0.570105
     44          8           0        1.753244   -2.687818    1.560031
     45          8           0        1.051337   -4.563391    0.314336
     46          6           0       -0.022392   -4.763516    1.339819
     47          6           0       -3.143712   -3.109388    0.011616
     48          6           0       -4.525756   -2.612216    0.297888
     49          6           0       -5.708600   -3.176481    0.071717
     50          6           0       -6.035443   -4.475949   -0.633259
     51          6           0       -6.923812   -2.376143    0.375631
     52          6           0       -7.562064   -1.796627   -0.894894
     53          6           0       -7.876270   -0.265569   -0.844235
     54          6           0       -9.373655   -0.035176   -0.541013
     55          6           0      -10.211825   -0.073740   -1.847092
     56          6           0       -9.584088    1.312387    0.266502
     57          6           0      -10.687354    1.105209    1.404944
     58          6           0      -11.448062    2.479115    1.609662
     59          6           0      -12.581982    2.426604    2.626764
     60          6           0      -12.272216    3.359339    3.777609
     61          6           0      -13.902185    2.765821    1.993790
     62          6           0      -14.531027    1.481072    1.403835
     63          6           0      -14.320957    1.409626   -0.136657
     64          6           0      -15.283609    0.505920   -0.989639
     65          6           0      -14.590424   -0.175079   -2.243260
     66          6           0      -16.481596    1.416447   -1.482560
     67          1           0        3.230423    3.599851   -1.770745
     68          1           0        9.187090    3.604863    0.621306
     69          1           0        9.123438   -2.662984    0.492531
     70          1           0        1.432828   -0.854108   -2.318304
     71          1           0        1.336448    2.004021   -1.940471
     72          1           0        3.497356    1.623182   -3.804604
     73          1           0        1.841686    1.997060   -4.212888
     74          1           0        2.504583    0.322833   -4.119385
     75          1           0        0.639813    0.827558   -0.056969
     76          1           0        0.716092   -0.865016    0.395962
     77          1           0       -0.814478   -0.686474   -2.068906
     78          1           0       -1.151008    0.652344   -1.288243
     79          1           0        3.262279    5.402765   -0.677403
     80          1           0        4.171692    6.336106   -1.691052
     81          1           0        4.408137    6.398886    0.173606
     82          1           0        6.445937    7.497401    0.789037
     83          1           0        6.432341    7.404156   -1.038683
     84          1           0        7.879479    7.990548   -0.117152
     85          1           0       10.500966    1.718438    1.629681
     86          1           0       10.958407   -0.831145    0.111631
     87          1           0       11.871406    2.577240    0.159148
     88          1           0       10.884208    2.208085   -1.281965
     89          1           0       12.069497    0.963104   -0.656136
     90          1           0        9.595216   -0.913761    2.779880
     91          1           0       11.172533   -0.120047    2.852640
     92          1           0       11.034500   -2.826569    3.151885
     93          1           0       12.302994   -1.792584    3.045385
     94          1           0       11.805776   -2.463438    1.507491
     95          1           0        8.294149   -4.972928   -0.468115
     96          1           0        6.793586   -5.925870   -0.570371
     97          1           0        7.368843   -5.403012    1.030451
     98          1           0        2.538565   -3.633751   -1.491334
     99          1           0       -0.043564   -5.853761    1.357245
    100          1           0       -0.897828   -4.304993    0.878593
    101          1           0        0.044302   -4.276133    2.312100
    102          1           0       -2.721315   -3.329871    0.991803
    103          1           0       -3.189564   -4.091727   -0.459318
    104          1           0       -4.619794   -1.629512    0.761764
    105          1           0       -7.031505   -4.662287   -1.034826
    106          1           0       -5.708509   -5.364763   -0.094038
    107          1           0       -5.419221   -4.492107   -1.532021
    108          1           0       -6.672159   -1.557590    1.051255
    109          1           0       -7.572829   -2.994964    0.996285
    110          1           0       -8.461661   -2.364522   -1.133055
    111          1           0       -7.032216   -1.980620   -1.829545
    112          1           0       -7.615416    0.070010   -1.846900
    113          1           0       -7.198766    0.298905   -0.204125
    114          1           0       -9.770036   -0.850060    0.065116
    115          1           0      -11.116321    0.498856   -1.642343
    116          1           0      -10.595807   -1.057328   -2.120346
    117          1           0       -9.797776    0.444361   -2.712432
    118          1           0       -9.751508    2.191068   -0.356465
    119          1           0       -8.693708    1.564065    0.842276
    120          1           0      -10.204428    0.829398    2.342130
    121          1           0      -11.370528    0.333457    1.049527
    122          1           0      -11.889943    2.769130    0.656396
    123          1           0      -10.654241    3.190312    1.834822
    124          1           0      -12.610148    1.454647    3.119039
    125          1           0      -11.355044    3.919566    3.598222
    126          1           0      -12.003673    2.828462    4.690280
    127          1           0      -12.990873    4.174579    3.866143
    128          1           0      -13.727157    3.505374    1.212214
    129          1           0      -14.593258    3.123985    2.756904
    130          1           0      -15.605413    1.430502    1.583867
    131          1           0      -14.179882    0.596649    1.937090
    132          1           0      -13.282469    1.138395   -0.327276
    133          1           0      -14.578926    2.392197   -0.529159
    134          1           0      -15.623232   -0.255684   -0.288960
    135          1           0      -14.476661   -1.258875   -2.254817
    136          1           0      -13.612536    0.297962   -2.334302
    137          1           0      -15.183893    0.052441   -3.129708
    138          1           0      -17.370479    0.863344   -1.787207
    139          1           0      -16.116666    1.966996   -2.350024
    140          1           0      -16.739573    2.223969   -0.797311
 ---------------------------------------------------------------------

 SCF Done:  E(RB-LYP) =  -3007.34008813     A.U. after   22 cycles

 Excitation energies and oscillator strengths:

 Excited State   1:      Singlet-A      1.7263 eV  718.23 nm  f=0.0124  <S**2>=0.000
     244 -> 247        0.66458
     245 -> 247        0.19774
     246 -> 247       -0.13085
 This state for optimization and/or second-order correction.
 Total Energy, E(TD-HF/TD-DFT) =  -3007.27664948
 Copying the excited state density for this state as the 1-particle RhoCI density.

 Excited State   2:      Singlet-A      1.7908 eV  692.35 nm  f=0.3013  <S**2>=0.000
     244 -> 247        0.14560
     245 -> 248       -0.16877
     245 -> 249        0.11273
     246 -> 247        0.67469
     246 <- 247       -0.14952

 Excited State   3:      Singlet-A      1.9203 eV  645.67 nm  f=0.0895  <S**2>=0.000
     243 -> 247       -0.14301
     244 -> 247       -0.18415
     245 -> 247        0.62326
     246 -> 248        0.16970
     246 -> 249       -0.10819

 Excited State   4:      Singlet-A      2.0410 eV  607.46 nm  f=0.0052  <S**2>=0.000
     243 -> 247        0.69157
     245 -> 247        0.12290

 Excited State   5:      Singlet-A      2.2862 eV  542.32 nm  f=0.0000  <S**2>=0.000
     241 -> 247        0.70705

 The electronic state is 1-A.
 Alpha  occ. eigenvalues --  -46.27606 -18.81720 -18.81389 -18.76898 -18.76468
 Alpha  occ. eigenvalues --  -18.76012 -18.74743 -14.02878 -14.02857 -14.01231
 Alpha  occ. eigenvalues --  -14.00218 -10.03883 -10.03857 -10.00106  -9.98349
 Alpha  occ. eigenvalues --   -9.97313  -9.96964  -9.96639  -9.96622  -9.96233
 Alpha  occ. eigenvalues --   -9.96056  -9.95973  -9.95661  -9.95140  -9.94543
 Alpha  occ. eigenvalues --   -9.94322  -9.94311  -9.94220  -9.94129  -9.94049
 Alpha  occ. eigenvalues --   -9.93859  -9.93695  -9.93564  -9.93407  -9.93366
 Alpha  occ. eigenvalues --   -9.93226  -9.93046  -9.92830  -9.92687  -9.92667
 Alpha  occ. eigenvalues --   -9.92627  -9.92451  -9.92430  -9.92409  -9.92388
 Alpha  occ. eigenvalues --   -9.92244  -9.92044  -9.91969  -9.91908  -9.91594
 Alpha  occ. eigenvalues --   -9.91496  -9.91393  -9.91178  -9.91123  -9.91059
 Alpha  occ. eigenvalues --   -9.91009  -9.90995  -9.90981  -9.90980  -9.90958
 Alpha  occ. eigenvalues --   -9.90727  -9.90690  -9.90651  -9.90611  -9.90223
 Alpha  occ. eigenvalues --   -9.89854  -2.92174  -1.72572  -1.72061  -1.71898
 Alpha  occ. eigenvalues --   -0.97693  -0.95635  -0.90821  -0.89832  -0.89549
 Alpha  occ. eigenvalues --   -0.87992  -0.87113  -0.86369  -0.85060  -0.84153
 Alpha  occ. eigenvalues --   -0.76803  -0.73686  -0.73336  -0.72710  -0.72066
 Alpha  occ. eigenvalues --   -0.71411  -0.71263  -0.71222  -0.70647  -0.70386
 Alpha  occ. eigenvalues --   -0.69643  -0.68855  -0.67647  -0.67529  -0.66942
 Alpha  occ. eigenvalues --   -0.66622  -0.66004  -0.65067  -0.64769  -0.64415
 Alpha  occ. eigenvalues --   -0.63756  -0.62693  -0.62397  -0.61682  -0.60751
 Alpha  occ. eigenvalues --   -0.60583  -0.60121  -0.59709  -0.59021  -0.58886
 Alpha  occ. eigenvalues --   -0.58092  -0.57668  -0.57007  -0.55404  -0.54137
 Alpha  occ. eigenvalues --   -0.54067  -0.53679  -0.52516  -0.52225  -0.51753
 Alpha  occ. eigenvalues --   -0.51190  -0.50802  -0.50563  -0.50195  -0.49998
 Alpha  occ. eigenvalues --   -0.49352  -0.48973  -0.48590  -0.48025  -0.46632
 Alpha  occ. eigenvalues --   -0.46114  -0.45784  -0.45623  -0.45225  -0.44968
 Alpha  occ. eigenvalues --   -0.44208  -0.43491  -0.43345  -0.42226  -0.42200
 Alpha  occ. eigenvalues --   -0.41892  -0.41781  -0.41369  -0.41153  -0.40754
 Alpha  occ. eigenvalues --   -0.40536  -0.40236  -0.40115  -0.40066  -0.39808
 Alpha  occ. eigenvalues --   -0.39718  -0.39537  -0.39259  -0.39189  -0.38943
 Alpha  occ. eigenvalues --   -0.38839  -0.38669  -0.38453  -0.38351  -0.38263
 Alpha  occ. eigenvalues --   -0.38223  -0.37937  -0.37725  -0.37415  -0.37014
 Alpha  occ. eigenvalues --   -0.36967  -0.36832  -0.36679  -0.36614  -0.36326
 Alpha  occ. eigenvalues --   -0.35966  -0.35912  -0.35737  -0.35620  -0.35430
 Alpha  occ. eigenvalues --   -0.35095  -0.34997  -0.34920  -0.34750  -0.34461
 Alpha  occ. eigenvalues --   -0.34445  -0.34225  -0.34107  -0.33880  -0.33589
 Alpha  occ. eigenvalues --   -0.33465  -0.33186  -0.33118  -0.33040  -0.32832
 Alpha  occ. eigenvalues --   -0.32633  -0.32505  -0.32215  -0.32147  -0.31949
 Alpha  occ. eigenvalues --   -0.31874  -0.31617  -0.31379  -0.31236  -0.31162
 Alpha  occ. eigenvalues --   -0.30984  -0.30869  -0.30654  -0.30638  -0.30339
 Alpha  occ. eigenvalues --   -0.30105  -0.30028  -0.29893  -0.29798  -0.29712
 Alpha  occ. eigenvalues --   -0.29543  -0.29473  -0.29245  -0.28995  -0.28692
 Alpha  occ. eigenvalues --   -0.28519  -0.28457  -0.28331  -0.27924  -0.27723
 Alpha  occ. eigenvalues --   -0.27423  -0.27130  -0.27020  -0.26735  -0.26195
 Alpha  occ. eigenvalues --   -0.26110  -0.25990  -0.25814  -0.25761  -0.25313
 Alpha  occ. eigenvalues --   -0.24826  -0.24503  -0.24057  -0.23568  -0.23078
 Alpha  occ. eigenvalues --   -0.23031  -0.22009  -0.21882  -0.21411  -0.20657
 Alpha  occ. eigenvalues --   -0.20129  -0.19749  -0.19128  -0.17979  -0.16955
 Alpha  occ. eigenvalues --   -0.15920
 Alpha virt. eigenvalues --   -0.11727  -0.06848  -0.06126  -0.04734  -0.03197
 Alpha virt. eigenvalues --   -0.02506  -0.02164  -0.01547  -0.01136   0.00209
 Alpha virt. eigenvalues --    0.01447   0.01809   0.02607   0.02764   0.02970

 Mulliken charges:
               1
     1  Mg   0.694921
     2  C    0.059879
     3  C   -0.055022
     4  C   -0.046432
     5  C   -0.064673
     6  N   -0.152309
     7  C   -0.096054
     8  C    0.016801
     9  C   -0.011420
    10  C   -0.008869
    11  C    0.153754
    12  C    0.120091
    13  C    0.116866
    14  C    0.087305
    15  O   -0.157778
    16  O   -0.290692
    17  N   -0.304042
    18  C    0.152081
    19  C   -0.155641
    20  C    0.008557
    21  C    0.106631
    22  C    0.163189
    23  C   -0.065502
    24  O   -0.175911
    25  C    0.140257
    26  N   -0.279658
    27  C    0.029021
    28  C    0.020446
    29  C    0.002984
    30  C   -0.007920
    31  C    0.128194
    32  C    0.070595
    33  C    0.088836
    34  N   -0.202989
    35  C    0.136853
    36  C   -0.167250
    37  C    0.104730
    38  C    0.046290
    39  C    0.187522
    40  C   -0.149701
    41  O   -0.153459
    42  C    0.117692
    43  C    0.131260
    44  O   -0.222075
    45  O   -0.276736
    46  C    0.223842
    47  C    0.336155
    48  C   -0.106185
    49  C   -0.152686
    50  C    0.130325
    51  C    0.162785
    52  C    0.061064
    53  C    0.128321
    54  C   -0.058227
    55  C    0.097128
    56  C    0.090720
    57  C    0.024666
    58  C    0.075229
    59  C   -0.066565
    60  C    0.133106
    61  C    0.144418
    62  C    0.080930
    63  C    0.055657
    64  C   -0.081179
    65  C    0.104823
    66  C    0.084783
    67  H   -0.059482
    68  H   -0.049707
    69  H   -0.073098
    70  H   -0.040376
    71  H   -0.033220
    72  H   -0.005610
    73  H   -0.004197
    74  H   -0.014871
    75  H   -0.024814
    76  H    0.029067
    77  H   -0.027687
    78  H   -0.016490
    79  H   -0.026932
    80  H    0.016863
    81  H    0.003668
    82  H    0.012882
    83  H    0.020218
    84  H   -0.008425
    85  H   -0.013879
    86  H   -0.018568
    87  H    0.005503
    88  H    0.008112
    89  H    0.000077
    90  H   -0.007029
    91  H   -0.021226
    92  H   -0.009576
    93  H   -0.025236
    94  H   -0.002951
    95  H   -0.005977
    96  H    0.009519
    97  H    0.015162
    98  H    0.008521
    99  H    0.026908
   100  H   -0.008505
   101  H    0.032850
   102  H    0.006382
   103  H   -0.027773
   104  H   -0.031154
   105  H   -0.008076
   106  H   -0.000993
   107  H   -0.006397
   108  H   -0.041202
   109  H   -0.031150
   110  H   -0.038947
   111  H   -0.034365
   112  H   -0.046218
   113  H   -0.032032
   114  H   -0.028027
   115  H   -0.022773
   116  H   -0.012211
   117  H   -0.015636
   118  H   -0.028011
   119  H   -0.039967
   120  H   -0.017859
   121  H   -0.013936
   122  H   -0.030718
   123  H   -0.029762
   124  H   -0.042562
   125  H   -0.048316
   126  H   -0.019157
   127  H   -0.025649
   128  H   -0.028420
   129  H   -0.041901
   130  H   -0.046927
   131  H   -0.035117
   132  H   -0.015462
   133  H   -0.039230
   134  H   -0.035732
   135  H   -0.010140
   136  H   -0.015865
   137  H   -0.023902
   138  H   -0.006656
   139  H   -0.020129
   140  H   -0.015238
 Sum of Mulliken charges =  -0.00000

 Dipole moment (field-independent basis, Debye):
    X=             -0.8381    Y=              1.6949    Z=             -2.4125  Tot=              3.0652
 Quadrupole moment (field-independent basis, Debye-Ang):
   XX=           -376.5913   YY=           -416.4180   ZZ=           -402.2892
   XY=             -4.1173   XZ=              5.3250   YZ=             -7.5947

 Normal termination of Gaussian 16 at Sat Apr 30 01:22:59 2022.
