 Gaussian 16, Revision A.03,
 Gaussian 16:  ES64L-G16RevA.03 25-Dec-2016

 -----------------------------------
 #p cam-b3lyp/Def2SVP td=(nstates=5)
 -----------------------------------

 ------------------------------------------------------
 step_51_chromophore_22 TDDFT with cam-b3lyp functional
 ------------------------------------------------------
 Symbolic Z-matrix:
 Charge =  0 Multiplicity = 1

                         Standard orientation:
 ---------------------------------------------------------------------
 Center     Atomic      Atomic             Coordinates (Angstroms)
 Number     Number       Type             X           Y           Z
 ---------------------------------------------------------------------
      1         12           0        6.040158    0.553022    0.096309
      2          6           0        3.526135   -1.958771   -0.573811
      3          6           0        3.796610    2.834713   -1.235154
      4          6           0        8.403726    2.902400    0.329189
      5          6           0        8.296925   -1.967633    0.329043
      6          7           0        3.885922    0.367211   -0.873454
      7          6           0        3.087934   -0.668015   -0.924094
      8          6           0        1.753712   -0.183459   -1.521063
      9          6           0        2.080903    1.244251   -2.178827
     10          6           0        3.325424    1.527242   -1.369030
     11          6           0        2.466620    1.304927   -3.648489
     12          6           0        0.642441   -0.187967   -0.454497
     13          6           0       -0.765627   -0.336437   -1.037813
     14          6           0       -1.752817   -1.159335   -0.160261
     15          8           0       -2.067184   -0.967796    0.971486
     16          8           0       -2.260064   -2.266944   -0.850838
     17          7           0        6.065169    2.581308   -0.250792
     18          6           0        4.975631    3.324757   -0.579478
     19          6           0        5.270425    4.749714   -0.459602
     20          6           0        6.661884    4.842487   -0.088764
     21          6           0        7.142367    3.421422    0.004479
     22          6           0        4.267898    5.816617   -0.737693
     23          6           0        7.606969    6.042953    0.212082
     24          8           0        8.766118    6.013014    0.661522
     25          6           0        7.017121    7.324070   -0.122728
     26          7           0        8.092803    0.471164    0.141896
     27          6           0        8.899920    1.603426    0.299991
     28          6           0       10.298460    1.293787    0.646254
     29          6           0       10.306577   -0.308466    0.811469
     30          6           0        8.815471   -0.662739    0.468157
     31          6           0       11.393453    1.784800   -0.417255
     32          6           0       10.576836   -0.853473    2.309350
     33          6           0       11.431385   -2.084657    2.458895
     34          7           0        6.030185   -1.604776   -0.014606
     35          6           0        7.016399   -2.508382    0.114669
     36          6           0        6.558583   -3.850808   -0.045992
     37          6           0        5.116407   -3.634167   -0.104769
     38          6           0        4.883085   -2.255748   -0.206479
     39          6           0        7.311880   -5.137542   -0.024541
     40          6           0        3.895482   -4.317785   -0.123446
     41          8           0        3.720514   -5.528247    0.097075
     42          6           0        2.894740   -3.274778   -0.525854
     43          6           0        1.861951   -3.459350    0.570105
     44          8           0        1.753244   -2.687818    1.560031
     45          8           0        1.051337   -4.563391    0.314336
     46          6           0       -0.022392   -4.763516    1.339819
     47          6           0       -3.143712   -3.109388    0.011616
     48          6           0       -4.525756   -2.612216    0.297888
     49          6           0       -5.708600   -3.176481    0.071717
     50          6           0       -6.035443   -4.475949   -0.633259
     51          6           0       -6.923812   -2.376143    0.375631
     52          6           0       -7.562064   -1.796627   -0.894894
     53          6           0       -7.876270   -0.265569   -0.844235
     54          6           0       -9.373655   -0.035176   -0.541013
     55          6           0      -10.211825   -0.073740   -1.847092
     56          6           0       -9.584088    1.312387    0.266502
     57          6           0      -10.687354    1.105209    1.404944
     58          6           0      -11.448062    2.479115    1.609662
     59          6           0      -12.581982    2.426604    2.626764
     60          6           0      -12.272216    3.359339    3.777609
     61          6           0      -13.902185    2.765821    1.993790
     62          6           0      -14.531027    1.481072    1.403835
     63          6           0      -14.320957    1.409626   -0.136657
     64          6           0      -15.283609    0.505920   -0.989639
     65          6           0      -14.590424   -0.175079   -2.243260
     66          6           0      -16.481596    1.416447   -1.482560
     67          1           0        3.230423    3.599851   -1.770745
     68          1           0        9.187090    3.604863    0.621306
     69          1           0        9.123438   -2.662984    0.492531
     70          1           0        1.432828   -0.854108   -2.318304
     71          1           0        1.336448    2.004021   -1.940471
     72          1           0        3.497356    1.623182   -3.804604
     73          1           0        1.841686    1.997060   -4.212888
     74          1           0        2.504583    0.322833   -4.119385
     75          1           0        0.639813    0.827558   -0.056969
     76          1           0        0.716092   -0.865016    0.395962
     77          1           0       -0.814478   -0.686474   -2.068906
     78          1           0       -1.151008    0.652344   -1.288243
     79          1           0        3.262279    5.402765   -0.677403
     80          1           0        4.171692    6.336106   -1.691052
     81          1           0        4.408137    6.398886    0.173606
     82          1           0        6.445937    7.497401    0.789037
     83          1           0        6.432341    7.404156   -1.038683
     84          1           0        7.879479    7.990548   -0.117152
     85          1           0       10.500966    1.718438    1.629681
     86          1           0       10.958407   -0.831145    0.111631
     87          1           0       11.871406    2.577240    0.159148
     88          1           0       10.884208    2.208085   -1.281965
     89          1           0       12.069497    0.963104   -0.656136
     90          1           0        9.595216   -0.913761    2.779880
     91          1           0       11.172533   -0.120047    2.852640
     92          1           0       11.034500   -2.826569    3.151885
     93          1           0       12.302994   -1.792584    3.045385
     94          1           0       11.805776   -2.463438    1.507491
     95          1           0        8.294149   -4.972928   -0.468115
     96          1           0        6.793586   -5.925870   -0.570371
     97          1           0        7.368843   -5.403012    1.030451
     98          1           0        2.538565   -3.633751   -1.491334
     99          1           0       -0.043564   -5.853761    1.357245
    100          1           0       -0.897828   -4.304993    0.878593
    101          1           0        0.044302   -4.276133    2.312100
    102          1           0       -2.721315   -3.329871    0.991803
    103          1           0       -3.189564   -4.091727   -0.459318
    104          1           0       -4.619794   -1.629512    0.761764
    105          1           0       -7.031505   -4.662287   -1.034826
    106          1           0       -5.708509   -5.364763   -0.094038
    107          1           0       -5.419221   -4.492107   -1.532021
    108          1           0       -6.672159   -1.557590    1.051255
    109          1           0       -7.572829   -2.994964    0.996285
    110          1           0       -8.461661   -2.364522   -1.133055
    111          1           0       -7.032216   -1.980620   -1.829545
    112          1           0       -7.615416    0.070010   -1.846900
    113          1           0       -7.198766    0.298905   -0.204125
    114          1           0       -9.770036   -0.850060    0.065116
    115          1           0      -11.116321    0.498856   -1.642343
    116          1           0      -10.595807   -1.057328   -2.120346
    117          1           0       -9.797776    0.444361   -2.712432
    118          1           0       -9.751508    2.191068   -0.356465
    119          1           0       -8.693708    1.564065    0.842276
    120          1           0      -10.204428    0.829398    2.342130
    121          1           0      -11.370528    0.333457    1.049527
    122          1           0      -11.889943    2.769130    0.656396
    123          1           0      -10.654241    3.190312    1.834822
    124          1           0      -12.610148    1.454647    3.119039
    125          1           0      -11.355044    3.919566    3.598222
    126          1           0      -12.003673    2.828462    4.690280
    127          1           0      -12.990873    4.174579    3.866143
    128          1           0      -13.727157    3.505374    1.212214
    129          1           0      -14.593258    3.123985    2.756904
    130          1           0      -15.605413    1.430502    1.583867
    131          1           0      -14.179882    0.596649    1.937090
    132          1           0      -13.282469    1.138395   -0.327276
    133          1           0      -14.578926    2.392197   -0.529159
    134          1           0      -15.623232   -0.255684   -0.288960
    135          1           0      -14.476661   -1.258875   -2.254817
    136          1           0      -13.612536    0.297962   -2.334302
    137          1           0      -15.183893    0.052441   -3.129708
    138          1           0      -17.370479    0.863344   -1.787207
    139          1           0      -16.116666    1.966996   -2.350024
    140          1           0      -16.739573    2.223969   -0.797311
 ---------------------------------------------------------------------

 SCF Done:  E(RCAM-B3LYP) =  -3007.12778254     A.U. after   19 cycles

 Excitation energies and oscillator strengths:

 Excited State   1:      Singlet-A      1.6734 eV  740.90 nm  f=0.3974  <S**2>=0.000
     245 -> 248       -0.17895
     246 -> 247        0.68478
     245 <- 248       -0.10785
 This state for optimization and/or second-order correction.
 Total Energy, E(TD-HF/TD-DFT) =  -3007.06628536
 Copying the excited state density for this state as the 1-particle RhoCI density.

 Excited State   2:      Singlet-A      2.1128 eV  586.84 nm  f=0.1478  <S**2>=0.000
     245 -> 247        0.65765
     246 -> 248        0.24156

 Excited State   3:      Singlet-A      3.1078 eV  398.94 nm  f=0.0072  <S**2>=0.000
     241 -> 247        0.23484
     241 -> 249        0.12580
     244 -> 247        0.62582

 Excited State   4:      Singlet-A      3.2653 eV  379.70 nm  f=0.0005  <S**2>=0.000
     241 -> 247        0.52447
     241 -> 249        0.22971
     241 -> 251       -0.15276
     242 -> 247        0.21741
     244 -> 247       -0.27021

 Excited State   5:      Singlet-A      3.4720 eV  357.10 nm  f=0.0294  <S**2>=0.000
     241 -> 247       -0.18714
     242 -> 247        0.59738
     246 -> 248       -0.28249

 The electronic state is 1-A.
 Alpha  occ. eigenvalues --  -46.89240 -19.24661 -19.24282 -19.19992 -19.19590
 Alpha  occ. eigenvalues --  -19.19228 -19.17899 -14.41814 -14.41670 -14.39763
 Alpha  occ. eigenvalues --  -14.38552 -10.39551 -10.39190 -10.35404 -10.33621
 Alpha  occ. eigenvalues --  -10.31447 -10.31144 -10.31116 -10.30999 -10.30662
 Alpha  occ. eigenvalues --  -10.30483 -10.30397 -10.29996 -10.29339 -10.28849
 Alpha  occ. eigenvalues --  -10.28587 -10.28481 -10.28397 -10.28304 -10.28273
 Alpha  occ. eigenvalues --  -10.28163 -10.27972 -10.27885 -10.27774 -10.27433
 Alpha  occ. eigenvalues --  -10.27171 -10.27130 -10.26573 -10.26567 -10.26550
 Alpha  occ. eigenvalues --  -10.26484 -10.26338 -10.26272 -10.26208 -10.26128
 Alpha  occ. eigenvalues --  -10.26058 -10.25973 -10.25675 -10.25606 -10.25493
 Alpha  occ. eigenvalues --  -10.25216 -10.25018 -10.24844 -10.24812 -10.24684
 Alpha  occ. eigenvalues --  -10.24671 -10.24648 -10.24647 -10.24623 -10.24578
 Alpha  occ. eigenvalues --  -10.24559 -10.24345 -10.24302 -10.24290 -10.24285
 Alpha  occ. eigenvalues --  -10.23409  -3.17704  -1.92579  -1.92157  -1.92010
 Alpha  occ. eigenvalues --   -1.16268  -1.14126  -1.09213  -1.08167  -1.07391
 Alpha  occ. eigenvalues --   -1.05908  -1.04872  -1.04007  -1.02685  -1.01686
 Alpha  occ. eigenvalues --   -0.94061  -0.90583  -0.90173  -0.89462  -0.88829
 Alpha  occ. eigenvalues --   -0.88065  -0.87871  -0.87802  -0.87333  -0.86956
 Alpha  occ. eigenvalues --   -0.86184  -0.85272  -0.83881  -0.83715  -0.83185
 Alpha  occ. eigenvalues --   -0.82808  -0.82025  -0.81027  -0.80643  -0.80212
 Alpha  occ. eigenvalues --   -0.79503  -0.78395  -0.78082  -0.77176  -0.76157
 Alpha  occ. eigenvalues --   -0.75945  -0.75407  -0.75030  -0.74267  -0.74127
 Alpha  occ. eigenvalues --   -0.73164  -0.72682  -0.71925  -0.70202  -0.68753
 Alpha  occ. eigenvalues --   -0.68641  -0.68235  -0.66925  -0.66617  -0.65918
 Alpha  occ. eigenvalues --   -0.65330  -0.64987  -0.64535  -0.64265  -0.64030
 Alpha  occ. eigenvalues --   -0.63316  -0.62753  -0.62486  -0.61789  -0.60346
 Alpha  occ. eigenvalues --   -0.59734  -0.59318  -0.59147  -0.58627  -0.58531
 Alpha  occ. eigenvalues --   -0.57604  -0.56847  -0.56484  -0.55464  -0.55355
 Alpha  occ. eigenvalues --   -0.54925  -0.54592  -0.54442  -0.54033  -0.53522
 Alpha  occ. eigenvalues --   -0.53463  -0.53294  -0.52921  -0.52728  -0.52689
 Alpha  occ. eigenvalues --   -0.52414  -0.52289  -0.51849  -0.51771  -0.51677
 Alpha  occ. eigenvalues --   -0.51454  -0.51209  -0.50901  -0.50728  -0.50630
 Alpha  occ. eigenvalues --   -0.50554  -0.50436  -0.50067  -0.49693  -0.49376
 Alpha  occ. eigenvalues --   -0.49127  -0.49051  -0.48894  -0.48771  -0.48702
 Alpha  occ. eigenvalues --   -0.48454  -0.48265  -0.48168  -0.47641  -0.47521
 Alpha  occ. eigenvalues --   -0.47306  -0.47071  -0.46882  -0.46791  -0.46562
 Alpha  occ. eigenvalues --   -0.46336  -0.46032  -0.45920  -0.45798  -0.45336
 Alpha  occ. eigenvalues --   -0.45170  -0.44909  -0.44837  -0.44627  -0.44593
 Alpha  occ. eigenvalues --   -0.44391  -0.44212  -0.43819  -0.43753  -0.43641
 Alpha  occ. eigenvalues --   -0.43334  -0.43293  -0.43140  -0.42929  -0.42732
 Alpha  occ. eigenvalues --   -0.42590  -0.42483  -0.42291  -0.42159  -0.41758
 Alpha  occ. eigenvalues --   -0.41478  -0.41356  -0.41292  -0.41094  -0.41014
 Alpha  occ. eigenvalues --   -0.40965  -0.40615  -0.40545  -0.40108  -0.39799
 Alpha  occ. eigenvalues --   -0.39616  -0.39566  -0.39301  -0.38793  -0.38782
 Alpha  occ. eigenvalues --   -0.38233  -0.38119  -0.37970  -0.37591  -0.37264
 Alpha  occ. eigenvalues --   -0.36849  -0.36832  -0.36533  -0.36494  -0.36391
 Alpha  occ. eigenvalues --   -0.35807  -0.35531  -0.35271  -0.34292  -0.33850
 Alpha  occ. eigenvalues --   -0.33715  -0.33360  -0.32792  -0.31408  -0.31187
 Alpha  occ. eigenvalues --   -0.30170  -0.30005  -0.29758  -0.28902  -0.23625
 Alpha  occ. eigenvalues --   -0.21268
 Alpha virt. eigenvalues --   -0.09012  -0.01504   0.00145   0.01829   0.02144
 Alpha virt. eigenvalues --    0.05100   0.05487   0.05895   0.06234   0.07097
 Alpha virt. eigenvalues --    0.07736   0.08648   0.08750   0.09310   0.09508

 Mulliken charges:
               1
     1  Mg   0.825952
     2  C    0.026112
     3  C   -0.069970
     4  C   -0.065006
     5  C   -0.068568
     6  N   -0.221639
     7  C   -0.045387
     8  C   -0.030635
     9  C   -0.064559
    10  C    0.007654
    11  C    0.091423
    12  C    0.061323
    13  C    0.053874
    14  C    0.163915
    15  O   -0.196896
    16  O   -0.354590
    17  N   -0.390051
    18  C    0.161971
    19  C   -0.163125
    20  C   -0.056324
    21  C    0.126094
    22  C    0.100799
    23  C    0.024011
    24  O   -0.217474
    25  C    0.047246
    26  N   -0.349993
    27  C    0.050835
    28  C   -0.041015
    29  C   -0.046217
    30  C    0.010372
    31  C    0.074098
    32  C    0.018131
    33  C    0.020554
    34  N   -0.294175
    35  C    0.135796
    36  C   -0.155965
    37  C    0.024550
    38  C    0.086005
    39  C    0.137108
    40  C   -0.051034
    41  O   -0.192005
    42  C    0.036783
    43  C    0.218074
    44  O   -0.261309
    45  O   -0.338882
    46  C    0.190099
    47  C    0.289821
    48  C   -0.117211
    49  C   -0.173229
    50  C    0.063758
    51  C    0.101679
    52  C    0.004694
    53  C    0.071913
    54  C   -0.116785
    55  C    0.047790
    56  C    0.038394
    57  C   -0.019554
    58  C    0.025644
    59  C   -0.124997
    60  C    0.072139
    61  C    0.078817
    62  C    0.027269
    63  C    0.013245
    64  C   -0.138335
    65  C    0.048768
    66  C    0.023219
    67  H   -0.024322
    68  H   -0.008798
    69  H   -0.039417
    70  H   -0.004865
    71  H    0.002033
    72  H    0.022393
    73  H    0.020315
    74  H    0.011306
    75  H    0.006136
    76  H    0.060456
    77  H    0.008566
    78  H    0.015828
    79  H    0.002913
    80  H    0.043901
    81  H    0.029211
    82  H    0.040715
    83  H    0.049230
    84  H    0.027917
    85  H    0.020937
    86  H    0.014175
    87  H    0.028083
    88  H    0.033097
    89  H    0.023082
    90  H    0.021931
    91  H    0.006937
    92  H    0.016273
    93  H    0.000399
    94  H    0.018967
    95  H    0.018179
    96  H    0.037002
    97  H    0.041686
    98  H    0.051817
    99  H    0.050857
   100  H    0.007596
   101  H    0.058953
   102  H    0.034769
   103  H    0.004251
   104  H    0.001618
   105  H    0.018920
   106  H    0.025216
   107  H    0.018419
   108  H   -0.010595
   109  H   -0.001018
   110  H   -0.011655
   111  H   -0.003718
   112  H   -0.015756
   113  H   -0.003547
   114  H    0.002898
   115  H   -0.005959
   116  H    0.011104
   117  H    0.008415
   118  H    0.000225
   119  H   -0.010271
   120  H    0.008441
   121  H    0.007076
   122  H   -0.005587
   123  H   -0.001168
   124  H   -0.008520
   125  H   -0.021773
   126  H    0.006157
   127  H    0.000134
   128  H    0.000625
   129  H   -0.008683
   130  H   -0.016985
   131  H   -0.007047
   132  H    0.002578
   133  H   -0.012054
   134  H   -0.004583
   135  H    0.014158
   136  H    0.004545
   137  H    0.001174
   138  H    0.018122
   139  H    0.003205
   140  H    0.008384
 Sum of Mulliken charges =  -0.00000

 Dipole moment (field-independent basis, Debye):
    X=             -0.8559    Y=              2.1578    Z=             -2.5514  Tot=              3.4494
 Quadrupole moment (field-independent basis, Debye-Ang):
   XX=           -375.7585   YY=           -412.2273   ZZ=           -402.0253
   XY=             -2.7785   XZ=              5.8096   YZ=             -8.2070

 Normal termination of Gaussian 16 at Sat Apr 30 00:27:24 2022.
