 Gaussian 16, Revision A.03,
 Gaussian 16:  ES64L-G16RevA.03 25-Dec-2016

 ---------------------------------
 #p PBE1PBE/Def2SVP td=(nstates=5)
 ---------------------------------

 ----------------------------------------------------
 step_51_chromophore_22 TDDFT with PBE1PBE functional
 ----------------------------------------------------
 Symbolic Z-matrix:
 Charge =  0 Multiplicity = 1

                         Standard orientation:
 ---------------------------------------------------------------------
 Center     Atomic      Atomic             Coordinates (Angstroms)
 Number     Number       Type             X           Y           Z
 ---------------------------------------------------------------------
      1         12           0        6.040158    0.553022    0.096309
      2          6           0        3.526135   -1.958771   -0.573811
      3          6           0        3.796610    2.834713   -1.235154
      4          6           0        8.403726    2.902400    0.329189
      5          6           0        8.296925   -1.967633    0.329043
      6          7           0        3.885922    0.367211   -0.873454
      7          6           0        3.087934   -0.668015   -0.924094
      8          6           0        1.753712   -0.183459   -1.521063
      9          6           0        2.080903    1.244251   -2.178827
     10          6           0        3.325424    1.527242   -1.369030
     11          6           0        2.466620    1.304927   -3.648489
     12          6           0        0.642441   -0.187967   -0.454497
     13          6           0       -0.765627   -0.336437   -1.037813
     14          6           0       -1.752817   -1.159335   -0.160261
     15          8           0       -2.067184   -0.967796    0.971486
     16          8           0       -2.260064   -2.266944   -0.850838
     17          7           0        6.065169    2.581308   -0.250792
     18          6           0        4.975631    3.324757   -0.579478
     19          6           0        5.270425    4.749714   -0.459602
     20          6           0        6.661884    4.842487   -0.088764
     21          6           0        7.142367    3.421422    0.004479
     22          6           0        4.267898    5.816617   -0.737693
     23          6           0        7.606969    6.042953    0.212082
     24          8           0        8.766118    6.013014    0.661522
     25          6           0        7.017121    7.324070   -0.122728
     26          7           0        8.092803    0.471164    0.141896
     27          6           0        8.899920    1.603426    0.299991
     28          6           0       10.298460    1.293787    0.646254
     29          6           0       10.306577   -0.308466    0.811469
     30          6           0        8.815471   -0.662739    0.468157
     31          6           0       11.393453    1.784800   -0.417255
     32          6           0       10.576836   -0.853473    2.309350
     33          6           0       11.431385   -2.084657    2.458895
     34          7           0        6.030185   -1.604776   -0.014606
     35          6           0        7.016399   -2.508382    0.114669
     36          6           0        6.558583   -3.850808   -0.045992
     37          6           0        5.116407   -3.634167   -0.104769
     38          6           0        4.883085   -2.255748   -0.206479
     39          6           0        7.311880   -5.137542   -0.024541
     40          6           0        3.895482   -4.317785   -0.123446
     41          8           0        3.720514   -5.528247    0.097075
     42          6           0        2.894740   -3.274778   -0.525854
     43          6           0        1.861951   -3.459350    0.570105
     44          8           0        1.753244   -2.687818    1.560031
     45          8           0        1.051337   -4.563391    0.314336
     46          6           0       -0.022392   -4.763516    1.339819
     47          6           0       -3.143712   -3.109388    0.011616
     48          6           0       -4.525756   -2.612216    0.297888
     49          6           0       -5.708600   -3.176481    0.071717
     50          6           0       -6.035443   -4.475949   -0.633259
     51          6           0       -6.923812   -2.376143    0.375631
     52          6           0       -7.562064   -1.796627   -0.894894
     53          6           0       -7.876270   -0.265569   -0.844235
     54          6           0       -9.373655   -0.035176   -0.541013
     55          6           0      -10.211825   -0.073740   -1.847092
     56          6           0       -9.584088    1.312387    0.266502
     57          6           0      -10.687354    1.105209    1.404944
     58          6           0      -11.448062    2.479115    1.609662
     59          6           0      -12.581982    2.426604    2.626764
     60          6           0      -12.272216    3.359339    3.777609
     61          6           0      -13.902185    2.765821    1.993790
     62          6           0      -14.531027    1.481072    1.403835
     63          6           0      -14.320957    1.409626   -0.136657
     64          6           0      -15.283609    0.505920   -0.989639
     65          6           0      -14.590424   -0.175079   -2.243260
     66          6           0      -16.481596    1.416447   -1.482560
     67          1           0        3.230423    3.599851   -1.770745
     68          1           0        9.187090    3.604863    0.621306
     69          1           0        9.123438   -2.662984    0.492531
     70          1           0        1.432828   -0.854108   -2.318304
     71          1           0        1.336448    2.004021   -1.940471
     72          1           0        3.497356    1.623182   -3.804604
     73          1           0        1.841686    1.997060   -4.212888
     74          1           0        2.504583    0.322833   -4.119385
     75          1           0        0.639813    0.827558   -0.056969
     76          1           0        0.716092   -0.865016    0.395962
     77          1           0       -0.814478   -0.686474   -2.068906
     78          1           0       -1.151008    0.652344   -1.288243
     79          1           0        3.262279    5.402765   -0.677403
     80          1           0        4.171692    6.336106   -1.691052
     81          1           0        4.408137    6.398886    0.173606
     82          1           0        6.445937    7.497401    0.789037
     83          1           0        6.432341    7.404156   -1.038683
     84          1           0        7.879479    7.990548   -0.117152
     85          1           0       10.500966    1.718438    1.629681
     86          1           0       10.958407   -0.831145    0.111631
     87          1           0       11.871406    2.577240    0.159148
     88          1           0       10.884208    2.208085   -1.281965
     89          1           0       12.069497    0.963104   -0.656136
     90          1           0        9.595216   -0.913761    2.779880
     91          1           0       11.172533   -0.120047    2.852640
     92          1           0       11.034500   -2.826569    3.151885
     93          1           0       12.302994   -1.792584    3.045385
     94          1           0       11.805776   -2.463438    1.507491
     95          1           0        8.294149   -4.972928   -0.468115
     96          1           0        6.793586   -5.925870   -0.570371
     97          1           0        7.368843   -5.403012    1.030451
     98          1           0        2.538565   -3.633751   -1.491334
     99          1           0       -0.043564   -5.853761    1.357245
    100          1           0       -0.897828   -4.304993    0.878593
    101          1           0        0.044302   -4.276133    2.312100
    102          1           0       -2.721315   -3.329871    0.991803
    103          1           0       -3.189564   -4.091727   -0.459318
    104          1           0       -4.619794   -1.629512    0.761764
    105          1           0       -7.031505   -4.662287   -1.034826
    106          1           0       -5.708509   -5.364763   -0.094038
    107          1           0       -5.419221   -4.492107   -1.532021
    108          1           0       -6.672159   -1.557590    1.051255
    109          1           0       -7.572829   -2.994964    0.996285
    110          1           0       -8.461661   -2.364522   -1.133055
    111          1           0       -7.032216   -1.980620   -1.829545
    112          1           0       -7.615416    0.070010   -1.846900
    113          1           0       -7.198766    0.298905   -0.204125
    114          1           0       -9.770036   -0.850060    0.065116
    115          1           0      -11.116321    0.498856   -1.642343
    116          1           0      -10.595807   -1.057328   -2.120346
    117          1           0       -9.797776    0.444361   -2.712432
    118          1           0       -9.751508    2.191068   -0.356465
    119          1           0       -8.693708    1.564065    0.842276
    120          1           0      -10.204428    0.829398    2.342130
    121          1           0      -11.370528    0.333457    1.049527
    122          1           0      -11.889943    2.769130    0.656396
    123          1           0      -10.654241    3.190312    1.834822
    124          1           0      -12.610148    1.454647    3.119039
    125          1           0      -11.355044    3.919566    3.598222
    126          1           0      -12.003673    2.828462    4.690280
    127          1           0      -12.990873    4.174579    3.866143
    128          1           0      -13.727157    3.505374    1.212214
    129          1           0      -14.593258    3.123985    2.756904
    130          1           0      -15.605413    1.430502    1.583867
    131          1           0      -14.179882    0.596649    1.937090
    132          1           0      -13.282469    1.138395   -0.327276
    133          1           0      -14.578926    2.392197   -0.529159
    134          1           0      -15.623232   -0.255684   -0.288960
    135          1           0      -14.476661   -1.258875   -2.254817
    136          1           0      -13.612536    0.297962   -2.334302
    137          1           0      -15.183893    0.052441   -3.129708
    138          1           0      -17.370479    0.863344   -1.787207
    139          1           0      -16.116666    1.966996   -2.350024
    140          1           0      -16.739573    2.223969   -0.797311
 ---------------------------------------------------------------------

 SCF Done:  E(RPBE1PBE) =  -3005.31906919     A.U. after   16 cycles

 Excitation energies and oscillator strengths:

 Excited State   1:      Singlet-A      1.8344 eV  675.87 nm  f=0.3816  <S**2>=0.000
     245 -> 248       -0.16888
     246 -> 247        0.69172
     246 <- 247       -0.10984
 This state for optimization and/or second-order correction.
 Total Energy, E(TD-HF/TD-DFT) =  -3005.25165474
 Copying the excited state density for this state as the 1-particle RhoCI density.

 Excited State   2:      Singlet-A      2.1196 eV  584.94 nm  f=0.1365  <S**2>=0.000
     245 -> 247        0.66564
     246 -> 248        0.21027

 Excited State   3:      Singlet-A      2.6921 eV  460.54 nm  f=0.0059  <S**2>=0.000
     242 -> 247        0.27399
     243 -> 247        0.31569
     244 -> 247        0.53703

 Excited State   4:      Singlet-A      2.8886 eV  429.22 nm  f=0.0057  <S**2>=0.000
     242 -> 247       -0.33162
     243 -> 247       -0.42539
     244 -> 247        0.42872

 Excited State   5:      Singlet-A      3.1069 eV  399.06 nm  f=0.0093  <S**2>=0.000
     240 -> 247       -0.18965
     241 -> 247        0.65695

 The electronic state is 1-A.
 Alpha  occ. eigenvalues --  -46.92612 -19.25304 -19.24967 -19.20206 -19.19825
 Alpha  occ. eigenvalues --  -19.19455 -19.18139 -14.41319 -14.41160 -14.39401
 Alpha  occ. eigenvalues --  -14.38183 -10.36554 -10.36211 -10.32513 -10.30719
 Alpha  occ. eigenvalues --  -10.28886 -10.28838 -10.28797 -10.28402 -10.28211
 Alpha  occ. eigenvalues --  -10.28209 -10.28128 -10.27708 -10.26998 -10.26543
 Alpha  occ. eigenvalues --  -10.26483 -10.26201 -10.26118 -10.26104 -10.25898
 Alpha  occ. eigenvalues --  -10.25822 -10.25717 -10.25641 -10.25573 -10.24910
 Alpha  occ. eigenvalues --  -10.24838 -10.24574 -10.24202 -10.24174 -10.24167
 Alpha  occ. eigenvalues --  -10.24112 -10.23900 -10.23865 -10.23748 -10.23695
 Alpha  occ. eigenvalues --  -10.23680 -10.23514 -10.23049 -10.22927 -10.22880
 Alpha  occ. eigenvalues --  -10.22784 -10.22599 -10.22447 -10.22353 -10.22241
 Alpha  occ. eigenvalues --  -10.22240 -10.22195 -10.22098 -10.22097 -10.22023
 Alpha  occ. eigenvalues --  -10.22000 -10.21988 -10.21985 -10.21918 -10.21872
 Alpha  occ. eigenvalues --  -10.20815  -3.14658  -1.87471  -1.87030  -1.86886
 Alpha  occ. eigenvalues --   -1.11039  -1.08824  -1.03920  -1.02864  -1.02256
 Alpha  occ. eigenvalues --   -1.00665  -0.99510  -0.98671  -0.97308  -0.96303
 Alpha  occ. eigenvalues --   -0.88438  -0.84712  -0.84279  -0.83717  -0.83107
 Alpha  occ. eigenvalues --   -0.82239  -0.82107  -0.82063  -0.81582  -0.81045
 Alpha  occ. eigenvalues --   -0.80468  -0.79529  -0.78053  -0.78013  -0.77387
 Alpha  occ. eigenvalues --   -0.77062  -0.76204  -0.75288  -0.74839  -0.74550
 Alpha  occ. eigenvalues --   -0.73669  -0.72678  -0.72358  -0.71496  -0.70436
 Alpha  occ. eigenvalues --   -0.70137  -0.69742  -0.69117  -0.68418  -0.68283
 Alpha  occ. eigenvalues --   -0.67579  -0.66999  -0.66347  -0.64510  -0.63230
 Alpha  occ. eigenvalues --   -0.63013  -0.62480  -0.61311  -0.60884  -0.60368
 Alpha  occ. eigenvalues --   -0.59733  -0.59192  -0.59083  -0.58798  -0.58205
 Alpha  occ. eigenvalues --   -0.57489  -0.57215  -0.56689  -0.56332  -0.54730
 Alpha  occ. eigenvalues --   -0.54261  -0.53826  -0.53723  -0.53114  -0.52943
 Alpha  occ. eigenvalues --   -0.52183  -0.51341  -0.51053  -0.50045  -0.49767
 Alpha  occ. eigenvalues --   -0.49454  -0.49001  -0.48888  -0.48554  -0.48078
 Alpha  occ. eigenvalues --   -0.47952  -0.47753  -0.47515  -0.47232  -0.47159
 Alpha  occ. eigenvalues --   -0.46909  -0.46755  -0.46416  -0.46294  -0.46252
 Alpha  occ. eigenvalues --   -0.45989  -0.45698  -0.45456  -0.45288  -0.45161
 Alpha  occ. eigenvalues --   -0.45137  -0.45053  -0.44611  -0.44312  -0.43965
 Alpha  occ. eigenvalues --   -0.43780  -0.43624  -0.43509  -0.43350  -0.43273
 Alpha  occ. eigenvalues --   -0.43102  -0.42849  -0.42777  -0.42271  -0.42190
 Alpha  occ. eigenvalues --   -0.41956  -0.41722  -0.41566  -0.41433  -0.41252
 Alpha  occ. eigenvalues --   -0.41103  -0.40731  -0.40612  -0.40457  -0.40032
 Alpha  occ. eigenvalues --   -0.39799  -0.39668  -0.39436  -0.39395  -0.39268
 Alpha  occ. eigenvalues --   -0.39096  -0.39024  -0.38594  -0.38505  -0.38310
 Alpha  occ. eigenvalues --   -0.38117  -0.38031  -0.37922  -0.37787  -0.37509
 Alpha  occ. eigenvalues --   -0.37407  -0.37238  -0.37084  -0.36913  -0.36523
 Alpha  occ. eigenvalues --   -0.36332  -0.36216  -0.36041  -0.35972  -0.35872
 Alpha  occ. eigenvalues --   -0.35716  -0.35498  -0.35312  -0.34870  -0.34726
 Alpha  occ. eigenvalues --   -0.34534  -0.34356  -0.34076  -0.33663  -0.33614
 Alpha  occ. eigenvalues --   -0.33069  -0.32997  -0.32763  -0.32313  -0.32261
 Alpha  occ. eigenvalues --   -0.31705  -0.31626  -0.31619  -0.31391  -0.31336
 Alpha  occ. eigenvalues --   -0.30720  -0.30450  -0.30217  -0.29335  -0.28740
 Alpha  occ. eigenvalues --   -0.28705  -0.28376  -0.28244  -0.26886  -0.26184
 Alpha  occ. eigenvalues --   -0.25598  -0.25072  -0.25028  -0.24476  -0.20596
 Alpha  occ. eigenvalues --   -0.18885
 Alpha virt. eigenvalues --   -0.11397  -0.05069  -0.03998  -0.02216  -0.00903
 Alpha virt. eigenvalues --    0.00603   0.01010   0.01456   0.01806   0.03282
 Alpha virt. eigenvalues --    0.04115   0.04653   0.05526   0.05755   0.05945

 Mulliken charges:
               1
     1  Mg   0.965783
     2  C    0.012448
     3  C   -0.058434
     4  C   -0.064792
     5  C   -0.061948
     6  N   -0.322789
     7  C    0.041504
     8  C   -0.102255
     9  C   -0.140442
    10  C    0.031199
    11  C    0.039123
    12  C    0.009680
    13  C   -0.011215
    14  C    0.225304
    15  O   -0.229559
    16  O   -0.383240
    17  N   -0.502393
    18  C    0.192211
    19  C   -0.195684
    20  C   -0.094530
    21  C    0.157223
    22  C    0.039322
    23  C    0.076524
    24  O   -0.256183
    25  C   -0.028499
    26  N   -0.449395
    27  C    0.087721
    28  C   -0.118755
    29  C   -0.118807
    30  C    0.044769
    31  C    0.016604
    32  C   -0.038348
    33  C   -0.051634
    34  N   -0.421884
    35  C    0.148983
    36  C   -0.163801
    37  C   -0.023982
    38  C    0.141299
    39  C    0.082655
    40  C    0.038362
    41  O   -0.237261
    42  C   -0.073849
    43  C    0.300149
    44  O   -0.294297
    45  O   -0.366802
    46  C    0.124303
    47  C    0.230146
    48  C   -0.117083
    49  C   -0.218569
    50  C    0.004519
    51  C    0.037274
    52  C   -0.053091
    53  C    0.016925
    54  C   -0.205783
    55  C   -0.014897
    56  C   -0.012416
    57  C   -0.086480
    58  C   -0.021625
    59  C   -0.214792
    60  C    0.017370
    61  C    0.014302
    62  C   -0.029801
    63  C   -0.054008
    64  C   -0.223428
    65  C   -0.016084
    66  C   -0.043798
    67  H    0.006712
    68  H    0.023311
    69  H   -0.003943
    70  H    0.033181
    71  H    0.037120
    72  H    0.050458
    73  H    0.047385
    74  H    0.039226
    75  H    0.040198
    76  H    0.096524
    77  H    0.039178
    78  H    0.047221
    79  H    0.030818
    80  H    0.069327
    81  H    0.058913
    82  H    0.068978
    83  H    0.075247
    84  H    0.055738
    85  H    0.057038
    86  H    0.049299
    87  H    0.054947
    88  H    0.060928
    89  H    0.050052
    90  H    0.054407
    91  H    0.039802
    92  H    0.044190
    93  H    0.028688
    94  H    0.044881
    95  H    0.044914
    96  H    0.063955
    97  H    0.069474
    98  H    0.087780
    99  H    0.072290
   100  H    0.042881
   101  H    0.079485
   102  H    0.062743
   103  H    0.032326
   104  H    0.030647
   105  H    0.044755
   106  H    0.053286
   107  H    0.045767
   108  H    0.021214
   109  H    0.032315
   110  H    0.020758
   111  H    0.028335
   112  H    0.018005
   113  H    0.026974
   114  H    0.040815
   115  H    0.028424
   116  H    0.038070
   117  H    0.035130
   118  H    0.030777
   119  H    0.023126
   120  H    0.041529
   121  H    0.040086
   122  H    0.026040
   123  H    0.031247
   124  H    0.029336
   125  H    0.005911
   126  H    0.033417
   127  H    0.026870
   128  H    0.032924
   129  H    0.025090
   130  H    0.016440
   131  H    0.024526
   132  H    0.044792
   133  H    0.021502
   134  H    0.033228
   135  H    0.041211
   136  H    0.035380
   137  H    0.028751
   138  H    0.046575
   139  H    0.031485
   140  H    0.036519
 Sum of Mulliken charges =  -0.00000

 Dipole moment (field-independent basis, Debye):
    X=             -0.7912    Y=              2.1737    Z=             -2.5753  Tot=              3.4617
 Quadrupole moment (field-independent basis, Debye-Ang):
   XX=           -369.4076   YY=           -409.3347   ZZ=           -399.2056
   XY=             -3.5369   XZ=              6.7397   YZ=             -8.2449

 Normal termination of Gaussian 16 at Sat Apr 30 00:45:55 2022.
