 Gaussian 16, Revision A.03,
 Gaussian 16:  ES64L-G16RevA.03 25-Dec-2016

 --------------------------------
 #p wB97XD/Def2SVP td=(nstates=5)
 --------------------------------

 ---------------------------------------------------
 step_51_chromophore_22 TDDFT with wB97XD functional
 ---------------------------------------------------
 Symbolic Z-matrix:
 Charge =  0 Multiplicity = 1

                         Standard orientation:
 ---------------------------------------------------------------------
 Center     Atomic      Atomic             Coordinates (Angstroms)
 Number     Number       Type             X           Y           Z
 ---------------------------------------------------------------------
      1         12           0        6.040158    0.553022    0.096309
      2          6           0        3.526135   -1.958771   -0.573811
      3          6           0        3.796610    2.834713   -1.235154
      4          6           0        8.403726    2.902400    0.329189
      5          6           0        8.296925   -1.967633    0.329043
      6          7           0        3.885922    0.367211   -0.873454
      7          6           0        3.087934   -0.668015   -0.924094
      8          6           0        1.753712   -0.183459   -1.521063
      9          6           0        2.080903    1.244251   -2.178827
     10          6           0        3.325424    1.527242   -1.369030
     11          6           0        2.466620    1.304927   -3.648489
     12          6           0        0.642441   -0.187967   -0.454497
     13          6           0       -0.765627   -0.336437   -1.037813
     14          6           0       -1.752817   -1.159335   -0.160261
     15          8           0       -2.067184   -0.967796    0.971486
     16          8           0       -2.260064   -2.266944   -0.850838
     17          7           0        6.065169    2.581308   -0.250792
     18          6           0        4.975631    3.324757   -0.579478
     19          6           0        5.270425    4.749714   -0.459602
     20          6           0        6.661884    4.842487   -0.088764
     21          6           0        7.142367    3.421422    0.004479
     22          6           0        4.267898    5.816617   -0.737693
     23          6           0        7.606969    6.042953    0.212082
     24          8           0        8.766118    6.013014    0.661522
     25          6           0        7.017121    7.324070   -0.122728
     26          7           0        8.092803    0.471164    0.141896
     27          6           0        8.899920    1.603426    0.299991
     28          6           0       10.298460    1.293787    0.646254
     29          6           0       10.306577   -0.308466    0.811469
     30          6           0        8.815471   -0.662739    0.468157
     31          6           0       11.393453    1.784800   -0.417255
     32          6           0       10.576836   -0.853473    2.309350
     33          6           0       11.431385   -2.084657    2.458895
     34          7           0        6.030185   -1.604776   -0.014606
     35          6           0        7.016399   -2.508382    0.114669
     36          6           0        6.558583   -3.850808   -0.045992
     37          6           0        5.116407   -3.634167   -0.104769
     38          6           0        4.883085   -2.255748   -0.206479
     39          6           0        7.311880   -5.137542   -0.024541
     40          6           0        3.895482   -4.317785   -0.123446
     41          8           0        3.720514   -5.528247    0.097075
     42          6           0        2.894740   -3.274778   -0.525854
     43          6           0        1.861951   -3.459350    0.570105
     44          8           0        1.753244   -2.687818    1.560031
     45          8           0        1.051337   -4.563391    0.314336
     46          6           0       -0.022392   -4.763516    1.339819
     47          6           0       -3.143712   -3.109388    0.011616
     48          6           0       -4.525756   -2.612216    0.297888
     49          6           0       -5.708600   -3.176481    0.071717
     50          6           0       -6.035443   -4.475949   -0.633259
     51          6           0       -6.923812   -2.376143    0.375631
     52          6           0       -7.562064   -1.796627   -0.894894
     53          6           0       -7.876270   -0.265569   -0.844235
     54          6           0       -9.373655   -0.035176   -0.541013
     55          6           0      -10.211825   -0.073740   -1.847092
     56          6           0       -9.584088    1.312387    0.266502
     57          6           0      -10.687354    1.105209    1.404944
     58          6           0      -11.448062    2.479115    1.609662
     59          6           0      -12.581982    2.426604    2.626764
     60          6           0      -12.272216    3.359339    3.777609
     61          6           0      -13.902185    2.765821    1.993790
     62          6           0      -14.531027    1.481072    1.403835
     63          6           0      -14.320957    1.409626   -0.136657
     64          6           0      -15.283609    0.505920   -0.989639
     65          6           0      -14.590424   -0.175079   -2.243260
     66          6           0      -16.481596    1.416447   -1.482560
     67          1           0        3.230423    3.599851   -1.770745
     68          1           0        9.187090    3.604863    0.621306
     69          1           0        9.123438   -2.662984    0.492531
     70          1           0        1.432828   -0.854108   -2.318304
     71          1           0        1.336448    2.004021   -1.940471
     72          1           0        3.497356    1.623182   -3.804604
     73          1           0        1.841686    1.997060   -4.212888
     74          1           0        2.504583    0.322833   -4.119385
     75          1           0        0.639813    0.827558   -0.056969
     76          1           0        0.716092   -0.865016    0.395962
     77          1           0       -0.814478   -0.686474   -2.068906
     78          1           0       -1.151008    0.652344   -1.288243
     79          1           0        3.262279    5.402765   -0.677403
     80          1           0        4.171692    6.336106   -1.691052
     81          1           0        4.408137    6.398886    0.173606
     82          1           0        6.445937    7.497401    0.789037
     83          1           0        6.432341    7.404156   -1.038683
     84          1           0        7.879479    7.990548   -0.117152
     85          1           0       10.500966    1.718438    1.629681
     86          1           0       10.958407   -0.831145    0.111631
     87          1           0       11.871406    2.577240    0.159148
     88          1           0       10.884208    2.208085   -1.281965
     89          1           0       12.069497    0.963104   -0.656136
     90          1           0        9.595216   -0.913761    2.779880
     91          1           0       11.172533   -0.120047    2.852640
     92          1           0       11.034500   -2.826569    3.151885
     93          1           0       12.302994   -1.792584    3.045385
     94          1           0       11.805776   -2.463438    1.507491
     95          1           0        8.294149   -4.972928   -0.468115
     96          1           0        6.793586   -5.925870   -0.570371
     97          1           0        7.368843   -5.403012    1.030451
     98          1           0        2.538565   -3.633751   -1.491334
     99          1           0       -0.043564   -5.853761    1.357245
    100          1           0       -0.897828   -4.304993    0.878593
    101          1           0        0.044302   -4.276133    2.312100
    102          1           0       -2.721315   -3.329871    0.991803
    103          1           0       -3.189564   -4.091727   -0.459318
    104          1           0       -4.619794   -1.629512    0.761764
    105          1           0       -7.031505   -4.662287   -1.034826
    106          1           0       -5.708509   -5.364763   -0.094038
    107          1           0       -5.419221   -4.492107   -1.532021
    108          1           0       -6.672159   -1.557590    1.051255
    109          1           0       -7.572829   -2.994964    0.996285
    110          1           0       -8.461661   -2.364522   -1.133055
    111          1           0       -7.032216   -1.980620   -1.829545
    112          1           0       -7.615416    0.070010   -1.846900
    113          1           0       -7.198766    0.298905   -0.204125
    114          1           0       -9.770036   -0.850060    0.065116
    115          1           0      -11.116321    0.498856   -1.642343
    116          1           0      -10.595807   -1.057328   -2.120346
    117          1           0       -9.797776    0.444361   -2.712432
    118          1           0       -9.751508    2.191068   -0.356465
    119          1           0       -8.693708    1.564065    0.842276
    120          1           0      -10.204428    0.829398    2.342130
    121          1           0      -11.370528    0.333457    1.049527
    122          1           0      -11.889943    2.769130    0.656396
    123          1           0      -10.654241    3.190312    1.834822
    124          1           0      -12.610148    1.454647    3.119039
    125          1           0      -11.355044    3.919566    3.598222
    126          1           0      -12.003673    2.828462    4.690280
    127          1           0      -12.990873    4.174579    3.866143
    128          1           0      -13.727157    3.505374    1.212214
    129          1           0      -14.593258    3.123985    2.756904
    130          1           0      -15.605413    1.430502    1.583867
    131          1           0      -14.179882    0.596649    1.937090
    132          1           0      -13.282469    1.138395   -0.327276
    133          1           0      -14.578926    2.392197   -0.529159
    134          1           0      -15.623232   -0.255684   -0.288960
    135          1           0      -14.476661   -1.258875   -2.254817
    136          1           0      -13.612536    0.297962   -2.334302
    137          1           0      -15.183893    0.052441   -3.129708
    138          1           0      -17.370479    0.863344   -1.787207
    139          1           0      -16.116666    1.966996   -2.350024
    140          1           0      -16.739573    2.223969   -0.797311
 ---------------------------------------------------------------------

 SCF Done:  E(RwB97XD) =  -3007.82593988     A.U. after   20 cycles

 Excitation energies and oscillator strengths:

 Excited State   1:      Singlet-A      1.6127 eV  768.81 nm  f=0.3962  <S**2>=0.000
     245 -> 248       -0.18532
     246 -> 247        0.68249
     245 <- 248       -0.11787
 This state for optimization and/or second-order correction.
 Total Energy, E(TD-HF/TD-DFT) =  -3007.76667505
 Copying the excited state density for this state as the 1-particle RhoCI density.

 Excited State   2:      Singlet-A      2.0553 eV  603.23 nm  f=0.1431  <S**2>=0.000
     245 -> 247        0.65524
     246 -> 248        0.24588

 Excited State   3:      Singlet-A      3.1266 eV  396.55 nm  f=0.0061  <S**2>=0.000
     241 -> 247        0.16833
     242 -> 247        0.12187
     242 -> 249        0.12361
     244 -> 247        0.62498
     244 -> 249        0.10535

 Excited State   4:      Singlet-A      3.2921 eV  376.61 nm  f=0.0002  <S**2>=0.000
     241 -> 247        0.24118
     241 -> 249        0.16359
     242 -> 247        0.51298
     242 -> 249        0.18687
     242 -> 250        0.12347
     244 -> 247       -0.24852

 Excited State   5:      Singlet-A      3.4997 eV  354.28 nm  f=0.0666  <S**2>=0.000
     241 -> 247        0.50867
     242 -> 247       -0.30027
     246 -> 248        0.34324

 The electronic state is 1-A.
 Alpha  occ. eigenvalues --  -46.95570 -19.29901 -19.29539 -19.24902 -19.24560
 Alpha  occ. eigenvalues --  -19.24249 -19.22979 -14.46430 -14.46220 -14.44335
 Alpha  occ. eigenvalues --  -14.43125 -10.43422 -10.42997 -10.39351 -10.37628
 Alpha  occ. eigenvalues --  -10.35379 -10.35150 -10.35149 -10.34760 -10.34668
 Alpha  occ. eigenvalues --  -10.34469 -10.34413 -10.33995 -10.33356 -10.32966
 Alpha  occ. eigenvalues --  -10.32667 -10.32496 -10.32456 -10.32444 -10.32336
 Alpha  occ. eigenvalues --  -10.32187 -10.32001 -10.31979 -10.31889 -10.31335
 Alpha  occ. eigenvalues --  -10.31206 -10.31061 -10.30607 -10.30539 -10.30485
 Alpha  occ. eigenvalues --  -10.30484 -10.30192 -10.30179 -10.30106 -10.30079
 Alpha  occ. eigenvalues --  -10.30011 -10.29970 -10.29518 -10.29453 -10.29308
 Alpha  occ. eigenvalues --  -10.29152 -10.28959 -10.28793 -10.28738 -10.28616
 Alpha  occ. eigenvalues --  -10.28590 -10.28568 -10.28526 -10.28510 -10.28446
 Alpha  occ. eigenvalues --  -10.28419 -10.28349 -10.28275 -10.28261 -10.28238
 Alpha  occ. eigenvalues --  -10.27231  -3.21497  -1.95055  -1.94614  -1.94466
 Alpha  occ. eigenvalues --   -1.18416  -1.16291  -1.11408  -1.10399  -1.09609
 Alpha  occ. eigenvalues --   -1.08097  -1.06884  -1.06032  -1.04677  -1.03692
 Alpha  occ. eigenvalues --   -0.96081  -0.92391  -0.91935  -0.91316  -0.90725
 Alpha  occ. eigenvalues --   -0.89875  -0.89741  -0.89651  -0.89243  -0.88722
 Alpha  occ. eigenvalues --   -0.88137  -0.87166  -0.85729  -0.85630  -0.85071
 Alpha  occ. eigenvalues --   -0.84710  -0.83868  -0.82937  -0.82509  -0.82167
 Alpha  occ. eigenvalues --   -0.81340  -0.80324  -0.79993  -0.79100  -0.78078
 Alpha  occ. eigenvalues --   -0.77808  -0.77324  -0.76825  -0.76089  -0.75957
 Alpha  occ. eigenvalues --   -0.75137  -0.74607  -0.73882  -0.72114  -0.70755
 Alpha  occ. eigenvalues --   -0.70561  -0.70110  -0.68869  -0.68502  -0.67865
 Alpha  occ. eigenvalues --   -0.67257  -0.66829  -0.66524  -0.66255  -0.65861
 Alpha  occ. eigenvalues --   -0.65139  -0.64719  -0.64325  -0.63797  -0.62258
 Alpha  occ. eigenvalues --   -0.61715  -0.61271  -0.61135  -0.60558  -0.60485
 Alpha  occ. eigenvalues --   -0.59589  -0.58773  -0.58437  -0.57444  -0.57246
 Alpha  occ. eigenvalues --   -0.56855  -0.56432  -0.56388  -0.55955  -0.55428
 Alpha  occ. eigenvalues --   -0.55370  -0.55203  -0.54885  -0.54633  -0.54576
 Alpha  occ. eigenvalues --   -0.54310  -0.54162  -0.53751  -0.53640  -0.53610
 Alpha  occ. eigenvalues --   -0.53385  -0.53086  -0.52828  -0.52649  -0.52505
 Alpha  occ. eigenvalues --   -0.52447  -0.52357  -0.51948  -0.51621  -0.51300
 Alpha  occ. eigenvalues --   -0.51083  -0.50940  -0.50788  -0.50712  -0.50589
 Alpha  occ. eigenvalues --   -0.50360  -0.50186  -0.50085  -0.49544  -0.49423
 Alpha  occ. eigenvalues --   -0.49221  -0.48975  -0.48822  -0.48668  -0.48517
 Alpha  occ. eigenvalues --   -0.48246  -0.47921  -0.47840  -0.47679  -0.47223
 Alpha  occ. eigenvalues --   -0.47036  -0.46820  -0.46681  -0.46522  -0.46469
 Alpha  occ. eigenvalues --   -0.46297  -0.46131  -0.45776  -0.45664  -0.45502
 Alpha  occ. eigenvalues --   -0.45296  -0.45179  -0.45067  -0.44852  -0.44649
 Alpha  occ. eigenvalues --   -0.44534  -0.44359  -0.44201  -0.44058  -0.43701
 Alpha  occ. eigenvalues --   -0.43360  -0.43311  -0.43155  -0.43084  -0.42945
 Alpha  occ. eigenvalues --   -0.42823  -0.42513  -0.42399  -0.41971  -0.41699
 Alpha  occ. eigenvalues --   -0.41510  -0.41435  -0.41153  -0.40678  -0.40638
 Alpha  occ. eigenvalues --   -0.40066  -0.40037  -0.39849  -0.39425  -0.39189
 Alpha  occ. eigenvalues --   -0.38734  -0.38681  -0.38658  -0.38335  -0.38328
 Alpha  occ. eigenvalues --   -0.37762  -0.37481  -0.37108  -0.36252  -0.35779
 Alpha  occ. eigenvalues --   -0.35679  -0.35200  -0.35025  -0.33411  -0.33313
 Alpha  occ. eigenvalues --   -0.32198  -0.32118  -0.31795  -0.31086  -0.25524
 Alpha  occ. eigenvalues --   -0.23056
 Alpha virt. eigenvalues --   -0.07367   0.00436   0.02204   0.04264   0.05062
 Alpha virt. eigenvalues --    0.07362   0.07816   0.08120   0.08594   0.09960
 Alpha virt. eigenvalues --    0.10400   0.11416   0.12097   0.12589   0.12770

 Mulliken charges:
               1
     1  Mg   0.958553
     2  C    0.011223
     3  C   -0.077558
     4  C   -0.077570
     5  C   -0.075799
     6  N   -0.287294
     7  C    0.001032
     8  C   -0.074418
     9  C   -0.115253
    10  C    0.025506
    11  C    0.044417
    12  C    0.022129
    13  C    0.000484
    14  C    0.216669
    15  O   -0.226899
    16  O   -0.383275
    17  N   -0.471312
    18  C    0.179165
    19  C   -0.182628
    20  C   -0.093852
    21  C    0.147888
    22  C    0.051238
    23  C    0.074221
    24  O   -0.249635
    25  C   -0.019206
    26  N   -0.419989
    27  C    0.073794
    28  C   -0.095101
    29  C   -0.094004
    30  C    0.035662
    31  C    0.027636
    32  C   -0.024810
    33  C   -0.037581
    34  N   -0.382478
    35  C    0.142040
    36  C   -0.162338
    37  C   -0.020790
    38  C    0.120594
    39  C    0.094313
    40  C    0.021359
    41  O   -0.227104
    42  C   -0.034325
    43  C    0.281366
    44  O   -0.289044
    45  O   -0.368185
    46  C    0.147545
    47  C    0.256026
    48  C   -0.133116
    49  C   -0.201238
    50  C    0.012090
    51  C    0.057013
    52  C   -0.040076
    53  C    0.032027
    54  C   -0.173651
    55  C    0.002826
    56  C   -0.000193
    57  C   -0.064552
    58  C   -0.004312
    59  C   -0.186163
    60  C    0.027615
    61  C    0.035552
    62  C   -0.018347
    63  C   -0.017623
    64  C   -0.200992
    65  C    0.001171
    66  C   -0.027718
    67  H    0.000457
    68  H    0.018482
    69  H   -0.012694
    70  H    0.019991
    71  H    0.028528
    72  H    0.043692
    73  H    0.043036
    74  H    0.033785
    75  H    0.031615
    76  H    0.084645
    77  H    0.033521
    78  H    0.041887
    79  H    0.025361
    80  H    0.066793
    81  H    0.051182
    82  H    0.063489
    83  H    0.071297
    84  H    0.054211
    85  H    0.047155
    86  H    0.038126
    87  H    0.049437
    88  H    0.055115
    89  H    0.044598
    90  H    0.045697
    91  H    0.031317
    92  H    0.039042
    93  H    0.022920
    94  H    0.038950
    95  H    0.039748
    96  H    0.060698
    97  H    0.064923
    98  H    0.082981
    99  H    0.069854
   100  H    0.028501
   101  H    0.076474
   102  H    0.054694
   103  H    0.028147
   104  H    0.026441
   105  H    0.041302
   106  H    0.048845
   107  H    0.039016
   108  H    0.011697
   109  H    0.025268
   110  H    0.010366
   111  H    0.020400
   112  H    0.009506
   113  H    0.018487
   114  H    0.026594
   115  H    0.012402
   116  H    0.032880
   117  H    0.029661
   118  H    0.023061
   119  H    0.014058
   120  H    0.033950
   121  H    0.026262
   122  H    0.011516
   123  H    0.021225
   124  H    0.016413
   125  H   -0.001308
   126  H    0.028830
   127  H    0.021195
   128  H    0.022472
   129  H    0.017588
   130  H    0.008052
   131  H    0.015949
   132  H    0.017957
   133  H    0.007999
   134  H    0.023117
   135  H    0.036658
   136  H    0.025203
   137  H    0.022401
   138  H    0.041584
   139  H    0.023149
   140  H    0.029419
 Sum of Mulliken charges =  -0.00000

 Dipole moment (field-independent basis, Debye):
    X=             -0.8674    Y=              2.1667    Z=             -2.5646  Tot=              3.4675
 Quadrupole moment (field-independent basis, Debye-Ang):
   XX=           -370.4693   YY=           -407.4892   ZZ=           -398.9689
   XY=             -3.1063   XZ=              6.5670   YZ=             -8.3054

 Normal termination of Gaussian 16 at Sat Apr 30 01:11:37 2022.
