 Gaussian 16, Revision A.03,
 Gaussian 16:  ES64L-G16RevA.03 25-Dec-2016

 --------------------
 #p ZINDO=(nstates=5)
 --------------------

 ----------------------------
 step_51_chromophore_22 ZINDO
 ----------------------------
 Symbolic Z-matrix:
 Charge =  0 Multiplicity = 1

                         Standard orientation:
 ---------------------------------------------------------------------
 Center     Atomic      Atomic             Coordinates (Angstroms)
 Number     Number       Type             X           Y           Z
 ---------------------------------------------------------------------
      1         12           0        6.040158    0.553022    0.096309
      2          6           0        3.526135   -1.958771   -0.573811
      3          6           0        3.796610    2.834713   -1.235154
      4          6           0        8.403726    2.902400    0.329189
      5          6           0        8.296925   -1.967633    0.329043
      6          7           0        3.885922    0.367211   -0.873454
      7          6           0        3.087934   -0.668015   -0.924094
      8          6           0        1.753712   -0.183459   -1.521063
      9          6           0        2.080903    1.244251   -2.178827
     10          6           0        3.325424    1.527242   -1.369030
     11          6           0        2.466620    1.304927   -3.648489
     12          6           0        0.642441   -0.187967   -0.454497
     13          6           0       -0.765627   -0.336437   -1.037813
     14          6           0       -1.752817   -1.159335   -0.160261
     15          8           0       -2.067184   -0.967796    0.971486
     16          8           0       -2.260064   -2.266944   -0.850838
     17          7           0        6.065169    2.581308   -0.250792
     18          6           0        4.975631    3.324757   -0.579478
     19          6           0        5.270425    4.749714   -0.459602
     20          6           0        6.661884    4.842487   -0.088764
     21          6           0        7.142367    3.421422    0.004479
     22          6           0        4.267898    5.816617   -0.737693
     23          6           0        7.606969    6.042953    0.212082
     24          8           0        8.766118    6.013014    0.661522
     25          6           0        7.017121    7.324070   -0.122728
     26          7           0        8.092803    0.471164    0.141896
     27          6           0        8.899920    1.603426    0.299991
     28          6           0       10.298460    1.293787    0.646254
     29          6           0       10.306577   -0.308466    0.811469
     30          6           0        8.815471   -0.662739    0.468157
     31          6           0       11.393453    1.784800   -0.417255
     32          6           0       10.576836   -0.853473    2.309350
     33          6           0       11.431385   -2.084657    2.458895
     34          7           0        6.030185   -1.604776   -0.014606
     35          6           0        7.016399   -2.508382    0.114669
     36          6           0        6.558583   -3.850808   -0.045992
     37          6           0        5.116407   -3.634167   -0.104769
     38          6           0        4.883085   -2.255748   -0.206479
     39          6           0        7.311880   -5.137542   -0.024541
     40          6           0        3.895482   -4.317785   -0.123446
     41          8           0        3.720514   -5.528247    0.097075
     42          6           0        2.894740   -3.274778   -0.525854
     43          6           0        1.861951   -3.459350    0.570105
     44          8           0        1.753244   -2.687818    1.560031
     45          8           0        1.051337   -4.563391    0.314336
     46          6           0       -0.022392   -4.763516    1.339819
     47          6           0       -3.143712   -3.109388    0.011616
     48          6           0       -4.525756   -2.612216    0.297888
     49          6           0       -5.708600   -3.176481    0.071717
     50          6           0       -6.035443   -4.475949   -0.633259
     51          6           0       -6.923812   -2.376143    0.375631
     52          6           0       -7.562064   -1.796627   -0.894894
     53          6           0       -7.876270   -0.265569   -0.844235
     54          6           0       -9.373655   -0.035176   -0.541013
     55          6           0      -10.211825   -0.073740   -1.847092
     56          6           0       -9.584088    1.312387    0.266502
     57          6           0      -10.687354    1.105209    1.404944
     58          6           0      -11.448062    2.479115    1.609662
     59          6           0      -12.581982    2.426604    2.626764
     60          6           0      -12.272216    3.359339    3.777609
     61          6           0      -13.902185    2.765821    1.993790
     62          6           0      -14.531027    1.481072    1.403835
     63          6           0      -14.320957    1.409626   -0.136657
     64          6           0      -15.283609    0.505920   -0.989639
     65          6           0      -14.590424   -0.175079   -2.243260
     66          6           0      -16.481596    1.416447   -1.482560
     67          1           0        3.230423    3.599851   -1.770745
     68          1           0        9.187090    3.604863    0.621306
     69          1           0        9.123438   -2.662984    0.492531
     70          1           0        1.432828   -0.854108   -2.318304
     71          1           0        1.336448    2.004021   -1.940471
     72          1           0        3.497356    1.623182   -3.804604
     73          1           0        1.841686    1.997060   -4.212888
     74          1           0        2.504583    0.322833   -4.119385
     75          1           0        0.639813    0.827558   -0.056969
     76          1           0        0.716092   -0.865016    0.395962
     77          1           0       -0.814478   -0.686474   -2.068906
     78          1           0       -1.151008    0.652344   -1.288243
     79          1           0        3.262279    5.402765   -0.677403
     80          1           0        4.171692    6.336106   -1.691052
     81          1           0        4.408137    6.398886    0.173606
     82          1           0        6.445937    7.497401    0.789037
     83          1           0        6.432341    7.404156   -1.038683
     84          1           0        7.879479    7.990548   -0.117152
     85          1           0       10.500966    1.718438    1.629681
     86          1           0       10.958407   -0.831145    0.111631
     87          1           0       11.871406    2.577240    0.159148
     88          1           0       10.884208    2.208085   -1.281965
     89          1           0       12.069497    0.963104   -0.656136
     90          1           0        9.595216   -0.913761    2.779880
     91          1           0       11.172533   -0.120047    2.852640
     92          1           0       11.034500   -2.826569    3.151885
     93          1           0       12.302994   -1.792584    3.045385
     94          1           0       11.805776   -2.463438    1.507491
     95          1           0        8.294149   -4.972928   -0.468115
     96          1           0        6.793586   -5.925870   -0.570371
     97          1           0        7.368843   -5.403012    1.030451
     98          1           0        2.538565   -3.633751   -1.491334
     99          1           0       -0.043564   -5.853761    1.357245
    100          1           0       -0.897828   -4.304993    0.878593
    101          1           0        0.044302   -4.276133    2.312100
    102          1           0       -2.721315   -3.329871    0.991803
    103          1           0       -3.189564   -4.091727   -0.459318
    104          1           0       -4.619794   -1.629512    0.761764
    105          1           0       -7.031505   -4.662287   -1.034826
    106          1           0       -5.708509   -5.364763   -0.094038
    107          1           0       -5.419221   -4.492107   -1.532021
    108          1           0       -6.672159   -1.557590    1.051255
    109          1           0       -7.572829   -2.994964    0.996285
    110          1           0       -8.461661   -2.364522   -1.133055
    111          1           0       -7.032216   -1.980620   -1.829545
    112          1           0       -7.615416    0.070010   -1.846900
    113          1           0       -7.198766    0.298905   -0.204125
    114          1           0       -9.770036   -0.850060    0.065116
    115          1           0      -11.116321    0.498856   -1.642343
    116          1           0      -10.595807   -1.057328   -2.120346
    117          1           0       -9.797776    0.444361   -2.712432
    118          1           0       -9.751508    2.191068   -0.356465
    119          1           0       -8.693708    1.564065    0.842276
    120          1           0      -10.204428    0.829398    2.342130
    121          1           0      -11.370528    0.333457    1.049527
    122          1           0      -11.889943    2.769130    0.656396
    123          1           0      -10.654241    3.190312    1.834822
    124          1           0      -12.610148    1.454647    3.119039
    125          1           0      -11.355044    3.919566    3.598222
    126          1           0      -12.003673    2.828462    4.690280
    127          1           0      -12.990873    4.174579    3.866143
    128          1           0      -13.727157    3.505374    1.212214
    129          1           0      -14.593258    3.123985    2.756904
    130          1           0      -15.605413    1.430502    1.583867
    131          1           0      -14.179882    0.596649    1.937090
    132          1           0      -13.282469    1.138395   -0.327276
    133          1           0      -14.578926    2.392197   -0.529159
    134          1           0      -15.623232   -0.255684   -0.288960
    135          1           0      -14.476661   -1.258875   -2.254817
    136          1           0      -13.612536    0.297962   -2.334302
    137          1           0      -15.183893    0.052441   -3.129708
    138          1           0      -17.370479    0.863344   -1.787207
    139          1           0      -16.116666    1.966996   -2.350024
    140          1           0      -16.739573    2.223969   -0.797311
 ---------------------------------------------------------------------

 SCF Done:  E(RZINDO/S) =  -474.215828044     A.U. after   20 cycles

 Excitation energies and oscillator strengths:

 Excited State   1:      Singlet-A      1.2112 eV 1023.63 nm  f=0.6319  <S**2>=0.000
     175 ->178         0.19339
     176 ->177         0.66118
 This state for optimization and/or second-order correction.
 Total Energy, E(CIS/TDA) =  -474.171316604
 Copying the excited state density for this state as the 1-particle RhoCI density.

 Excited State   2:      Singlet-A      1.8389 eV  674.22 nm  f=0.1043  <S**2>=0.000
     175 ->177         0.58825
     176 ->178        -0.36206

 Excited State   3:      Singlet-A      2.7830 eV  445.51 nm  f=0.0025  <S**2>=0.000
     169 ->177         0.11172
     169 ->179        -0.11666
     170 ->177         0.32127
     170 ->179        -0.33110
     170 ->180         0.17986
     170 ->185        -0.11406
     172 ->177        -0.11740
     174 ->177         0.27547
     174 ->179        -0.11412

 Excited State   4:      Singlet-A      2.9776 eV  416.39 nm  f=0.7784  <S**2>=0.000
     170 ->177        -0.10703
     172 ->177        -0.14938
     174 ->177         0.16306
     175 ->177         0.29446
     176 ->178         0.52755

 Excited State   5:      Singlet-A      3.0198 eV  410.56 nm  f=0.1255  <S**2>=0.000
     170 ->177         0.11556
     172 ->177         0.16264
     174 ->177        -0.23320
     175 ->177         0.10278
     176 ->178         0.13821
     176 ->179         0.53501

 The electronic state is 1-A.
 Alpha  occ. eigenvalues --   -1.85935  -1.80330  -1.79109  -1.72460  -1.71941
 Alpha  occ. eigenvalues --   -1.69468  -1.66402  -1.60853  -1.58912  -1.58635
 Alpha  occ. eigenvalues --   -1.53723  -1.51668  -1.48946  -1.47752  -1.45759
 Alpha  occ. eigenvalues --   -1.43507  -1.41477  -1.40168  -1.39753  -1.37666
 Alpha  occ. eigenvalues --   -1.37552  -1.33341  -1.32071  -1.31417  -1.28302
 Alpha  occ. eigenvalues --   -1.26965  -1.24956  -1.22963  -1.20483  -1.17990
 Alpha  occ. eigenvalues --   -1.17060  -1.15592  -1.14579  -1.13671  -1.12296
 Alpha  occ. eigenvalues --   -1.11839  -1.10820  -1.10566  -1.05489  -1.03550
 Alpha  occ. eigenvalues --   -1.02711  -1.01529  -0.99279  -0.98043  -0.96515
 Alpha  occ. eigenvalues --   -0.95244  -0.94511  -0.93867  -0.92480  -0.91757
 Alpha  occ. eigenvalues --   -0.90998  -0.89830  -0.88622  -0.87896  -0.86836
 Alpha  occ. eigenvalues --   -0.85839  -0.84113  -0.83480  -0.82666  -0.80332
 Alpha  occ. eigenvalues --   -0.79878  -0.78238  -0.77562  -0.76684  -0.76405
 Alpha  occ. eigenvalues --   -0.76117  -0.75890  -0.74628  -0.74235  -0.73405
 Alpha  occ. eigenvalues --   -0.72844  -0.72479  -0.71993  -0.71073  -0.70634
 Alpha  occ. eigenvalues --   -0.70195  -0.69679  -0.69456  -0.67887  -0.67706
 Alpha  occ. eigenvalues --   -0.67217  -0.66913  -0.66220  -0.65858  -0.65496
 Alpha  occ. eigenvalues --   -0.65037  -0.64603  -0.64487  -0.63644  -0.63525
 Alpha  occ. eigenvalues --   -0.63424  -0.62510  -0.62364  -0.61931  -0.61840
 Alpha  occ. eigenvalues --   -0.61269  -0.60607  -0.60062  -0.60020  -0.59714
 Alpha  occ. eigenvalues --   -0.59181  -0.58878  -0.58766  -0.58147  -0.57873
 Alpha  occ. eigenvalues --   -0.57541  -0.57473  -0.56845  -0.56649  -0.56193
 Alpha  occ. eigenvalues --   -0.55697  -0.55018  -0.54937  -0.54862  -0.54771
 Alpha  occ. eigenvalues --   -0.54134  -0.53458  -0.53335  -0.53006  -0.52562
 Alpha  occ. eigenvalues --   -0.52184  -0.51999  -0.51881  -0.51455  -0.51007
 Alpha  occ. eigenvalues --   -0.50850  -0.50743  -0.50586  -0.50192  -0.50020
 Alpha  occ. eigenvalues --   -0.50019  -0.49587  -0.49410  -0.48986  -0.48672
 Alpha  occ. eigenvalues --   -0.48493  -0.48248  -0.48182  -0.47896  -0.47505
 Alpha  occ. eigenvalues --   -0.47023  -0.46853  -0.46513  -0.46322  -0.46174
 Alpha  occ. eigenvalues --   -0.45808  -0.45656  -0.45637  -0.45079  -0.44641
 Alpha  occ. eigenvalues --   -0.44498  -0.44486  -0.44126  -0.44092  -0.43802
 Alpha  occ. eigenvalues --   -0.43627  -0.43457  -0.42874  -0.42341  -0.41807
 Alpha  occ. eigenvalues --   -0.41761  -0.40842  -0.40476  -0.38560  -0.38329
 Alpha  occ. eigenvalues --   -0.37952  -0.36704  -0.35493  -0.34457  -0.34082
 Alpha  occ. eigenvalues --   -0.32974  -0.32246  -0.31827  -0.31555  -0.26113
 Alpha  occ. eigenvalues --   -0.21760
 Alpha virt. eigenvalues --   -0.08824  -0.01749  -0.00719   0.00968   0.01251
 Alpha virt. eigenvalues --    0.02717   0.02891   0.03257   0.05071   0.05603
 Alpha virt. eigenvalues --    0.06583   0.06921   0.07228   0.07757   0.08282

 Mulliken charges:
               1
     1  Mg   0.435264
     2  C   -0.053267
     3  C   -0.090837
     4  C   -0.053291
     5  C   -0.061577
     6  N   -0.293979
     7  C    0.148420
     8  C    0.014162
     9  C    0.002520
    10  C    0.132736
    11  C   -0.043286
    12  C   -0.018746
    13  C   -0.001290
    14  C    0.468029
    15  O   -0.489177
    16  O   -0.280075
    17  N   -0.314551
    18  C    0.110612
    19  C    0.009590
    20  C   -0.063619
    21  C    0.121180
    22  C   -0.048647
    23  C    0.340875
    24  O   -0.534676
    25  C   -0.033817
    26  N   -0.278316
    27  C    0.139574
    28  C    0.003547
    29  C   -0.010942
    30  C    0.114379
    31  C   -0.054126
    32  C   -0.030847
    33  C   -0.056593
    34  N   -0.322840
    35  C    0.112545
    36  C    0.032050
    37  C   -0.066632
    38  C    0.119420
    39  C   -0.029005
    40  C    0.335587
    41  O   -0.551763
    42  C    0.079852
    43  C    0.482455
    44  O   -0.543776
    45  O   -0.263069
    46  C    0.067382
    47  C    0.109194
    48  C   -0.082957
    49  C    0.003394
    50  C   -0.045861
    51  C   -0.014415
    52  C   -0.030095
    53  C   -0.034569
    54  C   -0.005249
    55  C   -0.059369
    56  C   -0.047709
    57  C   -0.047106
    58  C   -0.038609
    59  C   -0.003767
    60  C   -0.066299
    61  C   -0.026105
    62  C   -0.039771
    63  C   -0.041626
    64  C   -0.017152
    65  C   -0.061979
    66  C   -0.058025
    67  H    0.025563
    68  H    0.037841
    69  H    0.007980
    70  H    0.018043
    71  H    0.031026
    72  H    0.023108
    73  H    0.021664
    74  H    0.020516
    75  H    0.020929
    76  H    0.059350
    77  H    0.026586
    78  H    0.034501
    79  H    0.014378
    80  H    0.045775
    81  H    0.032323
    82  H    0.049861
    83  H    0.039899
    84  H    0.036475
    85  H    0.038499
    86  H    0.038166
    87  H    0.026422
    88  H    0.032889
    89  H    0.030442
    90  H    0.030259
    91  H    0.016191
    92  H    0.025504
    93  H    0.008883
    94  H    0.026717
    95  H    0.024681
    96  H    0.037986
    97  H    0.043096
    98  H    0.059812
    99  H    0.040991
   100  H    0.035420
   101  H    0.063097
   102  H    0.051176
   103  H    0.023302
   104  H    0.036583
   105  H    0.026771
   106  H    0.026936
   107  H    0.014974
   108  H    0.015266
   109  H    0.019660
   110  H    0.012700
   111  H    0.017728
   112  H    0.011441
   113  H    0.026046
   114  H    0.024948
   115  H    0.005302
   116  H    0.020649
   117  H    0.023588
   118  H    0.027433
   119  H    0.012011
   120  H    0.026575
   121  H    0.023254
   122  H    0.016497
   123  H    0.022252
   124  H    0.021042
   125  H    0.005087
   126  H    0.020691
   127  H    0.020882
   128  H    0.027967
   129  H    0.014909
   130  H    0.009740
   131  H    0.020358
   132  H    0.022910
   133  H    0.020308
   134  H    0.020391
   135  H    0.023538
   136  H    0.020581
   137  H    0.016763
   138  H    0.019562
   139  H    0.013745
   140  H    0.018203
 Sum of Mulliken charges =  -0.00000

 Dipole moment (field-independent basis, Debye):
    X=             -1.2410    Y=              4.1633    Z=             -5.5604  Tot=              7.0563
 N-N= 4.252865267697D+03 E-N= 0.000000000000D+00  KE=-9.180693563554D+03
 Leave Link  601 at Sat Apr 30 01:23:05 2022, MaxMem=  6710886400 cpu:               0.8 elap:               0.0
 (Enter /sw/apps/gaussian-16.0/g16/l9999.exe)
 1\1\GINC-BP1-COMPUTE161\SP\RZINDO CIS\STO-3G\C55H74Mg1N4O6\OF15641\30-
 Apr-2022\0\\#p ZINDO=(nstates=5)\\step_51_chromophore_22 ZINDO\\0,1\Mg
 ,0,8.734,47.801,24.983\C,0,6.51,48.1,27.819\C,0,11.181,49.134,27.044\C
 ,0,10.787,47.914,22.35\C,0,5.977,47.544,23.025\N,0,8.75,48.597,27.215\
 C,0,7.819,48.513,28.13\C,0,8.423,49.047,29.442\C,0,9.754,49.831,29.004
 \C,0,9.935,49.136,27.674\C,0,9.671,51.325,28.733\C,0,8.624,47.906,30.4
 57\C,0,8.611,48.374,31.915\C,0,7.974,47.369,32.918\O,0,8.276,46.235,33

 Normal termination of Gaussian 16 at Sat Apr 30 01:23:05 2022.
