 Gaussian 16, Revision A.03,
 Gaussian 16:  ES64L-G16RevA.03 25-Dec-2016

 ------------------------------
 #p blyp/Def2SVP td=(nstates=5)
 ------------------------------

 -------------------------------------------------
 step_951_chromophore_2 TDDFT with blyp functional
 -------------------------------------------------
 Symbolic Z-matrix:
 Charge =  0 Multiplicity = 1

                         Standard orientation:
 ---------------------------------------------------------------------
 Center     Atomic      Atomic             Coordinates (Angstroms)
 Number     Number       Type             X           Y           Z
 ---------------------------------------------------------------------
      1         12           0       -4.662732    1.294772    0.647503
      2          6           0       -5.178750   -2.215132    0.365005
      3          6           0       -2.289372    0.685664    2.945203
      4          6           0       -3.714199    4.403041    0.239055
      5          6           0       -7.011801    1.632724   -1.962171
      6          7           0       -3.832588   -0.587282    1.519604
      7          6           0       -4.149011   -1.877356    1.224315
      8          6           0       -3.207807   -2.910612    2.003155
      9          6           0       -2.513880   -1.920711    3.013404
     10          6           0       -2.784352   -0.512120    2.463770
     11          6           0       -2.821079   -2.145632    4.527926
     12          6           0       -2.256023   -3.760310    1.093475
     13          6           0       -1.597073   -2.938862   -0.007333
     14          6           0       -0.599394   -3.702731   -0.881390
     15          8           0       -0.758771   -4.171582   -1.998735
     16          8           0        0.593213   -3.803205   -0.207272
     17          7           0       -3.273008    2.444495    1.561081
     18          6           0       -2.406038    2.062613    2.543555
     19          6           0       -1.543193    3.187127    2.998196
     20          6           0       -2.039688    4.303425    2.279754
     21          6           0       -3.076296    3.798674    1.279514
     22          6           0       -0.585211    3.122381    4.150123
     23          6           0       -1.619989    5.821356    2.481638
     24          8           0       -0.697198    6.136063    3.322292
     25          6           0       -2.333819    6.940998    1.732336
     26          7           0       -5.154648    2.761013   -0.794470
     27          6           0       -4.666205    3.999718   -0.652054
     28          6           0       -5.153611    4.843824   -1.815142
     29          6           0       -6.158112    3.939175   -2.575540
     30          6           0       -6.153491    2.685329   -1.718988
     31          6           0       -5.756895    6.294129   -1.499179
     32          6           0       -5.965595    3.669580   -4.094019
     33          6           0       -7.051755    4.290938   -5.060837
     34          7           0       -5.955611   -0.010325   -0.493057
     35          6           0       -6.880387    0.332986   -1.410786
     36          6           0       -7.552758   -0.910214   -1.823547
     37          6           0       -6.908801   -1.938164   -1.157253
     38          6           0       -5.941586   -1.342631   -0.351033
     39          6           0       -8.630999   -0.987200   -2.884723
     40          6           0       -6.899760   -3.360528   -0.971345
     41          8           0       -7.552780   -4.260194   -1.542265
     42          6           0       -5.613852   -3.608241   -0.054718
     43          6           0       -6.017035   -4.394091    1.249191
     44          8           0       -5.618565   -5.554152    1.401186
     45          8           0       -6.721853   -3.659557    2.113337
     46          6           0       -7.038326   -4.284347    3.364015
     47          6           0        1.688252   -4.548331   -0.722304
     48          6           0        2.798283   -3.530435   -0.767177
     49          6           0        3.267634   -2.843495   -1.830080
     50          6           0        2.849773   -3.036451   -3.214817
     51          6           0        4.372819   -1.874445   -1.617775
     52          6           0        5.776205   -2.396992   -1.874759
     53          6           0        6.514448   -1.428104   -2.820103
     54          6           0        7.115272   -0.187576   -2.062939
     55          6           0        7.237783    1.065456   -3.052993
     56          6           0        8.495578   -0.481700   -1.430977
     57          6           0        8.419205   -0.613456    0.174214
     58          6           0        9.361580    0.418429    0.931715
     59          6           0       10.831668    0.017738    0.914764
     60          6           0       11.382418   -0.478254    2.257831
     61          6           0       11.798193    1.151431    0.339421
     62          6           0       12.943271    0.642634   -0.533634
     63          6           0       14.288640    0.268786    0.228014
     64          6           0       15.569320    1.045006   -0.256114
     65          6           0       16.849244    0.208359   -0.314130
     66          6           0       15.814208    2.382785    0.459551
     67          1           0       -1.469051    0.580406    3.657292
     68          1           0       -3.454509    5.427096   -0.037072
     69          1           0       -7.816294    1.834188   -2.671639
     70          1           0       -3.715959   -3.684882    2.579063
     71          1           0       -1.466482   -2.222066    3.049999
     72          1           0       -1.975326   -1.927926    5.179472
     73          1           0       -3.310397   -3.117983    4.588864
     74          1           0       -3.554383   -1.405514    4.848176
     75          1           0       -2.769776   -4.647341    0.721856
     76          1           0       -1.482018   -4.101635    1.780439
     77          1           0       -1.216627   -2.051758    0.498938
     78          1           0       -2.368622   -2.516359   -0.651436
     79          1           0        0.371783    3.522755    3.816226
     80          1           0       -0.420445    2.081834    4.430322
     81          1           0       -0.915484    3.546935    5.098606
     82          1           0       -3.390782    6.684125    1.804656
     83          1           0       -2.051601    6.777992    0.692654
     84          1           0       -2.174237    7.965111    2.069767
     85          1           0       -4.369407    5.043163   -2.545294
     86          1           0       -7.193528    4.256376   -2.454178
     87          1           0       -6.522545    6.573383   -2.222999
     88          1           0       -5.097731    7.146340   -1.668124
     89          1           0       -6.180478    6.284182   -0.495168
     90          1           0       -5.910911    2.605291   -4.317354
     91          1           0       -5.014940    4.074979   -4.441317
     92          1           0       -7.873890    3.606450   -5.269133
     93          1           0       -6.659419    4.412099   -6.070525
     94          1           0       -7.413827    5.222878   -4.627251
     95          1           0       -9.645511   -0.925160   -2.490435
     96          1           0       -8.461043   -1.915530   -3.429207
     97          1           0       -8.447297   -0.123562   -3.524232
     98          1           0       -4.871648   -4.209520   -0.580243
     99          1           0       -6.229165   -4.037135    4.051994
    100          1           0       -7.028396   -5.373446    3.355602
    101          1           0       -7.911946   -3.911572    3.899298
    102          1           0        1.505947   -5.080871   -1.656049
    103          1           0        1.931325   -5.291735    0.037421
    104          1           0        3.464936   -3.465046    0.094056
    105          1           0        2.163107   -3.882145   -3.220563
    106          1           0        3.680468   -3.396847   -3.821270
    107          1           0        2.468271   -2.127872   -3.681079
    108          1           0        4.410263   -1.586485   -0.567301
    109          1           0        4.187298   -0.886717   -2.039901
    110          1           0        5.843288   -3.368206   -2.366215
    111          1           0        6.242443   -2.418322   -0.889900
    112          1           0        5.854089   -0.965577   -3.554405
    113          1           0        7.335424   -2.012092   -3.235065
    114          1           0        6.326237    0.103879   -1.369436
    115          1           0        6.400316    1.763569   -3.047647
    116          1           0        7.419579    0.663415   -4.050259
    117          1           0        8.164903    1.621487   -2.911560
    118          1           0        9.245284    0.287696   -1.615824
    119          1           0        8.847604   -1.452962   -1.778663
    120          1           0        8.701938   -1.635649    0.426612
    121          1           0        7.391671   -0.476535    0.512073
    122          1           0        9.021700    0.489959    1.964594
    123          1           0        9.173930    1.384366    0.461529
    124          1           0       11.031164   -0.876870    0.324550
    125          1           0       11.576598    0.379306    2.903147
    126          1           0       12.363553   -0.942210    2.157411
    127          1           0       10.693405   -1.062414    2.866855
    128          1           0       12.225552    1.697196    1.180115
    129          1           0       11.342608    1.860472   -0.352216
    130          1           0       13.220780    1.317247   -1.344221
    131          1           0       12.635947   -0.250693   -1.075634
    132          1           0       14.423110   -0.804091    0.091849
    133          1           0       14.147766    0.474353    1.288810
    134          1           0       15.440499    1.319136   -1.302875
    135          1           0       16.891092   -0.227489   -1.312424
    136          1           0       16.879176   -0.711061    0.271313
    137          1           0       17.749169    0.756076   -0.033700
    138          1           0       16.783217    2.436210    0.955815
    139          1           0       15.104854    2.520966    1.275119
    140          1           0       15.688867    3.163673   -0.290840
 ---------------------------------------------------------------------

 SCF Done:  E(RB-LYP) =  -3007.39003771     A.U. after   21 cycles

 Excitation energies and oscillator strengths:

 Excited State   1:      Singlet-A      1.8041 eV  687.25 nm  f=0.0510  <S**2>=0.000
     244 -> 247        0.64717
     246 -> 247       -0.26781
 This state for optimization and/or second-order correction.
 Total Energy, E(TD-HF/TD-DFT) =  -3007.32373989
 Copying the excited state density for this state as the 1-particle RhoCI density.

 Excited State   2:      Singlet-A      1.8285 eV  678.05 nm  f=0.2676  <S**2>=0.000
     243 -> 247        0.12477
     244 -> 247        0.27722
     245 -> 248       -0.16081
     246 -> 247        0.62379
     246 <- 247       -0.13538

 Excited State   3:      Singlet-A      1.8799 eV  659.52 nm  f=0.0161  <S**2>=0.000
     243 -> 247        0.68739
     246 -> 247       -0.13028

 Excited State   4:      Singlet-A      2.0538 eV  603.68 nm  f=0.0538  <S**2>=0.000
     245 -> 247        0.63392
     246 -> 248        0.23470
     246 -> 249        0.12176

 Excited State   5:      Singlet-A      2.1791 eV  568.96 nm  f=0.0002  <S**2>=0.000
     242 -> 247        0.70705

 The electronic state is 1-A.
 Alpha  occ. eigenvalues --  -46.27492 -18.84056 -18.81152 -18.76577 -18.76485
 Alpha  occ. eigenvalues --  -18.76003 -18.75748 -14.03859 -14.03370 -14.01956
 Alpha  occ. eigenvalues --  -14.00957 -10.04507 -10.03956 -10.00974  -9.99885
 Alpha  occ. eigenvalues --   -9.98429  -9.97327  -9.97217  -9.97026  -9.96881
 Alpha  occ. eigenvalues --   -9.96766  -9.96673  -9.96626  -9.95899  -9.94840
 Alpha  occ. eigenvalues --   -9.94719  -9.94622  -9.94478  -9.94289  -9.94287
 Alpha  occ. eigenvalues --   -9.94127  -9.93951  -9.93671  -9.93487  -9.93483
 Alpha  occ. eigenvalues --   -9.93376  -9.93290  -9.93249  -9.93237  -9.93204
 Alpha  occ. eigenvalues --   -9.93063  -9.92899  -9.92721  -9.92653  -9.92476
 Alpha  occ. eigenvalues --   -9.92374  -9.92228  -9.92205  -9.91973  -9.91668
 Alpha  occ. eigenvalues --   -9.91528  -9.91510  -9.91401  -9.91304  -9.91304
 Alpha  occ. eigenvalues --   -9.91184  -9.91124  -9.91080  -9.91031  -9.91007
 Alpha  occ. eigenvalues --   -9.90953  -9.90849  -9.90819  -9.90723  -9.90484
 Alpha  occ. eigenvalues --   -9.90350  -2.92149  -1.72576  -1.72013  -1.71877
 Alpha  occ. eigenvalues --   -0.99853  -0.97667  -0.90113  -0.89844  -0.89660
 Alpha  occ. eigenvalues --   -0.88217  -0.87586  -0.86873  -0.85417  -0.84658
 Alpha  occ. eigenvalues --   -0.76301  -0.74149  -0.73287  -0.72957  -0.72440
 Alpha  occ. eigenvalues --   -0.72113  -0.71486  -0.71309  -0.70557  -0.70292
 Alpha  occ. eigenvalues --   -0.69746  -0.69445  -0.68154  -0.67729  -0.67343
 Alpha  occ. eigenvalues --   -0.66597  -0.66328  -0.66064  -0.65454  -0.64786
 Alpha  occ. eigenvalues --   -0.63815  -0.62746  -0.62386  -0.62000  -0.61155
 Alpha  occ. eigenvalues --   -0.60617  -0.60478  -0.59906  -0.59416  -0.58862
 Alpha  occ. eigenvalues --   -0.58323  -0.57832  -0.57375  -0.55925  -0.55440
 Alpha  occ. eigenvalues --   -0.54490  -0.53777  -0.52700  -0.52559  -0.52320
 Alpha  occ. eigenvalues --   -0.51765  -0.51329  -0.50810  -0.50752  -0.50483
 Alpha  occ. eigenvalues --   -0.49933  -0.49369  -0.48980  -0.48730  -0.46854
 Alpha  occ. eigenvalues --   -0.46383  -0.46272  -0.45931  -0.45626  -0.44866
 Alpha  occ. eigenvalues --   -0.44667  -0.44112  -0.43680  -0.43027  -0.42737
 Alpha  occ. eigenvalues --   -0.42251  -0.42095  -0.41865  -0.41301  -0.40928
 Alpha  occ. eigenvalues --   -0.40740  -0.40536  -0.40182  -0.40061  -0.39765
 Alpha  occ. eigenvalues --   -0.39707  -0.39552  -0.39388  -0.39143  -0.39078
 Alpha  occ. eigenvalues --   -0.38837  -0.38691  -0.38614  -0.38550  -0.38502
 Alpha  occ. eigenvalues --   -0.38196  -0.37938  -0.37805  -0.37629  -0.37469
 Alpha  occ. eigenvalues --   -0.37272  -0.37070  -0.36903  -0.36797  -0.36655
 Alpha  occ. eigenvalues --   -0.36386  -0.36177  -0.35973  -0.35600  -0.35501
 Alpha  occ. eigenvalues --   -0.35414  -0.35340  -0.35179  -0.35136  -0.34889
 Alpha  occ. eigenvalues --   -0.34767  -0.34501  -0.34457  -0.34431  -0.34278
 Alpha  occ. eigenvalues --   -0.33886  -0.33748  -0.33723  -0.33536  -0.33339
 Alpha  occ. eigenvalues --   -0.32830  -0.32808  -0.32586  -0.32371  -0.32296
 Alpha  occ. eigenvalues --   -0.32166  -0.31922  -0.31663  -0.31410  -0.31233
 Alpha  occ. eigenvalues --   -0.31196  -0.31004  -0.30982  -0.30682  -0.30599
 Alpha  occ. eigenvalues --   -0.30357  -0.30337  -0.30254  -0.29977  -0.29856
 Alpha  occ. eigenvalues --   -0.29755  -0.29621  -0.29493  -0.29215  -0.29100
 Alpha  occ. eigenvalues --   -0.28879  -0.28774  -0.28535  -0.28171  -0.28076
 Alpha  occ. eigenvalues --   -0.27933  -0.27334  -0.27148  -0.26665  -0.26514
 Alpha  occ. eigenvalues --   -0.26290  -0.25937  -0.25814  -0.25748  -0.25682
 Alpha  occ. eigenvalues --   -0.25436  -0.24661  -0.24530  -0.24088  -0.23916
 Alpha  occ. eigenvalues --   -0.23524  -0.23002  -0.21916  -0.21507  -0.21257
 Alpha  occ. eigenvalues --   -0.20954  -0.19930  -0.18719  -0.18493  -0.17979
 Alpha  occ. eigenvalues --   -0.16246
 Alpha virt. eigenvalues --   -0.11923  -0.07666  -0.06646  -0.05407  -0.03133
 Alpha virt. eigenvalues --   -0.02676  -0.02437  -0.02029  -0.01478  -0.00372
 Alpha virt. eigenvalues --    0.00692   0.01277   0.01747   0.02349   0.02915

 Mulliken charges:
               1
     1  Mg   0.696309
     2  C    0.029619
     3  C   -0.035193
     4  C   -0.046952
     5  C   -0.082469
     6  N   -0.224828
     7  C   -0.107866
     8  C   -0.008238
     9  C    0.007048
    10  C    0.064386
    11  C    0.121197
    12  C    0.077229
    13  C    0.131082
    14  C    0.095057
    15  O   -0.179038
    16  O   -0.267183
    17  N   -0.326509
    18  C    0.092783
    19  C   -0.126799
    20  C    0.018475
    21  C    0.186900
    22  C    0.188636
    23  C   -0.046242
    24  O   -0.220159
    25  C    0.139524
    26  N   -0.232491
    27  C   -0.003343
    28  C    0.051514
    29  C    0.047065
    30  C   -0.008842
    31  C    0.097483
    32  C    0.093675
    33  C    0.039778
    34  N   -0.195113
    35  C    0.112192
    36  C   -0.208529
    37  C    0.124429
    38  C    0.080613
    39  C    0.174986
    40  C   -0.026448
    41  O   -0.151519
    42  C    0.030732
    43  C    0.100097
    44  O   -0.196443
    45  O   -0.223986
    46  C    0.216004
    47  C    0.351983
    48  C   -0.098734
    49  C   -0.158302
    50  C    0.187223
    51  C    0.124658
    52  C    0.088298
    53  C    0.093636
    54  C   -0.095874
    55  C    0.083323
    56  C    0.126502
    57  C    0.008423
    58  C    0.140855
    59  C   -0.039427
    60  C    0.083816
    61  C    0.101025
    62  C    0.043796
    63  C    0.087655
    64  C   -0.089024
    65  C    0.091699
    66  C    0.108159
    67  H   -0.065517
    68  H   -0.086665
    69  H   -0.054751
    70  H   -0.014350
    71  H   -0.028507
    72  H    0.004097
    73  H   -0.003738
    74  H   -0.020961
    75  H    0.005776
    76  H   -0.019978
    77  H   -0.010937
    78  H   -0.004224
    79  H    0.015002
    80  H   -0.041710
    81  H    0.017065
    82  H    0.006762
    83  H    0.027626
    84  H    0.005902
    85  H   -0.020542
    86  H   -0.030053
    87  H   -0.014990
    88  H   -0.010489
    89  H    0.001228
    90  H   -0.012355
    91  H   -0.025085
    92  H   -0.008545
    93  H   -0.010696
    94  H    0.003040
    95  H    0.010805
    96  H    0.013321
    97  H   -0.017277
    98  H    0.012643
    99  H   -0.007914
   100  H    0.023662
   101  H    0.018529
   102  H    0.001678
   103  H   -0.030621
   104  H   -0.045874
   105  H   -0.020859
   106  H   -0.013238
   107  H   -0.001868
   108  H   -0.049310
   109  H   -0.027427
   110  H   -0.019306
   111  H   -0.022805
   112  H   -0.025825
   113  H   -0.038809
   114  H   -0.030503
   115  H   -0.006137
   116  H   -0.024270
   117  H   -0.027682
   118  H   -0.018369
   119  H   -0.032691
   120  H   -0.027247
   121  H   -0.026165
   122  H   -0.041516
   123  H   -0.029161
   124  H   -0.031480
   125  H   -0.033673
   126  H   -0.008225
   127  H   -0.018179
   128  H   -0.028017
   129  H   -0.032100
   130  H   -0.037294
   131  H   -0.038910
   132  H   -0.034953
   133  H   -0.023344
   134  H   -0.034207
   135  H   -0.022758
   136  H   -0.027455
   137  H   -0.014899
   138  H   -0.018579
   139  H   -0.023767
   140  H   -0.008646
 Sum of Mulliken charges =  -0.00000

 Dipole moment (field-independent basis, Debye):
    X=             -0.2275    Y=              4.2820    Z=              0.9625  Tot=              4.3947
 Quadrupole moment (field-independent basis, Debye-Ang):
   XX=           -396.2955   YY=           -434.9593   ZZ=           -394.5269
   XY=            -56.7413   XZ=            -16.7103   YZ=            -41.7646

 Normal termination of Gaussian 16 at Sun May  1 00:41:41 2022.
