 Gaussian 16, Revision A.03,
 Gaussian 16:  ES64L-G16RevA.03 25-Dec-2016

 -----------------------------------
 #p cam-b3lyp/Def2SVP td=(nstates=5)
 -----------------------------------

 ------------------------------------------------------
 step_951_chromophore_2 TDDFT with cam-b3lyp functional
 ------------------------------------------------------
 Symbolic Z-matrix:
 Charge =  0 Multiplicity = 1

                         Standard orientation:
 ---------------------------------------------------------------------
 Center     Atomic      Atomic             Coordinates (Angstroms)
 Number     Number       Type             X           Y           Z
 ---------------------------------------------------------------------
      1         12           0       -4.662732    1.294772    0.647503
      2          6           0       -5.178750   -2.215132    0.365005
      3          6           0       -2.289372    0.685664    2.945203
      4          6           0       -3.714199    4.403041    0.239055
      5          6           0       -7.011801    1.632724   -1.962171
      6          7           0       -3.832588   -0.587282    1.519604
      7          6           0       -4.149011   -1.877356    1.224315
      8          6           0       -3.207807   -2.910612    2.003155
      9          6           0       -2.513880   -1.920711    3.013404
     10          6           0       -2.784352   -0.512120    2.463770
     11          6           0       -2.821079   -2.145632    4.527926
     12          6           0       -2.256023   -3.760310    1.093475
     13          6           0       -1.597073   -2.938862   -0.007333
     14          6           0       -0.599394   -3.702731   -0.881390
     15          8           0       -0.758771   -4.171582   -1.998735
     16          8           0        0.593213   -3.803205   -0.207272
     17          7           0       -3.273008    2.444495    1.561081
     18          6           0       -2.406038    2.062613    2.543555
     19          6           0       -1.543193    3.187127    2.998196
     20          6           0       -2.039688    4.303425    2.279754
     21          6           0       -3.076296    3.798674    1.279514
     22          6           0       -0.585211    3.122381    4.150123
     23          6           0       -1.619989    5.821356    2.481638
     24          8           0       -0.697198    6.136063    3.322292
     25          6           0       -2.333819    6.940998    1.732336
     26          7           0       -5.154648    2.761013   -0.794470
     27          6           0       -4.666205    3.999718   -0.652054
     28          6           0       -5.153611    4.843824   -1.815142
     29          6           0       -6.158112    3.939175   -2.575540
     30          6           0       -6.153491    2.685329   -1.718988
     31          6           0       -5.756895    6.294129   -1.499179
     32          6           0       -5.965595    3.669580   -4.094019
     33          6           0       -7.051755    4.290938   -5.060837
     34          7           0       -5.955611   -0.010325   -0.493057
     35          6           0       -6.880387    0.332986   -1.410786
     36          6           0       -7.552758   -0.910214   -1.823547
     37          6           0       -6.908801   -1.938164   -1.157253
     38          6           0       -5.941586   -1.342631   -0.351033
     39          6           0       -8.630999   -0.987200   -2.884723
     40          6           0       -6.899760   -3.360528   -0.971345
     41          8           0       -7.552780   -4.260194   -1.542265
     42          6           0       -5.613852   -3.608241   -0.054718
     43          6           0       -6.017035   -4.394091    1.249191
     44          8           0       -5.618565   -5.554152    1.401186
     45          8           0       -6.721853   -3.659557    2.113337
     46          6           0       -7.038326   -4.284347    3.364015
     47          6           0        1.688252   -4.548331   -0.722304
     48          6           0        2.798283   -3.530435   -0.767177
     49          6           0        3.267634   -2.843495   -1.830080
     50          6           0        2.849773   -3.036451   -3.214817
     51          6           0        4.372819   -1.874445   -1.617775
     52          6           0        5.776205   -2.396992   -1.874759
     53          6           0        6.514448   -1.428104   -2.820103
     54          6           0        7.115272   -0.187576   -2.062939
     55          6           0        7.237783    1.065456   -3.052993
     56          6           0        8.495578   -0.481700   -1.430977
     57          6           0        8.419205   -0.613456    0.174214
     58          6           0        9.361580    0.418429    0.931715
     59          6           0       10.831668    0.017738    0.914764
     60          6           0       11.382418   -0.478254    2.257831
     61          6           0       11.798193    1.151431    0.339421
     62          6           0       12.943271    0.642634   -0.533634
     63          6           0       14.288640    0.268786    0.228014
     64          6           0       15.569320    1.045006   -0.256114
     65          6           0       16.849244    0.208359   -0.314130
     66          6           0       15.814208    2.382785    0.459551
     67          1           0       -1.469051    0.580406    3.657292
     68          1           0       -3.454509    5.427096   -0.037072
     69          1           0       -7.816294    1.834188   -2.671639
     70          1           0       -3.715959   -3.684882    2.579063
     71          1           0       -1.466482   -2.222066    3.049999
     72          1           0       -1.975326   -1.927926    5.179472
     73          1           0       -3.310397   -3.117983    4.588864
     74          1           0       -3.554383   -1.405514    4.848176
     75          1           0       -2.769776   -4.647341    0.721856
     76          1           0       -1.482018   -4.101635    1.780439
     77          1           0       -1.216627   -2.051758    0.498938
     78          1           0       -2.368622   -2.516359   -0.651436
     79          1           0        0.371783    3.522755    3.816226
     80          1           0       -0.420445    2.081834    4.430322
     81          1           0       -0.915484    3.546935    5.098606
     82          1           0       -3.390782    6.684125    1.804656
     83          1           0       -2.051601    6.777992    0.692654
     84          1           0       -2.174237    7.965111    2.069767
     85          1           0       -4.369407    5.043163   -2.545294
     86          1           0       -7.193528    4.256376   -2.454178
     87          1           0       -6.522545    6.573383   -2.222999
     88          1           0       -5.097731    7.146340   -1.668124
     89          1           0       -6.180478    6.284182   -0.495168
     90          1           0       -5.910911    2.605291   -4.317354
     91          1           0       -5.014940    4.074979   -4.441317
     92          1           0       -7.873890    3.606450   -5.269133
     93          1           0       -6.659419    4.412099   -6.070525
     94          1           0       -7.413827    5.222878   -4.627251
     95          1           0       -9.645511   -0.925160   -2.490435
     96          1           0       -8.461043   -1.915530   -3.429207
     97          1           0       -8.447297   -0.123562   -3.524232
     98          1           0       -4.871648   -4.209520   -0.580243
     99          1           0       -6.229165   -4.037135    4.051994
    100          1           0       -7.028396   -5.373446    3.355602
    101          1           0       -7.911946   -3.911572    3.899298
    102          1           0        1.505947   -5.080871   -1.656049
    103          1           0        1.931325   -5.291735    0.037421
    104          1           0        3.464936   -3.465046    0.094056
    105          1           0        2.163107   -3.882145   -3.220563
    106          1           0        3.680468   -3.396847   -3.821270
    107          1           0        2.468271   -2.127872   -3.681079
    108          1           0        4.410263   -1.586485   -0.567301
    109          1           0        4.187298   -0.886717   -2.039901
    110          1           0        5.843288   -3.368206   -2.366215
    111          1           0        6.242443   -2.418322   -0.889900
    112          1           0        5.854089   -0.965577   -3.554405
    113          1           0        7.335424   -2.012092   -3.235065
    114          1           0        6.326237    0.103879   -1.369436
    115          1           0        6.400316    1.763569   -3.047647
    116          1           0        7.419579    0.663415   -4.050259
    117          1           0        8.164903    1.621487   -2.911560
    118          1           0        9.245284    0.287696   -1.615824
    119          1           0        8.847604   -1.452962   -1.778663
    120          1           0        8.701938   -1.635649    0.426612
    121          1           0        7.391671   -0.476535    0.512073
    122          1           0        9.021700    0.489959    1.964594
    123          1           0        9.173930    1.384366    0.461529
    124          1           0       11.031164   -0.876870    0.324550
    125          1           0       11.576598    0.379306    2.903147
    126          1           0       12.363553   -0.942210    2.157411
    127          1           0       10.693405   -1.062414    2.866855
    128          1           0       12.225552    1.697196    1.180115
    129          1           0       11.342608    1.860472   -0.352216
    130          1           0       13.220780    1.317247   -1.344221
    131          1           0       12.635947   -0.250693   -1.075634
    132          1           0       14.423110   -0.804091    0.091849
    133          1           0       14.147766    0.474353    1.288810
    134          1           0       15.440499    1.319136   -1.302875
    135          1           0       16.891092   -0.227489   -1.312424
    136          1           0       16.879176   -0.711061    0.271313
    137          1           0       17.749169    0.756076   -0.033700
    138          1           0       16.783217    2.436210    0.955815
    139          1           0       15.104854    2.520966    1.275119
    140          1           0       15.688867    3.163673   -0.290840
 ---------------------------------------------------------------------

 SCF Done:  E(RCAM-B3LYP) =  -3007.17794472     A.U. after   17 cycles

 Excitation energies and oscillator strengths:

 Excited State   1:      Singlet-A      1.7340 eV  715.03 nm  f=0.3979  <S**2>=0.000
     245 -> 248       -0.17601
     246 -> 247        0.68578
     245 <- 248       -0.10472
 This state for optimization and/or second-order correction.
 Total Energy, E(TD-HF/TD-DFT) =  -3007.11422203
 Copying the excited state density for this state as the 1-particle RhoCI density.

 Excited State   2:      Singlet-A      2.3033 eV  538.29 nm  f=0.0637  <S**2>=0.000
     245 -> 247        0.61643
     246 -> 248        0.33181

 Excited State   3:      Singlet-A      3.3650 eV  368.45 nm  f=0.0011  <S**2>=0.000
     240 -> 247       -0.22975
     240 -> 249        0.14137
     240 -> 250        0.10622
     241 -> 247        0.46041
     241 -> 249       -0.27974
     241 -> 250       -0.19676
     242 -> 247       -0.14394
     243 -> 247       -0.16045

 Excited State   4:      Singlet-A      3.4390 eV  360.52 nm  f=0.0872  <S**2>=0.000
     240 -> 247        0.19913
     240 -> 248       -0.13906
     240 -> 249        0.19768
     240 -> 250       -0.17181
     241 -> 247        0.19480
     241 -> 249        0.12361
     241 -> 250       -0.12937
     242 -> 247        0.34155
     242 -> 248       -0.10915
     242 -> 249        0.17628
     242 -> 250       -0.14898
     245 -> 247       -0.11818
     246 -> 248        0.25225

 Excited State   5:      Singlet-A      3.4646 eV  357.86 nm  f=0.3225  <S**2>=0.000
     240 -> 247       -0.20212
     243 -> 247        0.37955
     245 -> 247       -0.22178
     246 -> 248        0.45760

 The electronic state is 1-A.
 Alpha  occ. eigenvalues --  -46.89084 -19.27058 -19.23880 -19.19704 -19.19447
 Alpha  occ. eigenvalues --  -19.19346 -19.18934 -14.42863 -14.42182 -14.40552
 Alpha  occ. eigenvalues --  -14.39409 -10.40029 -10.39267 -10.36313 -10.35416
 Alpha  occ. eigenvalues --  -10.32420 -10.31661 -10.31621 -10.31369 -10.31282
 Alpha  occ. eigenvalues --  -10.31179 -10.31092 -10.30948 -10.30252 -10.29218
 Alpha  occ. eigenvalues --  -10.29043 -10.28886 -10.28793 -10.28676 -10.28467
 Alpha  occ. eigenvalues --  -10.28433 -10.28240 -10.27851 -10.27534 -10.27523
 Alpha  occ. eigenvalues --  -10.27416 -10.27304 -10.27234 -10.27141 -10.27066
 Alpha  occ. eigenvalues --  -10.26964 -10.26776 -10.26746 -10.26330 -10.26251
 Alpha  occ. eigenvalues --  -10.26228 -10.26175 -10.25961 -10.25688 -10.25366
 Alpha  occ. eigenvalues --  -10.25224 -10.25117 -10.25092 -10.25018 -10.24955
 Alpha  occ. eigenvalues --  -10.24834 -10.24826 -10.24816 -10.24802 -10.24797
 Alpha  occ. eigenvalues --  -10.24636 -10.24635 -10.24432 -10.24325 -10.24055
 Alpha  occ. eigenvalues --  -10.23929  -3.17645  -1.92548  -1.92079  -1.91965
 Alpha  occ. eigenvalues --   -1.18404  -1.16054  -1.08496  -1.08003  -1.07505
 Alpha  occ. eigenvalues --   -1.06438  -1.05371  -1.04572  -1.03050  -1.02201
 Alpha  occ. eigenvalues --   -0.93545  -0.91009  -0.90043  -0.89744  -0.89199
 Alpha  occ. eigenvalues --   -0.88713  -0.88122  -0.87947  -0.87104  -0.86878
 Alpha  occ. eigenvalues --   -0.86331  -0.85829  -0.84338  -0.83880  -0.83509
 Alpha  occ. eigenvalues --   -0.82635  -0.82395  -0.81978  -0.81312  -0.80653
 Alpha  occ. eigenvalues --   -0.79593  -0.78376  -0.78025  -0.77617  -0.76693
 Alpha  occ. eigenvalues --   -0.75951  -0.75783  -0.75260  -0.74703  -0.74089
 Alpha  occ. eigenvalues --   -0.73406  -0.72807  -0.72310  -0.70745  -0.70047
 Alpha  occ. eigenvalues --   -0.69151  -0.68330  -0.67146  -0.67025  -0.66371
 Alpha  occ. eigenvalues --   -0.65641  -0.65555  -0.64979  -0.64872  -0.64365
 Alpha  occ. eigenvalues --   -0.63751  -0.63281  -0.62920  -0.62575  -0.60515
 Alpha  occ. eigenvalues --   -0.60001  -0.59750  -0.59454  -0.58979  -0.58262
 Alpha  occ. eigenvalues --   -0.58147  -0.57722  -0.56925  -0.56349  -0.55883
 Alpha  occ. eigenvalues --   -0.55336  -0.55246  -0.54690  -0.54349  -0.54018
 Alpha  occ. eigenvalues --   -0.53560  -0.53297  -0.53240  -0.52701  -0.52422
 Alpha  occ. eigenvalues --   -0.52294  -0.52051  -0.51965  -0.51899  -0.51659
 Alpha  occ. eigenvalues --   -0.51562  -0.51392  -0.51108  -0.50937  -0.50829
 Alpha  occ. eigenvalues --   -0.50782  -0.50210  -0.50050  -0.49915  -0.49775
 Alpha  occ. eigenvalues --   -0.49455  -0.49395  -0.49214  -0.49051  -0.48670
 Alpha  occ. eigenvalues --   -0.48603  -0.48550  -0.48295  -0.48027  -0.47700
 Alpha  occ. eigenvalues --   -0.47459  -0.47397  -0.47128  -0.47046  -0.46864
 Alpha  occ. eigenvalues --   -0.46685  -0.46557  -0.46425  -0.46296  -0.46130
 Alpha  occ. eigenvalues --   -0.45913  -0.45825  -0.45465  -0.45373  -0.44997
 Alpha  occ. eigenvalues --   -0.44778  -0.44390  -0.44200  -0.43967  -0.43902
 Alpha  occ. eigenvalues --   -0.43665  -0.43462  -0.43319  -0.43170  -0.42921
 Alpha  occ. eigenvalues --   -0.42817  -0.42473  -0.42316  -0.42175  -0.41945
 Alpha  occ. eigenvalues --   -0.41876  -0.41739  -0.41540  -0.41258  -0.41123
 Alpha  occ. eigenvalues --   -0.40938  -0.40755  -0.40693  -0.40474  -0.40419
 Alpha  occ. eigenvalues --   -0.40018  -0.39921  -0.39609  -0.39179  -0.39088
 Alpha  occ. eigenvalues --   -0.38859  -0.38250  -0.38124  -0.37622  -0.37339
 Alpha  occ. eigenvalues --   -0.37111  -0.36970  -0.36883  -0.36539  -0.36407
 Alpha  occ. eigenvalues --   -0.36052  -0.35121  -0.35104  -0.34689  -0.34379
 Alpha  occ. eigenvalues --   -0.34336  -0.34043  -0.33523  -0.31928  -0.30990
 Alpha  occ. eigenvalues --   -0.30909  -0.30611  -0.30340  -0.29512  -0.24903
 Alpha  occ. eigenvalues --   -0.21477
 Alpha virt. eigenvalues --   -0.08931  -0.02498  -0.00266   0.01496   0.02142
 Alpha virt. eigenvalues --    0.04561   0.04930   0.05401   0.06037   0.06534
 Alpha virt. eigenvalues --    0.07420   0.08044   0.08269   0.08599   0.09159

 Mulliken charges:
               1
     1  Mg   0.828598
     2  C   -0.003988
     3  C   -0.050527
     4  C   -0.073869
     5  C   -0.094281
     6  N   -0.291498
     7  C   -0.066009
     8  C   -0.049641
     9  C   -0.046343
    10  C    0.074925
    11  C    0.067528
    12  C    0.031845
    13  C    0.058410
    14  C    0.178817
    15  O   -0.221117
    16  O   -0.331598
    17  N   -0.413248
    18  C    0.101431
    19  C   -0.131954
    20  C   -0.041654
    21  C    0.207428
    22  C    0.134450
    23  C    0.031518
    24  O   -0.259486
    25  C    0.058173
    26  N   -0.308613
    27  C    0.023665
    28  C   -0.008971
    29  C   -0.012378
    30  C    0.019949
    31  C    0.042128
    32  C    0.034517
    33  C   -0.016376
    34  N   -0.285607
    35  C    0.119832
    36  C   -0.201436
    37  C    0.041464
    38  C    0.117847
    39  C    0.127215
    40  C    0.074962
    41  O   -0.188578
    42  C   -0.038392
    43  C    0.186661
    44  O   -0.236456
    45  O   -0.284038
    46  C    0.174563
    47  C    0.309880
    48  C   -0.118727
    49  C   -0.175774
    50  C    0.123873
    51  C    0.061451
    52  C    0.036014
    53  C    0.037865
    54  C   -0.150131
    55  C    0.027883
    56  C    0.074707
    57  C   -0.037360
    58  C    0.084065
    59  C   -0.099252
    60  C    0.030167
    61  C    0.046703
    62  C   -0.006173
    63  C    0.034391
    64  C   -0.148163
    65  C    0.032638
    66  C    0.048955
    67  H   -0.032900
    68  H   -0.050401
    69  H   -0.019255
    70  H    0.018241
    71  H    0.007142
    72  H    0.027539
    73  H    0.017861
    74  H    0.005570
    75  H    0.033639
    76  H    0.011874
    77  H    0.023396
    78  H    0.027647
    79  H    0.042500
    80  H   -0.015693
    81  H    0.043770
    82  H    0.033213
    83  H    0.051226
    84  H    0.040671
    85  H    0.014998
    86  H    0.005295
    87  H    0.008952
    88  H    0.013589
    89  H    0.025039
    90  H    0.018371
    91  H    0.003781
    92  H    0.013178
    93  H    0.014554
    94  H    0.022343
    95  H    0.037432
    96  H    0.040140
    97  H    0.005499
    98  H    0.053475
    99  H    0.012136
   100  H    0.051200
   101  H    0.042513
   102  H    0.034210
   103  H   -0.000036
   104  H   -0.012936
   105  H    0.003920
   106  H    0.010804
   107  H    0.023238
   108  H   -0.016528
   109  H    0.001729
   110  H    0.009269
   111  H    0.003344
   112  H    0.002689
   113  H   -0.009387
   114  H   -0.001239
   115  H    0.017492
   116  H   -0.000189
   117  H   -0.003111
   118  H    0.005923
   119  H   -0.004262
   120  H   -0.001280
   121  H   -0.000392
   122  H   -0.010919
   123  H   -0.000706
   124  H   -0.001578
   125  H   -0.009772
   126  H    0.014413
   127  H    0.007460
   128  H   -0.002343
   129  H   -0.003241
   130  H   -0.007944
   131  H   -0.010076
   132  H   -0.005587
   133  H    0.000845
   134  H   -0.002607
   135  H    0.001297
   136  H   -0.002808
   137  H    0.009436
   138  H    0.005806
   139  H   -0.001072
   140  H    0.014721
 Sum of Mulliken charges =  -0.00000

 Dipole moment (field-independent basis, Debye):
    X=             -0.3267    Y=              4.5095    Z=              1.0823  Tot=              4.6491
 Quadrupole moment (field-independent basis, Debye-Ang):
   XX=           -394.2641   YY=           -432.4055   ZZ=           -392.9172
   XY=            -58.4930   XZ=            -16.4178   YZ=            -43.6986

 Normal termination of Gaussian 16 at Sat Apr 30 23:37:46 2022.
