 Gaussian 16, Revision A.03,
 Gaussian 16:  ES64L-G16RevA.03 25-Dec-2016

 ---------------------------------
 #p PBE1PBE/Def2SVP td=(nstates=5)
 ---------------------------------

 ----------------------------------------------------
 step_951_chromophore_2 TDDFT with PBE1PBE functional
 ----------------------------------------------------
 Symbolic Z-matrix:
 Charge =  0 Multiplicity = 1

                         Standard orientation:
 ---------------------------------------------------------------------
 Center     Atomic      Atomic             Coordinates (Angstroms)
 Number     Number       Type             X           Y           Z
 ---------------------------------------------------------------------
      1         12           0       -4.662732    1.294772    0.647503
      2          6           0       -5.178750   -2.215132    0.365005
      3          6           0       -2.289372    0.685664    2.945203
      4          6           0       -3.714199    4.403041    0.239055
      5          6           0       -7.011801    1.632724   -1.962171
      6          7           0       -3.832588   -0.587282    1.519604
      7          6           0       -4.149011   -1.877356    1.224315
      8          6           0       -3.207807   -2.910612    2.003155
      9          6           0       -2.513880   -1.920711    3.013404
     10          6           0       -2.784352   -0.512120    2.463770
     11          6           0       -2.821079   -2.145632    4.527926
     12          6           0       -2.256023   -3.760310    1.093475
     13          6           0       -1.597073   -2.938862   -0.007333
     14          6           0       -0.599394   -3.702731   -0.881390
     15          8           0       -0.758771   -4.171582   -1.998735
     16          8           0        0.593213   -3.803205   -0.207272
     17          7           0       -3.273008    2.444495    1.561081
     18          6           0       -2.406038    2.062613    2.543555
     19          6           0       -1.543193    3.187127    2.998196
     20          6           0       -2.039688    4.303425    2.279754
     21          6           0       -3.076296    3.798674    1.279514
     22          6           0       -0.585211    3.122381    4.150123
     23          6           0       -1.619989    5.821356    2.481638
     24          8           0       -0.697198    6.136063    3.322292
     25          6           0       -2.333819    6.940998    1.732336
     26          7           0       -5.154648    2.761013   -0.794470
     27          6           0       -4.666205    3.999718   -0.652054
     28          6           0       -5.153611    4.843824   -1.815142
     29          6           0       -6.158112    3.939175   -2.575540
     30          6           0       -6.153491    2.685329   -1.718988
     31          6           0       -5.756895    6.294129   -1.499179
     32          6           0       -5.965595    3.669580   -4.094019
     33          6           0       -7.051755    4.290938   -5.060837
     34          7           0       -5.955611   -0.010325   -0.493057
     35          6           0       -6.880387    0.332986   -1.410786
     36          6           0       -7.552758   -0.910214   -1.823547
     37          6           0       -6.908801   -1.938164   -1.157253
     38          6           0       -5.941586   -1.342631   -0.351033
     39          6           0       -8.630999   -0.987200   -2.884723
     40          6           0       -6.899760   -3.360528   -0.971345
     41          8           0       -7.552780   -4.260194   -1.542265
     42          6           0       -5.613852   -3.608241   -0.054718
     43          6           0       -6.017035   -4.394091    1.249191
     44          8           0       -5.618565   -5.554152    1.401186
     45          8           0       -6.721853   -3.659557    2.113337
     46          6           0       -7.038326   -4.284347    3.364015
     47          6           0        1.688252   -4.548331   -0.722304
     48          6           0        2.798283   -3.530435   -0.767177
     49          6           0        3.267634   -2.843495   -1.830080
     50          6           0        2.849773   -3.036451   -3.214817
     51          6           0        4.372819   -1.874445   -1.617775
     52          6           0        5.776205   -2.396992   -1.874759
     53          6           0        6.514448   -1.428104   -2.820103
     54          6           0        7.115272   -0.187576   -2.062939
     55          6           0        7.237783    1.065456   -3.052993
     56          6           0        8.495578   -0.481700   -1.430977
     57          6           0        8.419205   -0.613456    0.174214
     58          6           0        9.361580    0.418429    0.931715
     59          6           0       10.831668    0.017738    0.914764
     60          6           0       11.382418   -0.478254    2.257831
     61          6           0       11.798193    1.151431    0.339421
     62          6           0       12.943271    0.642634   -0.533634
     63          6           0       14.288640    0.268786    0.228014
     64          6           0       15.569320    1.045006   -0.256114
     65          6           0       16.849244    0.208359   -0.314130
     66          6           0       15.814208    2.382785    0.459551
     67          1           0       -1.469051    0.580406    3.657292
     68          1           0       -3.454509    5.427096   -0.037072
     69          1           0       -7.816294    1.834188   -2.671639
     70          1           0       -3.715959   -3.684882    2.579063
     71          1           0       -1.466482   -2.222066    3.049999
     72          1           0       -1.975326   -1.927926    5.179472
     73          1           0       -3.310397   -3.117983    4.588864
     74          1           0       -3.554383   -1.405514    4.848176
     75          1           0       -2.769776   -4.647341    0.721856
     76          1           0       -1.482018   -4.101635    1.780439
     77          1           0       -1.216627   -2.051758    0.498938
     78          1           0       -2.368622   -2.516359   -0.651436
     79          1           0        0.371783    3.522755    3.816226
     80          1           0       -0.420445    2.081834    4.430322
     81          1           0       -0.915484    3.546935    5.098606
     82          1           0       -3.390782    6.684125    1.804656
     83          1           0       -2.051601    6.777992    0.692654
     84          1           0       -2.174237    7.965111    2.069767
     85          1           0       -4.369407    5.043163   -2.545294
     86          1           0       -7.193528    4.256376   -2.454178
     87          1           0       -6.522545    6.573383   -2.222999
     88          1           0       -5.097731    7.146340   -1.668124
     89          1           0       -6.180478    6.284182   -0.495168
     90          1           0       -5.910911    2.605291   -4.317354
     91          1           0       -5.014940    4.074979   -4.441317
     92          1           0       -7.873890    3.606450   -5.269133
     93          1           0       -6.659419    4.412099   -6.070525
     94          1           0       -7.413827    5.222878   -4.627251
     95          1           0       -9.645511   -0.925160   -2.490435
     96          1           0       -8.461043   -1.915530   -3.429207
     97          1           0       -8.447297   -0.123562   -3.524232
     98          1           0       -4.871648   -4.209520   -0.580243
     99          1           0       -6.229165   -4.037135    4.051994
    100          1           0       -7.028396   -5.373446    3.355602
    101          1           0       -7.911946   -3.911572    3.899298
    102          1           0        1.505947   -5.080871   -1.656049
    103          1           0        1.931325   -5.291735    0.037421
    104          1           0        3.464936   -3.465046    0.094056
    105          1           0        2.163107   -3.882145   -3.220563
    106          1           0        3.680468   -3.396847   -3.821270
    107          1           0        2.468271   -2.127872   -3.681079
    108          1           0        4.410263   -1.586485   -0.567301
    109          1           0        4.187298   -0.886717   -2.039901
    110          1           0        5.843288   -3.368206   -2.366215
    111          1           0        6.242443   -2.418322   -0.889900
    112          1           0        5.854089   -0.965577   -3.554405
    113          1           0        7.335424   -2.012092   -3.235065
    114          1           0        6.326237    0.103879   -1.369436
    115          1           0        6.400316    1.763569   -3.047647
    116          1           0        7.419579    0.663415   -4.050259
    117          1           0        8.164903    1.621487   -2.911560
    118          1           0        9.245284    0.287696   -1.615824
    119          1           0        8.847604   -1.452962   -1.778663
    120          1           0        8.701938   -1.635649    0.426612
    121          1           0        7.391671   -0.476535    0.512073
    122          1           0        9.021700    0.489959    1.964594
    123          1           0        9.173930    1.384366    0.461529
    124          1           0       11.031164   -0.876870    0.324550
    125          1           0       11.576598    0.379306    2.903147
    126          1           0       12.363553   -0.942210    2.157411
    127          1           0       10.693405   -1.062414    2.866855
    128          1           0       12.225552    1.697196    1.180115
    129          1           0       11.342608    1.860472   -0.352216
    130          1           0       13.220780    1.317247   -1.344221
    131          1           0       12.635947   -0.250693   -1.075634
    132          1           0       14.423110   -0.804091    0.091849
    133          1           0       14.147766    0.474353    1.288810
    134          1           0       15.440499    1.319136   -1.302875
    135          1           0       16.891092   -0.227489   -1.312424
    136          1           0       16.879176   -0.711061    0.271313
    137          1           0       17.749169    0.756076   -0.033700
    138          1           0       16.783217    2.436210    0.955815
    139          1           0       15.104854    2.520966    1.275119
    140          1           0       15.688867    3.163673   -0.290840
 ---------------------------------------------------------------------

 SCF Done:  E(RPBE1PBE) =  -3005.36637513     A.U. after   15 cycles

 Excitation energies and oscillator strengths:

 Excited State   1:      Singlet-A      1.8825 eV  658.63 nm  f=0.3887  <S**2>=0.000
     245 -> 248       -0.16650
     246 -> 247        0.69347
     246 <- 247       -0.10778
 This state for optimization and/or second-order correction.
 Total Energy, E(TD-HF/TD-DFT) =  -3005.29719618
 Copying the excited state density for this state as the 1-particle RhoCI density.

 Excited State   2:      Singlet-A      2.3027 eV  538.42 nm  f=0.0684  <S**2>=0.000
     245 -> 247        0.63434
     246 -> 248        0.29228

 Excited State   3:      Singlet-A      2.9072 eV  426.47 nm  f=0.0003  <S**2>=0.000
     241 -> 247       -0.15842
     242 -> 247        0.64783
     242 -> 249       -0.17236
     242 -> 250       -0.10428

 Excited State   4:      Singlet-A      2.9836 eV  415.56 nm  f=0.0001  <S**2>=0.000
     243 -> 247        0.64721
     243 -> 248       -0.15003
     243 -> 249        0.16888
     243 -> 250       -0.13371

 Excited State   5:      Singlet-A      3.1700 eV  391.12 nm  f=0.0149  <S**2>=0.000
     241 -> 247        0.64660
     242 -> 247        0.16719
     246 -> 248       -0.18394

 The electronic state is 1-A.
 Alpha  occ. eigenvalues --  -46.92464 -19.27624 -19.24579 -19.19948 -19.19686
 Alpha  occ. eigenvalues --  -19.19521 -19.19218 -14.42361 -14.41712 -14.40185
 Alpha  occ. eigenvalues --  -14.39018 -10.37056 -10.36250 -10.33560 -10.32512
 Alpha  occ. eigenvalues --  -10.29601 -10.29443 -10.29357 -10.29083 -10.28869
 Alpha  occ. eigenvalues --  -10.28806 -10.28722 -10.28647 -10.27915 -10.26918
 Alpha  occ. eigenvalues --  -10.26867 -10.26591 -10.26505 -10.26458 -10.26295
 Alpha  occ. eigenvalues --  -10.26036 -10.25872 -10.25694 -10.25253 -10.25165
 Alpha  occ. eigenvalues --  -10.25005 -10.24952 -10.24889 -10.24575 -10.24572
 Alpha  occ. eigenvalues --  -10.24374 -10.24288 -10.24276 -10.23841 -10.23784
 Alpha  occ. eigenvalues --  -10.23700 -10.23693 -10.23562 -10.23381 -10.23040
 Alpha  occ. eigenvalues --  -10.22804 -10.22670 -10.22667 -10.22650 -10.22508
 Alpha  occ. eigenvalues --  -10.22415 -10.22377 -10.22375 -10.22369 -10.22181
 Alpha  occ. eigenvalues --  -10.22180 -10.22168 -10.21860 -10.21711 -10.21435
 Alpha  occ. eigenvalues --  -10.21319  -3.14604  -1.87448  -1.86957  -1.86847
 Alpha  occ. eigenvalues --   -1.13153  -1.10855  -1.03164  -1.02781  -1.02341
 Alpha  occ. eigenvalues --   -1.01169  -1.00002  -0.99222  -0.97664  -0.96825
 Alpha  occ. eigenvalues --   -0.87877  -0.85143  -0.84387  -0.83925  -0.83268
 Alpha  occ. eigenvalues --   -0.83021  -0.82316  -0.82179  -0.81222  -0.81183
 Alpha  occ. eigenvalues --   -0.80646  -0.80073  -0.78608  -0.78115  -0.77712
 Alpha  occ. eigenvalues --   -0.76836  -0.76558  -0.76256  -0.75560  -0.74939
 Alpha  occ. eigenvalues --   -0.73723  -0.72690  -0.72284  -0.71903  -0.70977
 Alpha  occ. eigenvalues --   -0.70252  -0.70008  -0.69348  -0.68820  -0.68252
 Alpha  occ. eigenvalues --   -0.67821  -0.67162  -0.66725  -0.65048  -0.64414
 Alpha  occ. eigenvalues --   -0.63624  -0.62552  -0.61573  -0.61259  -0.60802
 Alpha  occ. eigenvalues --   -0.60186  -0.60079  -0.59320  -0.59175  -0.58896
 Alpha  occ. eigenvalues --   -0.58129  -0.57484  -0.57089  -0.56761  -0.55023
 Alpha  occ. eigenvalues --   -0.54577  -0.54317  -0.53924  -0.53532  -0.52734
 Alpha  occ. eigenvalues --   -0.52608  -0.52119  -0.51522  -0.50724  -0.50319
 Alpha  occ. eigenvalues --   -0.49899  -0.49804  -0.49078  -0.48970  -0.48519
 Alpha  occ. eigenvalues --   -0.48096  -0.47901  -0.47839  -0.47153  -0.46958
 Alpha  occ. eigenvalues --   -0.46857  -0.46519  -0.46458  -0.46436  -0.46235
 Alpha  occ. eigenvalues --   -0.46017  -0.45875  -0.45719  -0.45436  -0.45401
 Alpha  occ. eigenvalues --   -0.45324  -0.44770  -0.44586  -0.44463  -0.44338
 Alpha  occ. eigenvalues --   -0.44101  -0.43980  -0.43802  -0.43681  -0.43293
 Alpha  occ. eigenvalues --   -0.43151  -0.43130  -0.42898  -0.42640  -0.42368
 Alpha  occ. eigenvalues --   -0.42155  -0.42070  -0.41780  -0.41673  -0.41542
 Alpha  occ. eigenvalues --   -0.41370  -0.41233  -0.41144  -0.40940  -0.40755
 Alpha  occ. eigenvalues --   -0.40582  -0.40484  -0.40102  -0.40026  -0.39804
 Alpha  occ. eigenvalues --   -0.39482  -0.39018  -0.38961  -0.38771  -0.38721
 Alpha  occ. eigenvalues --   -0.38370  -0.38144  -0.38012  -0.37909  -0.37724
 Alpha  occ. eigenvalues --   -0.37691  -0.37213  -0.37086  -0.37008  -0.36819
 Alpha  occ. eigenvalues --   -0.36649  -0.36595  -0.36422  -0.36098  -0.35973
 Alpha  occ. eigenvalues --   -0.35793  -0.35641  -0.35464  -0.35302  -0.35234
 Alpha  occ. eigenvalues --   -0.34853  -0.34741  -0.34432  -0.34092  -0.33869
 Alpha  occ. eigenvalues --   -0.33649  -0.33241  -0.32961  -0.32649  -0.32181
 Alpha  occ. eigenvalues --   -0.32065  -0.31905  -0.31779  -0.31356  -0.31227
 Alpha  occ. eigenvalues --   -0.30884  -0.30081  -0.30058  -0.29881  -0.29637
 Alpha  occ. eigenvalues --   -0.29296  -0.28908  -0.28681  -0.27484  -0.26362
 Alpha  occ. eigenvalues --   -0.26013  -0.25644  -0.25571  -0.24839  -0.21777
 Alpha  occ. eigenvalues --   -0.19156
 Alpha virt. eigenvalues --   -0.11471  -0.05990  -0.04450  -0.02896  -0.00638
 Alpha virt. eigenvalues --    0.00152   0.00676   0.00831   0.01772   0.02489
 Alpha virt. eigenvalues --    0.03510   0.04247   0.04534   0.05108   0.05882

 Mulliken charges:
               1
     1  Mg   0.974202
     2  C   -0.024406
     3  C   -0.059197
     4  C   -0.087313
     5  C   -0.086482
     6  N   -0.392797
     7  C    0.024572
     8  C   -0.114030
     9  C   -0.117636
    10  C    0.108761
    11  C    0.009606
    12  C   -0.018504
    13  C   -0.022486
    14  C    0.247982
    15  O   -0.257177
    16  O   -0.361169
    17  N   -0.527938
    18  C    0.130380
    19  C   -0.158988
    20  C   -0.078309
    21  C    0.234688
    22  C    0.076072
    23  C    0.080669
    24  O   -0.291356
    25  C   -0.018423
    26  N   -0.417790
    27  C    0.069519
    28  C   -0.090248
    29  C   -0.085256
    30  C    0.059925
    31  C   -0.017931
    32  C   -0.024152
    33  C   -0.090254
    34  N   -0.417394
    35  C    0.151200
    36  C   -0.221506
    37  C   -0.009877
    38  C    0.165094
    39  C    0.072795
    40  C    0.175909
    41  O   -0.233921
    42  C   -0.146547
    43  C    0.277429
    44  O   -0.272452
    45  O   -0.315300
    46  C    0.118843
    47  C    0.265118
    48  C   -0.132791
    49  C   -0.215225
    50  C    0.062800
    51  C   -0.002631
    52  C   -0.023832
    53  C   -0.026636
    54  C   -0.231318
    55  C   -0.032298
    56  C    0.023026
    57  C   -0.099681
    58  C    0.025239
    59  C   -0.182235
    60  C   -0.029438
    61  C   -0.012109
    62  C   -0.064112
    63  C   -0.021392
    64  C   -0.240747
    65  C   -0.025876
    66  C   -0.009225
    67  H    0.001247
    68  H   -0.014059
    69  H    0.012220
    70  H    0.056471
    71  H    0.044359
    72  H    0.053412
    73  H    0.045826
    74  H    0.034736
    75  H    0.064670
    76  H    0.045489
    77  H    0.058695
    78  H    0.063416
    79  H    0.069727
    80  H    0.012616
    81  H    0.070277
    82  H    0.061403
    83  H    0.077568
    84  H    0.067723
    85  H    0.053324
    86  H    0.044105
    87  H    0.037099
    88  H    0.040415
    89  H    0.053071
    90  H    0.051305
    91  H    0.036320
    92  H    0.040821
    93  H    0.042532
    94  H    0.050046
    95  H    0.064874
    96  H    0.067517
    97  H    0.032414
    98  H    0.088642
    99  H    0.035213
   100  H    0.071635
   101  H    0.064414
   102  H    0.058550
   103  H    0.028581
   104  H    0.016927
   105  H    0.032946
   106  H    0.039138
   107  H    0.050445
   108  H    0.016001
   109  H    0.033227
   110  H    0.040948
   111  H    0.038813
   112  H    0.036364
   113  H    0.023455
   114  H    0.037721
   115  H    0.044420
   116  H    0.027795
   117  H    0.024341
   118  H    0.039379
   119  H    0.027543
   120  H    0.030983
   121  H    0.030790
   122  H    0.021994
   123  H    0.032135
   124  H    0.036103
   125  H    0.018254
   126  H    0.043238
   127  H    0.035441
   128  H    0.030859
   129  H    0.028078
   130  H    0.023935
   131  H    0.022344
   132  H    0.026786
   133  H    0.032498
   134  H    0.035457
   135  H    0.028919
   136  H    0.024596
   137  H    0.035979
   138  H    0.032410
   139  H    0.026203
   140  H    0.041419
 Sum of Mulliken charges =  -0.00000

 Dipole moment (field-independent basis, Debye):
    X=             -0.2422    Y=              4.6190    Z=              1.0610  Tot=              4.7454
 Quadrupole moment (field-independent basis, Debye-Ang):
   XX=           -391.0098   YY=           -429.0937   ZZ=           -388.7874
   XY=            -59.8679   XZ=            -15.5169   YZ=            -44.7250

 Normal termination of Gaussian 16 at Sat Apr 30 23:59:53 2022.
