 Gaussian 16, Revision A.03,
 Gaussian 16:  ES64L-G16RevA.03 25-Dec-2016

 --------------------------------
 #p wB97XD/Def2SVP td=(nstates=5)
 --------------------------------

 ---------------------------------------------------
 step_951_chromophore_2 TDDFT with wB97XD functional
 ---------------------------------------------------
 Symbolic Z-matrix:
 Charge =  0 Multiplicity = 1

                         Standard orientation:
 ---------------------------------------------------------------------
 Center     Atomic      Atomic             Coordinates (Angstroms)
 Number     Number       Type             X           Y           Z
 ---------------------------------------------------------------------
      1         12           0       -4.662732    1.294772    0.647503
      2          6           0       -5.178750   -2.215132    0.365005
      3          6           0       -2.289372    0.685664    2.945203
      4          6           0       -3.714199    4.403041    0.239055
      5          6           0       -7.011801    1.632724   -1.962171
      6          7           0       -3.832588   -0.587282    1.519604
      7          6           0       -4.149011   -1.877356    1.224315
      8          6           0       -3.207807   -2.910612    2.003155
      9          6           0       -2.513880   -1.920711    3.013404
     10          6           0       -2.784352   -0.512120    2.463770
     11          6           0       -2.821079   -2.145632    4.527926
     12          6           0       -2.256023   -3.760310    1.093475
     13          6           0       -1.597073   -2.938862   -0.007333
     14          6           0       -0.599394   -3.702731   -0.881390
     15          8           0       -0.758771   -4.171582   -1.998735
     16          8           0        0.593213   -3.803205   -0.207272
     17          7           0       -3.273008    2.444495    1.561081
     18          6           0       -2.406038    2.062613    2.543555
     19          6           0       -1.543193    3.187127    2.998196
     20          6           0       -2.039688    4.303425    2.279754
     21          6           0       -3.076296    3.798674    1.279514
     22          6           0       -0.585211    3.122381    4.150123
     23          6           0       -1.619989    5.821356    2.481638
     24          8           0       -0.697198    6.136063    3.322292
     25          6           0       -2.333819    6.940998    1.732336
     26          7           0       -5.154648    2.761013   -0.794470
     27          6           0       -4.666205    3.999718   -0.652054
     28          6           0       -5.153611    4.843824   -1.815142
     29          6           0       -6.158112    3.939175   -2.575540
     30          6           0       -6.153491    2.685329   -1.718988
     31          6           0       -5.756895    6.294129   -1.499179
     32          6           0       -5.965595    3.669580   -4.094019
     33          6           0       -7.051755    4.290938   -5.060837
     34          7           0       -5.955611   -0.010325   -0.493057
     35          6           0       -6.880387    0.332986   -1.410786
     36          6           0       -7.552758   -0.910214   -1.823547
     37          6           0       -6.908801   -1.938164   -1.157253
     38          6           0       -5.941586   -1.342631   -0.351033
     39          6           0       -8.630999   -0.987200   -2.884723
     40          6           0       -6.899760   -3.360528   -0.971345
     41          8           0       -7.552780   -4.260194   -1.542265
     42          6           0       -5.613852   -3.608241   -0.054718
     43          6           0       -6.017035   -4.394091    1.249191
     44          8           0       -5.618565   -5.554152    1.401186
     45          8           0       -6.721853   -3.659557    2.113337
     46          6           0       -7.038326   -4.284347    3.364015
     47          6           0        1.688252   -4.548331   -0.722304
     48          6           0        2.798283   -3.530435   -0.767177
     49          6           0        3.267634   -2.843495   -1.830080
     50          6           0        2.849773   -3.036451   -3.214817
     51          6           0        4.372819   -1.874445   -1.617775
     52          6           0        5.776205   -2.396992   -1.874759
     53          6           0        6.514448   -1.428104   -2.820103
     54          6           0        7.115272   -0.187576   -2.062939
     55          6           0        7.237783    1.065456   -3.052993
     56          6           0        8.495578   -0.481700   -1.430977
     57          6           0        8.419205   -0.613456    0.174214
     58          6           0        9.361580    0.418429    0.931715
     59          6           0       10.831668    0.017738    0.914764
     60          6           0       11.382418   -0.478254    2.257831
     61          6           0       11.798193    1.151431    0.339421
     62          6           0       12.943271    0.642634   -0.533634
     63          6           0       14.288640    0.268786    0.228014
     64          6           0       15.569320    1.045006   -0.256114
     65          6           0       16.849244    0.208359   -0.314130
     66          6           0       15.814208    2.382785    0.459551
     67          1           0       -1.469051    0.580406    3.657292
     68          1           0       -3.454509    5.427096   -0.037072
     69          1           0       -7.816294    1.834188   -2.671639
     70          1           0       -3.715959   -3.684882    2.579063
     71          1           0       -1.466482   -2.222066    3.049999
     72          1           0       -1.975326   -1.927926    5.179472
     73          1           0       -3.310397   -3.117983    4.588864
     74          1           0       -3.554383   -1.405514    4.848176
     75          1           0       -2.769776   -4.647341    0.721856
     76          1           0       -1.482018   -4.101635    1.780439
     77          1           0       -1.216627   -2.051758    0.498938
     78          1           0       -2.368622   -2.516359   -0.651436
     79          1           0        0.371783    3.522755    3.816226
     80          1           0       -0.420445    2.081834    4.430322
     81          1           0       -0.915484    3.546935    5.098606
     82          1           0       -3.390782    6.684125    1.804656
     83          1           0       -2.051601    6.777992    0.692654
     84          1           0       -2.174237    7.965111    2.069767
     85          1           0       -4.369407    5.043163   -2.545294
     86          1           0       -7.193528    4.256376   -2.454178
     87          1           0       -6.522545    6.573383   -2.222999
     88          1           0       -5.097731    7.146340   -1.668124
     89          1           0       -6.180478    6.284182   -0.495168
     90          1           0       -5.910911    2.605291   -4.317354
     91          1           0       -5.014940    4.074979   -4.441317
     92          1           0       -7.873890    3.606450   -5.269133
     93          1           0       -6.659419    4.412099   -6.070525
     94          1           0       -7.413827    5.222878   -4.627251
     95          1           0       -9.645511   -0.925160   -2.490435
     96          1           0       -8.461043   -1.915530   -3.429207
     97          1           0       -8.447297   -0.123562   -3.524232
     98          1           0       -4.871648   -4.209520   -0.580243
     99          1           0       -6.229165   -4.037135    4.051994
    100          1           0       -7.028396   -5.373446    3.355602
    101          1           0       -7.911946   -3.911572    3.899298
    102          1           0        1.505947   -5.080871   -1.656049
    103          1           0        1.931325   -5.291735    0.037421
    104          1           0        3.464936   -3.465046    0.094056
    105          1           0        2.163107   -3.882145   -3.220563
    106          1           0        3.680468   -3.396847   -3.821270
    107          1           0        2.468271   -2.127872   -3.681079
    108          1           0        4.410263   -1.586485   -0.567301
    109          1           0        4.187298   -0.886717   -2.039901
    110          1           0        5.843288   -3.368206   -2.366215
    111          1           0        6.242443   -2.418322   -0.889900
    112          1           0        5.854089   -0.965577   -3.554405
    113          1           0        7.335424   -2.012092   -3.235065
    114          1           0        6.326237    0.103879   -1.369436
    115          1           0        6.400316    1.763569   -3.047647
    116          1           0        7.419579    0.663415   -4.050259
    117          1           0        8.164903    1.621487   -2.911560
    118          1           0        9.245284    0.287696   -1.615824
    119          1           0        8.847604   -1.452962   -1.778663
    120          1           0        8.701938   -1.635649    0.426612
    121          1           0        7.391671   -0.476535    0.512073
    122          1           0        9.021700    0.489959    1.964594
    123          1           0        9.173930    1.384366    0.461529
    124          1           0       11.031164   -0.876870    0.324550
    125          1           0       11.576598    0.379306    2.903147
    126          1           0       12.363553   -0.942210    2.157411
    127          1           0       10.693405   -1.062414    2.866855
    128          1           0       12.225552    1.697196    1.180115
    129          1           0       11.342608    1.860472   -0.352216
    130          1           0       13.220780    1.317247   -1.344221
    131          1           0       12.635947   -0.250693   -1.075634
    132          1           0       14.423110   -0.804091    0.091849
    133          1           0       14.147766    0.474353    1.288810
    134          1           0       15.440499    1.319136   -1.302875
    135          1           0       16.891092   -0.227489   -1.312424
    136          1           0       16.879176   -0.711061    0.271313
    137          1           0       17.749169    0.756076   -0.033700
    138          1           0       16.783217    2.436210    0.955815
    139          1           0       15.104854    2.520966    1.275119
    140          1           0       15.688867    3.163673   -0.290840
 ---------------------------------------------------------------------

 SCF Done:  E(RwB97XD) =  -3007.87865698     A.U. after   19 cycles

 Excitation energies and oscillator strengths:

 Excited State   1:      Singlet-A      1.6763 eV  739.65 nm  f=0.3953  <S**2>=0.000
     245 -> 248       -0.18178
     246 -> 247        0.68347
     245 <- 248       -0.11408
 This state for optimization and/or second-order correction.
 Total Energy, E(TD-HF/TD-DFT) =  -3007.81705538
 Copying the excited state density for this state as the 1-particle RhoCI density.

 Excited State   2:      Singlet-A      2.2495 eV  551.16 nm  f=0.0622  <S**2>=0.000
     245 -> 247        0.61516
     246 -> 248        0.33356

 Excited State   3:      Singlet-A      3.3886 eV  365.89 nm  f=0.0007  <S**2>=0.000
     240 -> 247       -0.17590
     240 -> 249        0.12740
     241 -> 247        0.43814
     241 -> 249       -0.29521
     241 -> 250       -0.19683
     242 -> 247       -0.17357
     243 -> 247       -0.20527
     243 -> 249        0.10069

 Excited State   4:      Singlet-A      3.4544 eV  358.92 nm  f=0.1160  <S**2>=0.000
     240 -> 249        0.13879
     240 -> 250       -0.11508
     241 -> 247        0.15265
     241 -> 250       -0.11057
     242 -> 247        0.38532
     242 -> 248       -0.14422
     242 -> 249        0.24049
     242 -> 250       -0.21206
     245 -> 247       -0.13333
     246 -> 248        0.28331

 Excited State   5:      Singlet-A      3.4776 eV  356.52 nm  f=0.3055  <S**2>=0.000
     240 -> 247       -0.21015
     242 -> 249       -0.14141
     242 -> 250        0.11443
     243 -> 247        0.36788
     245 -> 247       -0.21211
     246 -> 248        0.43707

 The electronic state is 1-A.
 Alpha  occ. eigenvalues --  -46.95430 -19.32266 -19.29124 -19.24689 -19.24446
 Alpha  occ. eigenvalues --  -19.24385 -19.23989 -14.47497 -14.46746 -14.45158
 Alpha  occ. eigenvalues --  -14.44009 -10.43925 -10.43072 -10.40329 -10.39480
 Alpha  occ. eigenvalues --  -10.36148 -10.35709 -10.35666 -10.35407 -10.35159
 Alpha  occ. eigenvalues --  -10.35148 -10.35099 -10.34973 -10.34287 -10.33351
 Alpha  occ. eigenvalues --  -10.33134 -10.32964 -10.32911 -10.32710 -10.32522
 Alpha  occ. eigenvalues --  -10.32423 -10.32391 -10.31892 -10.31636 -10.31593
 Alpha  occ. eigenvalues --  -10.31383 -10.31330 -10.31178 -10.31032 -10.30939
 Alpha  occ. eigenvalues --  -10.30833 -10.30745 -10.30644 -10.30181 -10.30159
 Alpha  occ. eigenvalues --  -10.30157 -10.30067 -10.29954 -10.29669 -10.29317
 Alpha  occ. eigenvalues --  -10.29153 -10.29071 -10.29029 -10.29025 -10.28876
 Alpha  occ. eigenvalues --  -10.28763 -10.28734 -10.28726 -10.28726 -10.28615
 Alpha  occ. eigenvalues --  -10.28547 -10.28541 -10.28268 -10.28161 -10.27853
 Alpha  occ. eigenvalues --  -10.27740  -3.21425  -1.95018  -1.94531  -1.94413
 Alpha  occ. eigenvalues --   -1.20603  -1.18235  -1.10752  -1.10220  -1.09696
 Alpha  occ. eigenvalues --   -1.08656  -1.07387  -1.06600  -1.05059  -1.04227
 Alpha  occ. eigenvalues --   -0.95549  -0.92796  -0.91958  -0.91581  -0.90944
 Alpha  occ. eigenvalues --   -0.90581  -0.89944  -0.89832  -0.88877  -0.88830
 Alpha  occ. eigenvalues --   -0.88290  -0.87719  -0.86247  -0.85758  -0.85361
 Alpha  occ. eigenvalues --   -0.84521  -0.84235  -0.83916  -0.83201  -0.82587
 Alpha  occ. eigenvalues --   -0.81395  -0.80316  -0.79940  -0.79545  -0.78630
 Alpha  occ. eigenvalues --   -0.77838  -0.77656  -0.77040  -0.76508  -0.75918
 Alpha  occ. eigenvalues --   -0.75389  -0.74739  -0.74273  -0.72662  -0.71958
 Alpha  occ. eigenvalues --   -0.71179  -0.70190  -0.69123  -0.68900  -0.68280
 Alpha  occ. eigenvalues --   -0.67633  -0.67569  -0.66865  -0.66793  -0.66344
 Alpha  occ. eigenvalues --   -0.65663  -0.65119  -0.64734  -0.64404  -0.62471
 Alpha  occ. eigenvalues --   -0.61998  -0.61718  -0.61386  -0.60944  -0.60166
 Alpha  occ. eigenvalues --   -0.60108  -0.59653  -0.58908  -0.58240  -0.57772
 Alpha  occ. eigenvalues --   -0.57294  -0.57225  -0.56544  -0.56328  -0.55960
 Alpha  occ. eigenvalues --   -0.55465  -0.55240  -0.55170  -0.54565  -0.54360
 Alpha  occ. eigenvalues --   -0.54218  -0.53912  -0.53871  -0.53834  -0.53620
 Alpha  occ. eigenvalues --   -0.53446  -0.53299  -0.53027  -0.52804  -0.52703
 Alpha  occ. eigenvalues --   -0.52683  -0.52103  -0.51955  -0.51830  -0.51719
 Alpha  occ. eigenvalues --   -0.51409  -0.51294  -0.51091  -0.50961  -0.50575
 Alpha  occ. eigenvalues --   -0.50522  -0.50448  -0.50187  -0.49912  -0.49608
 Alpha  occ. eigenvalues --   -0.49385  -0.49350  -0.49045  -0.48920  -0.48816
 Alpha  occ. eigenvalues --   -0.48598  -0.48445  -0.48328  -0.48174  -0.47991
 Alpha  occ. eigenvalues --   -0.47805  -0.47747  -0.47342  -0.47251  -0.46951
 Alpha  occ. eigenvalues --   -0.46720  -0.46236  -0.46135  -0.45899  -0.45829
 Alpha  occ. eigenvalues --   -0.45534  -0.45337  -0.45202  -0.45105  -0.44825
 Alpha  occ. eigenvalues --   -0.44714  -0.44475  -0.44168  -0.44098  -0.43848
 Alpha  occ. eigenvalues --   -0.43756  -0.43612  -0.43461  -0.43147  -0.43022
 Alpha  occ. eigenvalues --   -0.42840  -0.42686  -0.42590  -0.42419  -0.42311
 Alpha  occ. eigenvalues --   -0.41877  -0.41801  -0.41472  -0.41125  -0.40933
 Alpha  occ. eigenvalues --   -0.40693  -0.40201  -0.39965  -0.39673  -0.39205
 Alpha  occ. eigenvalues --   -0.39139  -0.38827  -0.38791  -0.38383  -0.38258
 Alpha  occ. eigenvalues --   -0.37890  -0.37066  -0.36938  -0.36759  -0.36423
 Alpha  occ. eigenvalues --   -0.36183  -0.35967  -0.35644  -0.34115  -0.33052
 Alpha  occ. eigenvalues --   -0.32913  -0.32663  -0.32514  -0.31522  -0.26834
 Alpha  occ. eigenvalues --   -0.23280
 Alpha virt. eigenvalues --   -0.07274  -0.00582   0.01780   0.03587   0.05258
 Alpha virt. eigenvalues --    0.06819   0.07374   0.07562   0.08531   0.08969
 Alpha virt. eigenvalues --    0.10125   0.11055   0.11256   0.11836   0.12590

 Mulliken charges:
               1
     1  Mg   0.965039
     2  C   -0.017353
     3  C   -0.064648
     4  C   -0.091263
     5  C   -0.106661
     6  N   -0.359833
     7  C   -0.019786
     8  C   -0.084840
     9  C   -0.096719
    10  C    0.093585
    11  C    0.021337
    12  C   -0.010456
    13  C    0.001594
    14  C    0.238047
    15  O   -0.253541
    16  O   -0.360214
    17  N   -0.496698
    18  C    0.119166
    19  C   -0.149655
    20  C   -0.076802
    21  C    0.228845
    22  C    0.087009
    23  C    0.073947
    24  O   -0.286836
    25  C   -0.001296
    26  N   -0.383201
    27  C    0.051612
    28  C   -0.063469
    29  C   -0.060166
    30  C    0.050253
    31  C   -0.005484
    32  C   -0.012840
    33  C   -0.071535
    34  N   -0.375599
    35  C    0.139216
    36  C   -0.217105
    37  C   -0.003696
    38  C    0.148205
    39  C    0.085966
    40  C    0.153350
    41  O   -0.223396
    42  C   -0.109788
    43  C    0.253645
    44  O   -0.266182
    45  O   -0.314475
    46  C    0.134628
    47  C    0.276060
    48  C   -0.139398
    49  C   -0.201548
    50  C    0.074787
    51  C    0.016470
    52  C   -0.010324
    53  C   -0.003870
    54  C   -0.204477
    55  C   -0.017831
    56  C    0.036890
    57  C   -0.080819
    58  C    0.041017
    59  C   -0.154929
    60  C   -0.015984
    61  C    0.006950
    62  C   -0.048632
    63  C   -0.006492
    64  C   -0.209638
    65  C   -0.014703
    66  C    0.001564
    67  H   -0.008002
    68  H   -0.028302
    69  H    0.006710
    70  H    0.041915
    71  H    0.033851
    72  H    0.049109
    73  H    0.039284
    74  H    0.027349
    75  H    0.058009
    76  H    0.037645
    77  H    0.048680
    78  H    0.052994
    79  H    0.066161
    80  H    0.006819
    81  H    0.066901
    82  H    0.052640
    83  H    0.071425
    84  H    0.067422
    85  H    0.042342
    86  H    0.030525
    87  H    0.030360
    88  H    0.035081
    89  H    0.046672
    90  H    0.042921
    91  H    0.028554
    92  H    0.034150
    93  H    0.037369
    94  H    0.042473
    95  H    0.061104
    96  H    0.063871
    97  H    0.025370
    98  H    0.083781
    99  H    0.030077
   100  H    0.068262
   101  H    0.061428
   102  H    0.054507
   103  H    0.025341
   104  H    0.013116
   105  H    0.025716
   106  H    0.032756
   107  H    0.046155
   108  H    0.007565
   109  H    0.024392
   110  H    0.033794
   111  H    0.027502
   112  H    0.024650
   113  H    0.015018
   114  H    0.022179
   115  H    0.039986
   116  H    0.020331
   117  H    0.017935
   118  H    0.025562
   119  H    0.018952
   120  H    0.021950
   121  H    0.021710
   122  H    0.015035
   123  H    0.022702
   124  H    0.020853
   125  H    0.010436
   126  H    0.035774
   127  H    0.030414
   128  H    0.018635
   129  H    0.020668
   130  H    0.015499
   131  H    0.013615
   132  H    0.019224
   133  H    0.019053
   134  H    0.023146
   135  H    0.023030
   136  H    0.018294
   137  H    0.030335
   138  H    0.026480
   139  H    0.019264
   140  H    0.036478
 Sum of Mulliken charges =  -0.00000

 Dipole moment (field-independent basis, Debye):
    X=             -0.3428    Y=              4.5554    Z=              1.1155  Tot=              4.7025
 Quadrupole moment (field-independent basis, Debye-Ang):
   XX=           -389.7816   YY=           -428.5270   ZZ=           -388.6591
   XY=            -58.9728   XZ=            -15.8821   YZ=            -44.4038

 Normal termination of Gaussian 16 at Sun May  1 00:28:08 2022.
