 Gaussian 16, Revision A.03,
 Gaussian 16:  ES64L-G16RevA.03 25-Dec-2016

 --------------------
 #p ZINDO=(nstates=5)
 --------------------

 ----------------------------
 step_951_chromophore_2 ZINDO
 ----------------------------
 Symbolic Z-matrix:
 Charge =  0 Multiplicity = 1

                         Standard orientation:
 ---------------------------------------------------------------------
 Center     Atomic      Atomic             Coordinates (Angstroms)
 Number     Number       Type             X           Y           Z
 ---------------------------------------------------------------------
      1         12           0       -4.662732    1.294772    0.647503
      2          6           0       -5.178750   -2.215132    0.365005
      3          6           0       -2.289372    0.685664    2.945203
      4          6           0       -3.714199    4.403041    0.239055
      5          6           0       -7.011801    1.632724   -1.962171
      6          7           0       -3.832588   -0.587282    1.519604
      7          6           0       -4.149011   -1.877356    1.224315
      8          6           0       -3.207807   -2.910612    2.003155
      9          6           0       -2.513880   -1.920711    3.013404
     10          6           0       -2.784352   -0.512120    2.463770
     11          6           0       -2.821079   -2.145632    4.527926
     12          6           0       -2.256023   -3.760310    1.093475
     13          6           0       -1.597073   -2.938862   -0.007333
     14          6           0       -0.599394   -3.702731   -0.881390
     15          8           0       -0.758771   -4.171582   -1.998735
     16          8           0        0.593213   -3.803205   -0.207272
     17          7           0       -3.273008    2.444495    1.561081
     18          6           0       -2.406038    2.062613    2.543555
     19          6           0       -1.543193    3.187127    2.998196
     20          6           0       -2.039688    4.303425    2.279754
     21          6           0       -3.076296    3.798674    1.279514
     22          6           0       -0.585211    3.122381    4.150123
     23          6           0       -1.619989    5.821356    2.481638
     24          8           0       -0.697198    6.136063    3.322292
     25          6           0       -2.333819    6.940998    1.732336
     26          7           0       -5.154648    2.761013   -0.794470
     27          6           0       -4.666205    3.999718   -0.652054
     28          6           0       -5.153611    4.843824   -1.815142
     29          6           0       -6.158112    3.939175   -2.575540
     30          6           0       -6.153491    2.685329   -1.718988
     31          6           0       -5.756895    6.294129   -1.499179
     32          6           0       -5.965595    3.669580   -4.094019
     33          6           0       -7.051755    4.290938   -5.060837
     34          7           0       -5.955611   -0.010325   -0.493057
     35          6           0       -6.880387    0.332986   -1.410786
     36          6           0       -7.552758   -0.910214   -1.823547
     37          6           0       -6.908801   -1.938164   -1.157253
     38          6           0       -5.941586   -1.342631   -0.351033
     39          6           0       -8.630999   -0.987200   -2.884723
     40          6           0       -6.899760   -3.360528   -0.971345
     41          8           0       -7.552780   -4.260194   -1.542265
     42          6           0       -5.613852   -3.608241   -0.054718
     43          6           0       -6.017035   -4.394091    1.249191
     44          8           0       -5.618565   -5.554152    1.401186
     45          8           0       -6.721853   -3.659557    2.113337
     46          6           0       -7.038326   -4.284347    3.364015
     47          6           0        1.688252   -4.548331   -0.722304
     48          6           0        2.798283   -3.530435   -0.767177
     49          6           0        3.267634   -2.843495   -1.830080
     50          6           0        2.849773   -3.036451   -3.214817
     51          6           0        4.372819   -1.874445   -1.617775
     52          6           0        5.776205   -2.396992   -1.874759
     53          6           0        6.514448   -1.428104   -2.820103
     54          6           0        7.115272   -0.187576   -2.062939
     55          6           0        7.237783    1.065456   -3.052993
     56          6           0        8.495578   -0.481700   -1.430977
     57          6           0        8.419205   -0.613456    0.174214
     58          6           0        9.361580    0.418429    0.931715
     59          6           0       10.831668    0.017738    0.914764
     60          6           0       11.382418   -0.478254    2.257831
     61          6           0       11.798193    1.151431    0.339421
     62          6           0       12.943271    0.642634   -0.533634
     63          6           0       14.288640    0.268786    0.228014
     64          6           0       15.569320    1.045006   -0.256114
     65          6           0       16.849244    0.208359   -0.314130
     66          6           0       15.814208    2.382785    0.459551
     67          1           0       -1.469051    0.580406    3.657292
     68          1           0       -3.454509    5.427096   -0.037072
     69          1           0       -7.816294    1.834188   -2.671639
     70          1           0       -3.715959   -3.684882    2.579063
     71          1           0       -1.466482   -2.222066    3.049999
     72          1           0       -1.975326   -1.927926    5.179472
     73          1           0       -3.310397   -3.117983    4.588864
     74          1           0       -3.554383   -1.405514    4.848176
     75          1           0       -2.769776   -4.647341    0.721856
     76          1           0       -1.482018   -4.101635    1.780439
     77          1           0       -1.216627   -2.051758    0.498938
     78          1           0       -2.368622   -2.516359   -0.651436
     79          1           0        0.371783    3.522755    3.816226
     80          1           0       -0.420445    2.081834    4.430322
     81          1           0       -0.915484    3.546935    5.098606
     82          1           0       -3.390782    6.684125    1.804656
     83          1           0       -2.051601    6.777992    0.692654
     84          1           0       -2.174237    7.965111    2.069767
     85          1           0       -4.369407    5.043163   -2.545294
     86          1           0       -7.193528    4.256376   -2.454178
     87          1           0       -6.522545    6.573383   -2.222999
     88          1           0       -5.097731    7.146340   -1.668124
     89          1           0       -6.180478    6.284182   -0.495168
     90          1           0       -5.910911    2.605291   -4.317354
     91          1           0       -5.014940    4.074979   -4.441317
     92          1           0       -7.873890    3.606450   -5.269133
     93          1           0       -6.659419    4.412099   -6.070525
     94          1           0       -7.413827    5.222878   -4.627251
     95          1           0       -9.645511   -0.925160   -2.490435
     96          1           0       -8.461043   -1.915530   -3.429207
     97          1           0       -8.447297   -0.123562   -3.524232
     98          1           0       -4.871648   -4.209520   -0.580243
     99          1           0       -6.229165   -4.037135    4.051994
    100          1           0       -7.028396   -5.373446    3.355602
    101          1           0       -7.911946   -3.911572    3.899298
    102          1           0        1.505947   -5.080871   -1.656049
    103          1           0        1.931325   -5.291735    0.037421
    104          1           0        3.464936   -3.465046    0.094056
    105          1           0        2.163107   -3.882145   -3.220563
    106          1           0        3.680468   -3.396847   -3.821270
    107          1           0        2.468271   -2.127872   -3.681079
    108          1           0        4.410263   -1.586485   -0.567301
    109          1           0        4.187298   -0.886717   -2.039901
    110          1           0        5.843288   -3.368206   -2.366215
    111          1           0        6.242443   -2.418322   -0.889900
    112          1           0        5.854089   -0.965577   -3.554405
    113          1           0        7.335424   -2.012092   -3.235065
    114          1           0        6.326237    0.103879   -1.369436
    115          1           0        6.400316    1.763569   -3.047647
    116          1           0        7.419579    0.663415   -4.050259
    117          1           0        8.164903    1.621487   -2.911560
    118          1           0        9.245284    0.287696   -1.615824
    119          1           0        8.847604   -1.452962   -1.778663
    120          1           0        8.701938   -1.635649    0.426612
    121          1           0        7.391671   -0.476535    0.512073
    122          1           0        9.021700    0.489959    1.964594
    123          1           0        9.173930    1.384366    0.461529
    124          1           0       11.031164   -0.876870    0.324550
    125          1           0       11.576598    0.379306    2.903147
    126          1           0       12.363553   -0.942210    2.157411
    127          1           0       10.693405   -1.062414    2.866855
    128          1           0       12.225552    1.697196    1.180115
    129          1           0       11.342608    1.860472   -0.352216
    130          1           0       13.220780    1.317247   -1.344221
    131          1           0       12.635947   -0.250693   -1.075634
    132          1           0       14.423110   -0.804091    0.091849
    133          1           0       14.147766    0.474353    1.288810
    134          1           0       15.440499    1.319136   -1.302875
    135          1           0       16.891092   -0.227489   -1.312424
    136          1           0       16.879176   -0.711061    0.271313
    137          1           0       17.749169    0.756076   -0.033700
    138          1           0       16.783217    2.436210    0.955815
    139          1           0       15.104854    2.520966    1.275119
    140          1           0       15.688867    3.163673   -0.290840
 ---------------------------------------------------------------------

 SCF Done:  E(RZINDO/S) =  -474.207280789     A.U. after   19 cycles

 Excitation energies and oscillator strengths:

 Excited State   1:      Singlet-A      1.2652 eV  979.99 nm  f=0.6390  <S**2>=0.000
     175 ->178         0.18918
     176 ->177         0.66341
 This state for optimization and/or second-order correction.
 Total Energy, E(CIS/TDA) =  -474.160786913
 Copying the excited state density for this state as the 1-particle RhoCI density.

 Excited State   2:      Singlet-A      1.9444 eV  637.65 nm  f=0.0079  <S**2>=0.000
     175 ->177         0.50614
     176 ->178        -0.47199

 Excited State   3:      Singlet-A      2.9061 eV  426.64 nm  f=0.0098  <S**2>=0.000
     166 ->179        -0.10163
     169 ->177         0.26126
     169 ->179        -0.31648
     169 ->180         0.22082
     169 ->185        -0.11482
     169 ->187         0.10860
     170 ->177         0.20888
     170 ->179        -0.25430
     170 ->180         0.18319

 Excited State   4:      Singlet-A      2.9750 eV  416.76 nm  f=0.3940  <S**2>=0.000
     175 ->177        -0.25466
     176 ->178        -0.31664
     176 ->179         0.49976

 Excited State   5:      Singlet-A      3.0151 eV  411.21 nm  f=0.0278  <S**2>=0.000
     168 ->177         0.22818
     168 ->178        -0.18231
     168 ->179         0.31967
     168 ->180         0.38226
     168 ->185         0.23360
     176 ->179        -0.11212

 The electronic state is 1-A.
 Alpha  occ. eigenvalues --   -1.86663  -1.82517  -1.78797  -1.73922  -1.73661
 Alpha  occ. eigenvalues --   -1.70192  -1.64473  -1.60968  -1.57903  -1.54380
 Alpha  occ. eigenvalues --   -1.53338  -1.50998  -1.48412  -1.47771  -1.46974
 Alpha  occ. eigenvalues --   -1.46415  -1.44742  -1.41078  -1.38561  -1.38006
 Alpha  occ. eigenvalues --   -1.36359  -1.34255  -1.32248  -1.31039  -1.29075
 Alpha  occ. eigenvalues --   -1.27767  -1.26558  -1.23935  -1.20698  -1.19026
 Alpha  occ. eigenvalues --   -1.16932  -1.15811  -1.15375  -1.13699  -1.13536
 Alpha  occ. eigenvalues --   -1.12899  -1.10591  -1.09027  -1.06255  -1.04852
 Alpha  occ. eigenvalues --   -1.01912  -1.00981  -0.99600  -0.97491  -0.97148
 Alpha  occ. eigenvalues --   -0.96338  -0.95869  -0.94823  -0.92527  -0.92339
 Alpha  occ. eigenvalues --   -0.90916  -0.90531  -0.89019  -0.88703  -0.88165
 Alpha  occ. eigenvalues --   -0.86224  -0.85288  -0.84250  -0.83354  -0.81686
 Alpha  occ. eigenvalues --   -0.80456  -0.79647  -0.78537  -0.77726  -0.77259
 Alpha  occ. eigenvalues --   -0.76277  -0.75439  -0.74114  -0.73936  -0.73290
 Alpha  occ. eigenvalues --   -0.72793  -0.72634  -0.71737  -0.71503  -0.70648
 Alpha  occ. eigenvalues --   -0.69947  -0.69302  -0.68452  -0.67965  -0.67782
 Alpha  occ. eigenvalues --   -0.67155  -0.66823  -0.66389  -0.66305  -0.65207
 Alpha  occ. eigenvalues --   -0.64898  -0.64588  -0.64419  -0.64030  -0.63781
 Alpha  occ. eigenvalues --   -0.63343  -0.63071  -0.62543  -0.62358  -0.62230
 Alpha  occ. eigenvalues --   -0.62189  -0.61961  -0.61357  -0.60855  -0.60441
 Alpha  occ. eigenvalues --   -0.59854  -0.59546  -0.58871  -0.58788  -0.58228
 Alpha  occ. eigenvalues --   -0.57788  -0.57550  -0.57203  -0.56556  -0.56258
 Alpha  occ. eigenvalues --   -0.55962  -0.55689  -0.55591  -0.55409  -0.55082
 Alpha  occ. eigenvalues --   -0.54802  -0.54446  -0.54023  -0.53817  -0.53132
 Alpha  occ. eigenvalues --   -0.52946  -0.52636  -0.52597  -0.52294  -0.51886
 Alpha  occ. eigenvalues --   -0.51335  -0.50932  -0.50452  -0.50231  -0.50184
 Alpha  occ. eigenvalues --   -0.49918  -0.49804  -0.49661  -0.49595  -0.49142
 Alpha  occ. eigenvalues --   -0.48438  -0.48381  -0.48207  -0.47989  -0.47807
 Alpha  occ. eigenvalues --   -0.47762  -0.47667  -0.47198  -0.47125  -0.46791
 Alpha  occ. eigenvalues --   -0.46680  -0.46468  -0.46227  -0.45717  -0.45384
 Alpha  occ. eigenvalues --   -0.44888  -0.44592  -0.44351  -0.44199  -0.43960
 Alpha  occ. eigenvalues --   -0.43796  -0.43598  -0.43568  -0.43354  -0.42602
 Alpha  occ. eigenvalues --   -0.42495  -0.41837  -0.40712  -0.40046  -0.39103
 Alpha  occ. eigenvalues --   -0.38458  -0.37397  -0.36261  -0.35767  -0.35550
 Alpha  occ. eigenvalues --   -0.33942  -0.33701  -0.33425  -0.31596  -0.27686
 Alpha  occ. eigenvalues --   -0.22214
 Alpha virt. eigenvalues --   -0.08935  -0.02968  -0.01208   0.00477   0.01372
 Alpha virt. eigenvalues --    0.01902   0.02167   0.02261   0.04014   0.04985
 Alpha virt. eigenvalues --    0.05558   0.06077   0.06352   0.07173   0.07571

 Mulliken charges:
               1
     1  Mg   0.424470
     2  C   -0.036661
     3  C   -0.067980
     4  C   -0.060905
     5  C   -0.066265
     6  N   -0.296325
     7  C    0.130171
     8  C   -0.008431
     9  C    0.000824
    10  C    0.115893
    11  C   -0.052703
    12  C   -0.013891
    13  C    0.009604
    14  C    0.470008
    15  O   -0.512345
    16  O   -0.270323
    17  N   -0.309933
    18  C    0.106973
    19  C    0.037061
    20  C   -0.048201
    21  C    0.108065
    22  C   -0.029810
    23  C    0.317943
    24  O   -0.541445
    25  C   -0.021599
    26  N   -0.266862
    27  C    0.132010
    28  C    0.005645
    29  C    0.001299
    30  C    0.127533
    31  C   -0.061510
    32  C   -0.028290
    33  C   -0.062598
    34  N   -0.323183
    35  C    0.103492
    36  C    0.034142
    37  C   -0.042352
    38  C    0.124164
    39  C   -0.041687
    40  C    0.324434
    41  O   -0.512925
    42  C    0.048293
    43  C    0.476774
    44  O   -0.532503
    45  O   -0.242515
    46  C    0.075142
    47  C    0.113306
    48  C   -0.103005
    49  C    0.012542
    50  C   -0.039441
    51  C   -0.020661
    52  C   -0.028238
    53  C   -0.038904
    54  C   -0.016613
    55  C   -0.071273
    56  C   -0.035029
    57  C   -0.049778
    58  C   -0.027048
    59  C   -0.004622
    60  C   -0.057597
    61  C   -0.034875
    62  C   -0.041755
    63  C   -0.037301
    64  C   -0.009682
    65  C   -0.059286
    66  C   -0.056805
    67  H    0.017986
    68  H    0.016456
    69  H    0.032482
    70  H    0.037152
    71  H    0.022207
    72  H    0.030931
    73  H    0.030435
    74  H    0.012991
    75  H    0.038680
    76  H    0.021655
    77  H    0.040750
    78  H    0.031801
    79  H    0.041799
    80  H    0.012717
    81  H    0.044729
    82  H    0.030351
    83  H    0.041771
    84  H    0.049180
    85  H    0.031950
    86  H    0.026954
    87  H    0.016589
    88  H    0.022976
    89  H    0.025621
    90  H    0.024785
    91  H    0.018114
    92  H    0.018978
    93  H    0.019899
    94  H    0.024499
    95  H    0.040632
    96  H    0.039377
    97  H    0.021290
    98  H    0.072407
    99  H    0.022168
   100  H    0.055166
   101  H    0.039982
   102  H    0.058547
   103  H    0.027636
   104  H    0.026360
   105  H    0.025578
   106  H    0.024930
   107  H    0.033115
   108  H    0.004136
   109  H    0.023991
   110  H    0.021710
   111  H    0.024663
   112  H    0.025847
   113  H    0.017309
   114  H    0.024620
   115  H    0.024935
   116  H    0.013033
   117  H    0.014572
   118  H    0.028052
   119  H    0.021012
   120  H    0.016726
   121  H    0.018144
   122  H    0.016439
   123  H    0.021108
   124  H    0.020547
   125  H    0.006146
   126  H    0.020555
   127  H    0.019802
   128  H    0.022302
   129  H    0.017705
   130  H    0.016667
   131  H    0.013067
   132  H    0.017039
   133  H    0.022227
   134  H    0.015237
   135  H    0.011934
   136  H    0.013002
   137  H    0.022898
   138  H    0.020831
   139  H    0.014712
   140  H    0.020773
 Sum of Mulliken charges =  -0.00000

 Dipole moment (field-independent basis, Debye):
    X=             -0.4937    Y=              6.1988    Z=              0.4192  Tot=              6.2325
 N-N= 4.345501222465D+03 E-N= 0.000000000000D+00  KE=-9.364428956498D+03
 Leave Link  601 at Sun May  1 00:41:47 2022, MaxMem=  6710886400 cpu:               0.8 elap:               0.1
 (Enter /sw/apps/gaussian-16.0/g16/l9999.exe)
 1\1\GINC-BP1-COMPUTE103\SP\RZINDO CIS\STO-3G\C55H74Mg1N4O6\OF15641\01-
 May-2022\0\\#p ZINDO=(nstates=5)\\step_951_chromophore_2 ZINDO\\0,1\Mg
 ,0,2.93,0.28,44.224\C,0,6.135,1.819,44.066\C,0,1.635,2.995,42.729\C,0,
 0.244,-1.514,43.681\C,0,4.587,-2.539,45.547\N,0,3.831,2.18,43.469\C,0,
 5.137,2.562,43.462\C,0,5.342,3.955,42.702\C,0,3.837,4.399,42.561\C,0,3
 .006,3.137,42.837\C,0,3.418,5.689,43.335\C,0,6.173,3.874,41.376\C,0,5.
 796,2.678,40.511\C,0,6.525,2.59,39.168\O,0,7.481,1.895,38.857\O,0,5.92

 Normal termination of Gaussian 16 at Sun May  1 00:41:48 2022.
