 Gaussian 16, Revision A.03,
 Gaussian 16:  ES64L-G16RevA.03 25-Dec-2016

 ------------------------------
 #p blyp/Def2SVP td=(nstates=5)
 ------------------------------

 ---------------------------------------------------
 step_1551_chromophore_13 TDDFT with blyp functional
 ---------------------------------------------------
 Symbolic Z-matrix:
 Charge =  0 Multiplicity = 1

                         Standard orientation:
 ---------------------------------------------------------------------
 Center     Atomic      Atomic             Coordinates (Angstroms)
 Number     Number       Type             X           Y           Z
 ---------------------------------------------------------------------
      1         12           0        5.455602    0.447562   -0.035714
      2          6           0        3.454531   -2.422386   -0.124664
      3          6           0        2.726506    2.283328   -0.585790
      4          6           0        7.474052    3.074749   -0.262738
      5          6           0        8.242015   -1.627477    0.547240
      6          7           0        3.305610   -0.108926   -0.482419
      7          6           0        2.671453   -1.252184   -0.216475
      8          6           0        1.136425   -1.186600   -0.085164
      9          6           0        0.929536    0.337123   -0.516801
     10          6           0        2.414322    0.870010   -0.440871
     11          6           0        0.188536    0.574293   -1.877049
     12          6           0        0.533824   -1.626784    1.230842
     13          6           0       -0.385095   -2.825420    1.234776
     14          6           0       -1.776145   -2.687898    1.825064
     15          8           0       -2.063395   -2.854793    3.030398
     16          8           0       -2.609717   -2.233197    0.793177
     17          7           0        5.111973    2.360955   -0.263337
     18          6           0        3.948279    2.958659   -0.546120
     19          6           0        4.098602    4.366390   -0.673264
     20          6           0        5.481124    4.553238   -0.599580
     21          6           0        6.098763    3.314440   -0.353128
     22          6           0        2.918595    5.256450   -0.844531
     23          6           0        6.265373    5.920657   -0.818915
     24          8           0        7.494934    6.169729   -0.783806
     25          6           0        5.502821    7.215209   -0.941993
     26          7           0        7.595591    0.726366   -0.050143
     27          6           0        8.184392    1.910902   -0.204119
     28          6           0        9.704934    1.883142    0.115461
     29          6           0        9.864179    0.381501    0.628047
     30          6           0        8.462294   -0.241585    0.407435
     31          6           0       10.486872    2.248558   -1.120885
     32          6           0       10.286475    0.342353    2.104334
     33          6           0        9.185523    0.132168    3.251442
     34          7           0        5.838491   -1.588214    0.030322
     35          6           0        6.983526   -2.258172    0.322958
     36          6           0        6.782904   -3.708920    0.217315
     37          6           0        5.423506   -3.819638    0.072704
     38          6           0        4.897207   -2.479186   -0.032237
     39          6           0        7.769467   -4.763565    0.458654
     40          6           0        4.312553   -4.676516   -0.081228
     41          8           0        4.263252   -5.897292   -0.249490
     42          6           0        2.953221   -3.806789   -0.101293
     43          6           0        2.219504   -4.094365   -1.348127
     44          8           0        2.658613   -3.816223   -2.486820
     45          8           0        1.146713   -4.939918   -1.184359
     46          6           0        0.376790   -5.138839   -2.369975
     47          6           0       -4.019425   -2.066345    1.256313
     48          6           0       -4.733138   -1.195620    0.232873
     49          6           0       -6.076425   -1.098990    0.204730
     50          6           0       -7.114624   -1.821092    1.160776
     51          6           0       -6.849514   -0.241177   -0.859597
     52          6           0       -6.702311    1.340371   -0.581899
     53          6           0       -8.044624    2.082142   -0.351575
     54          6           0       -8.058290    3.029343    0.852100
     55          6           0       -6.943298    4.027443    0.880629
     56          6           0       -8.359462    2.337434    2.239049
     57          6           0       -9.949183    2.279435    2.579745
     58          6           0      -10.603185    0.870869    2.395869
     59          6           0      -12.103051    1.017638    1.897643
     60          6           0      -13.097729    0.714392    3.065038
     61          6           0      -12.393450    0.165454    0.688276
     62          6           0      -12.982023    0.868027   -0.553352
     63          6           0      -12.231687    0.784677   -1.889996
     64          6           0      -12.247217   -0.591953   -2.682531
     65          6           0      -10.876397   -1.179302   -3.112636
     66          6           0      -13.209703   -0.388929   -3.906163
     67          1           0        1.861816    2.940690   -0.698202
     68          1           0        8.101669    3.968866   -0.254629
     69          1           0        9.107802   -2.264210    0.737390
     70          1           0        0.759604   -1.900558   -0.818133
     71          1           0        0.161943    0.801089    0.101724
     72          1           0       -0.502027    1.416203   -1.893291
     73          1           0       -0.264173   -0.386350   -2.122062
     74          1           0        0.895278    0.855218   -2.657901
     75          1           0        0.059985   -0.765893    1.701176
     76          1           0        1.410181   -1.874198    1.828930
     77          1           0       -0.042675   -3.553772    1.968480
     78          1           0       -0.490163   -3.249074    0.236049
     79          1           0        2.314118    4.767012   -1.608164
     80          1           0        3.116784    6.222152   -1.310814
     81          1           0        2.250638    5.303562    0.014669
     82          1           0        4.709718    7.398766   -0.216799
     83          1           0        5.114492    7.201851   -1.960260
     84          1           0        6.136483    8.099375   -0.887425
     85          1           0        9.842289    2.606257    0.919217
     86          1           0       10.609497   -0.219599    0.106015
     87          1           0       11.099273    1.429262   -1.498678
     88          1           0       11.164572    3.002540   -0.719896
     89          1           0        9.844307    2.755879   -1.840172
     90          1           0       10.884723    1.202557    2.404703
     91          1           0       10.868744   -0.574705    2.016200
     92          1           0        8.178831   -0.104745    2.906894
     93          1           0        9.246918    0.991125    3.920002
     94          1           0        9.335322   -0.757416    3.864887
     95          1           0        8.800394   -4.426179    0.561749
     96          1           0        7.764743   -5.427030   -0.405006
     97          1           0        7.477542   -5.347346    1.331280
     98          1           0        2.229787   -3.870909    0.711100
     99          1           0        0.928660   -5.408549   -3.271070
    100          1           0       -0.148837   -4.229899   -2.659964
    101          1           0       -0.365067   -5.929185   -2.257480
    102          1           0       -4.261079   -1.692355    2.250985
    103          1           0       -4.523624   -3.027437    1.160566
    104          1           0       -4.249494   -0.604603   -0.544441
    105          1           0       -7.705739   -1.038533    1.636069
    106          1           0       -6.626553   -2.399871    1.944826
    107          1           0       -7.584863   -2.529630    0.479823
    108          1           0       -7.863305   -0.635792   -0.933894
    109          1           0       -6.383538   -0.413159   -1.830049
    110          1           0       -6.239555    1.746336   -1.481067
    111          1           0       -6.041371    1.408910    0.282064
    112          1           0       -8.806140    1.326038   -0.158049
    113          1           0       -8.449162    2.543249   -1.252006
    114          1           0       -8.859302    3.685954    0.512447
    115          1           0       -6.275335    3.837515    0.040108
    116          1           0       -6.338340    3.944704    1.783659
    117          1           0       -7.347468    5.026426    0.713068
    118          1           0       -7.905204    2.927451    3.034493
    119          1           0       -8.000106    1.313703    2.346699
    120          1           0      -10.444279    3.063158    2.004975
    121          1           0       -9.917188    2.525943    3.640158
    122          1           0      -10.629291    0.464118    3.407044
    123          1           0      -10.034787    0.368990    1.612915
    124          1           0      -12.310733    2.032365    1.561178
    125          1           0      -13.609671    1.665664    3.212372
    126          1           0      -12.644762    0.406019    4.006713
    127          1           0      -13.822956   -0.077996    2.881965
    128          1           0      -13.192921   -0.547176    0.887679
    129          1           0      -11.582095   -0.495082    0.380355
    130          1           0      -13.062759    1.944351   -0.401910
    131          1           0      -13.969721    0.413351   -0.637279
    132          1           0      -11.186593    0.964266   -1.636725
    133          1           0      -12.599026    1.565061   -2.556449
    134          1           0      -12.834716   -1.249034   -2.041653
    135          1           0      -10.049990   -0.545527   -2.791807
    136          1           0      -10.759950   -1.407637   -4.172865
    137          1           0      -10.817980   -2.156518   -2.632743
    138          1           0      -12.735307   -0.701856   -4.836310
    139          1           0      -13.635338    0.587768   -4.137846
    140          1           0      -14.047794   -1.084347   -3.870458
 ---------------------------------------------------------------------

 SCF Done:  E(RB-LYP) =  -3007.31124376     A.U. after   21 cycles

 Excitation energies and oscillator strengths:

 Excited State   1:      Singlet-A      1.8523 eV  669.36 nm  f=0.2634  <S**2>=0.000
     244 -> 247       -0.13285
     245 -> 248       -0.20215
     246 -> 247        0.66727
     246 <- 247       -0.13234
 This state for optimization and/or second-order correction.
 Total Energy, E(TD-HF/TD-DFT) =  -3007.24317345
 Copying the excited state density for this state as the 1-particle RhoCI density.

 Excited State   2:      Singlet-A      1.9193 eV  645.98 nm  f=0.0385  <S**2>=0.000
     243 -> 247        0.10521
     244 -> 247        0.59219
     245 -> 247       -0.32822
     246 -> 247        0.13754

 Excited State   3:      Singlet-A      1.9909 eV  622.74 nm  f=0.0071  <S**2>=0.000
     243 -> 247        0.62894
     244 -> 247       -0.22922
     245 -> 247       -0.20841

 Excited State   4:      Singlet-A      2.0446 eV  606.40 nm  f=0.0621  <S**2>=0.000
     243 -> 247        0.30217
     244 -> 247        0.27656
     245 -> 247        0.52170
     246 -> 248        0.22334

 Excited State   5:      Singlet-A      2.3391 eV  530.04 nm  f=0.0001  <S**2>=0.000
     242 -> 247        0.70707

 The electronic state is 1-A.
 Alpha  occ. eigenvalues --  -46.27074 -18.83313 -18.82581 -18.77879 -18.76217
 Alpha  occ. eigenvalues --  -18.76079 -18.75461 -14.03777 -14.02851 -14.01454
 Alpha  occ. eigenvalues --  -14.01028 -10.04698 -10.03616 -10.00830  -9.99768
 Alpha  occ. eigenvalues --   -9.98444  -9.97273  -9.97167  -9.96567  -9.96520
 Alpha  occ. eigenvalues --   -9.95809  -9.95534  -9.95506  -9.95145  -9.94937
 Alpha  occ. eigenvalues --   -9.94902  -9.94717  -9.93810  -9.93714  -9.93712
 Alpha  occ. eigenvalues --   -9.93707  -9.93586  -9.93417  -9.93415  -9.93303
 Alpha  occ. eigenvalues --   -9.93300  -9.93290  -9.93189  -9.93115  -9.93058
 Alpha  occ. eigenvalues --   -9.92948  -9.92767  -9.92744  -9.92531  -9.92502
 Alpha  occ. eigenvalues --   -9.92431  -9.92129  -9.92025  -9.91930  -9.91915
 Alpha  occ. eigenvalues --   -9.91804  -9.91699  -9.91679  -9.91649  -9.91610
 Alpha  occ. eigenvalues --   -9.91492  -9.91482  -9.91444  -9.91406  -9.91167
 Alpha  occ. eigenvalues --   -9.91144  -9.91125  -9.90895  -9.90655  -9.90564
 Alpha  occ. eigenvalues --   -9.90552  -2.91909  -1.72321  -1.71803  -1.71623
 Alpha  occ. eigenvalues --   -0.97919  -0.96849  -0.90682  -0.90540  -0.89693
 Alpha  occ. eigenvalues --   -0.88560  -0.88316  -0.87645  -0.87103  -0.85625
 Alpha  occ. eigenvalues --   -0.75865  -0.73981  -0.73199  -0.72661  -0.72593
 Alpha  occ. eigenvalues --   -0.71892  -0.71665  -0.71569  -0.71120  -0.70582
 Alpha  occ. eigenvalues --   -0.70544  -0.69562  -0.67838  -0.67709  -0.67299
 Alpha  occ. eigenvalues --   -0.66549  -0.65855  -0.65333  -0.64946  -0.64543
 Alpha  occ. eigenvalues --   -0.64170  -0.63226  -0.63006  -0.61702  -0.61177
 Alpha  occ. eigenvalues --   -0.60501  -0.60342  -0.60178  -0.59482  -0.59235
 Alpha  occ. eigenvalues --   -0.58586  -0.58053  -0.56513  -0.56132  -0.55315
 Alpha  occ. eigenvalues --   -0.54356  -0.54002  -0.53170  -0.52913  -0.51943
 Alpha  occ. eigenvalues --   -0.51349  -0.51194  -0.50906  -0.50667  -0.50265
 Alpha  occ. eigenvalues --   -0.50171  -0.48713  -0.48497  -0.47777  -0.47311
 Alpha  occ. eigenvalues --   -0.46995  -0.46134  -0.45574  -0.45301  -0.44438
 Alpha  occ. eigenvalues --   -0.43930  -0.43702  -0.43410  -0.42668  -0.42226
 Alpha  occ. eigenvalues --   -0.42159  -0.41807  -0.41690  -0.41543  -0.41264
 Alpha  occ. eigenvalues --   -0.41125  -0.40923  -0.40567  -0.40411  -0.40143
 Alpha  occ. eigenvalues --   -0.39970  -0.39876  -0.39643  -0.39391  -0.39255
 Alpha  occ. eigenvalues --   -0.39115  -0.38988  -0.38955  -0.38720  -0.38278
 Alpha  occ. eigenvalues --   -0.38216  -0.38084  -0.38004  -0.37546  -0.37397
 Alpha  occ. eigenvalues --   -0.37280  -0.37120  -0.36964  -0.36900  -0.36749
 Alpha  occ. eigenvalues --   -0.36597  -0.36308  -0.36247  -0.36185  -0.36023
 Alpha  occ. eigenvalues --   -0.35688  -0.35487  -0.35399  -0.35216  -0.35051
 Alpha  occ. eigenvalues --   -0.34903  -0.34629  -0.34406  -0.34164  -0.34044
 Alpha  occ. eigenvalues --   -0.33965  -0.33840  -0.33358  -0.33286  -0.33134
 Alpha  occ. eigenvalues --   -0.33012  -0.32788  -0.32704  -0.32694  -0.32493
 Alpha  occ. eigenvalues --   -0.32269  -0.32066  -0.31982  -0.31640  -0.31593
 Alpha  occ. eigenvalues --   -0.31416  -0.31283  -0.31135  -0.30981  -0.30903
 Alpha  occ. eigenvalues --   -0.30807  -0.30629  -0.30283  -0.30138  -0.29917
 Alpha  occ. eigenvalues --   -0.29768  -0.29548  -0.29449  -0.28969  -0.28937
 Alpha  occ. eigenvalues --   -0.28558  -0.28504  -0.28098  -0.27958  -0.27934
 Alpha  occ. eigenvalues --   -0.27451  -0.27161  -0.27008  -0.26633  -0.26408
 Alpha  occ. eigenvalues --   -0.26266  -0.26075  -0.25868  -0.25725  -0.25538
 Alpha  occ. eigenvalues --   -0.25408  -0.24721  -0.24547  -0.24087  -0.23801
 Alpha  occ. eigenvalues --   -0.23641  -0.22513  -0.22174  -0.21680  -0.21318
 Alpha  occ. eigenvalues --   -0.21157  -0.20070  -0.18694  -0.18525  -0.17185
 Alpha  occ. eigenvalues --   -0.16028
 Alpha virt. eigenvalues --   -0.11474  -0.07025  -0.06535  -0.05093  -0.04335
 Alpha virt. eigenvalues --   -0.03742  -0.02320  -0.01764  -0.01587  -0.00015
 Alpha virt. eigenvalues --    0.01094   0.01334   0.01370   0.02044   0.02204

 Mulliken charges:
               1
     1  Mg   0.711722
     2  C   -0.020626
     3  C   -0.098668
     4  C   -0.062042
     5  C   -0.078559
     6  N   -0.152214
     7  C   -0.107496
     8  C    0.006293
     9  C   -0.019755
    10  C    0.060468
    11  C    0.107957
    12  C    0.169447
    13  C    0.138844
    14  C    0.075012
    15  O   -0.207969
    16  O   -0.292933
    17  N   -0.323770
    18  C    0.142541
    19  C   -0.130921
    20  C    0.027692
    21  C    0.118091
    22  C    0.186573
    23  C   -0.028068
    24  O   -0.182368
    25  C    0.122165
    26  N   -0.204240
    27  C    0.003816
    28  C   -0.002940
    29  C    0.045249
    30  C    0.022823
    31  C    0.157514
    32  C    0.055385
    33  C    0.058233
    34  N   -0.192473
    35  C    0.106236
    36  C   -0.197416
    37  C    0.174604
    38  C    0.013419
    39  C    0.179235
    40  C   -0.059918
    41  O   -0.143810
    42  C    0.141231
    43  C    0.072213
    44  O   -0.217718
    45  O   -0.243996
    46  C    0.235500
    47  C    0.315398
    48  C   -0.062279
    49  C   -0.222154
    50  C    0.112201
    51  C    0.103106
    52  C    0.074787
    53  C    0.079147
    54  C   -0.057519
    55  C    0.122901
    56  C    0.094277
    57  C    0.024846
    58  C    0.123042
    59  C   -0.060518
    60  C    0.093989
    61  C    0.114034
    62  C    0.041730
    63  C    0.090459
    64  C   -0.084916
    65  C    0.110822
    66  C    0.071259
    67  H   -0.074789
    68  H   -0.050877
    69  H   -0.060800
    70  H   -0.015770
    71  H   -0.027006
    72  H   -0.004191
    73  H    0.000894
    74  H   -0.009415
    75  H   -0.013873
    76  H   -0.019621
    77  H   -0.000112
    78  H    0.004612
    79  H   -0.008519
    80  H   -0.020806
    81  H    0.007398
    82  H    0.010910
    83  H    0.007348
    84  H   -0.010442
    85  H   -0.015329
    86  H   -0.032540
    87  H   -0.005493
    88  H   -0.015519
    89  H    0.005626
    90  H   -0.011894
    91  H   -0.023453
    92  H    0.005208
    93  H   -0.004573
    94  H   -0.018146
    95  H   -0.021396
    96  H    0.008106
    97  H    0.015272
    98  H   -0.023626
    99  H    0.012207
   100  H   -0.010492
   101  H    0.006380
   102  H    0.025956
   103  H    0.007431
   104  H   -0.046598
   105  H    0.027311
   106  H   -0.021431
   107  H    0.017362
   108  H   -0.020987
   109  H   -0.028813
   110  H   -0.020586
   111  H   -0.013296
   112  H   -0.036398
   113  H   -0.033524
   114  H   -0.047588
   115  H   -0.030814
   116  H   -0.017405
   117  H   -0.017084
   118  H   -0.039411
   119  H   -0.027688
   120  H   -0.022534
   121  H   -0.032218
   122  H   -0.022683
   123  H   -0.006487
   124  H   -0.028763
   125  H   -0.012803
   126  H   -0.019748
   127  H   -0.015624
   128  H   -0.050792
   129  H   -0.042593
   130  H   -0.028753
   131  H   -0.032875
   132  H   -0.041974
   133  H   -0.029481
   134  H   -0.028302
   135  H   -0.001613
   136  H   -0.011812
   137  H   -0.013846
   138  H   -0.033360
   139  H   -0.010510
   140  H   -0.023916
 Sum of Mulliken charges =  -0.00000

 Dipole moment (field-independent basis, Debye):
    X=             -3.3294    Y=              3.3786    Z=              0.6999  Tot=              4.7947
 Quadrupole moment (field-independent basis, Debye-Ang):
   XX=           -376.2534   YY=           -435.2413   ZZ=           -415.0060
   XY=             -5.5351   XZ=             20.5686   YZ=              0.6429

 Normal termination of Gaussian 16 at Wed May  4 10:05:10 2022.
