 Gaussian 16, Revision A.03,
 Gaussian 16:  ES64L-G16RevA.03 25-Dec-2016

 -----------------------------------
 #p cam-b3lyp/Def2SVP td=(nstates=5)
 -----------------------------------

 --------------------------------------------------------
 step_1551_chromophore_13 TDDFT with cam-b3lyp functional
 --------------------------------------------------------
 Symbolic Z-matrix:
 Charge =  0 Multiplicity = 1

                         Standard orientation:
 ---------------------------------------------------------------------
 Center     Atomic      Atomic             Coordinates (Angstroms)
 Number     Number       Type             X           Y           Z
 ---------------------------------------------------------------------
      1         12           0        5.455602    0.447562   -0.035714
      2          6           0        3.454531   -2.422386   -0.124664
      3          6           0        2.726506    2.283328   -0.585790
      4          6           0        7.474052    3.074749   -0.262738
      5          6           0        8.242015   -1.627477    0.547240
      6          7           0        3.305610   -0.108926   -0.482419
      7          6           0        2.671453   -1.252184   -0.216475
      8          6           0        1.136425   -1.186600   -0.085164
      9          6           0        0.929536    0.337123   -0.516801
     10          6           0        2.414322    0.870010   -0.440871
     11          6           0        0.188536    0.574293   -1.877049
     12          6           0        0.533824   -1.626784    1.230842
     13          6           0       -0.385095   -2.825420    1.234776
     14          6           0       -1.776145   -2.687898    1.825064
     15          8           0       -2.063395   -2.854793    3.030398
     16          8           0       -2.609717   -2.233197    0.793177
     17          7           0        5.111973    2.360955   -0.263337
     18          6           0        3.948279    2.958659   -0.546120
     19          6           0        4.098602    4.366390   -0.673264
     20          6           0        5.481124    4.553238   -0.599580
     21          6           0        6.098763    3.314440   -0.353128
     22          6           0        2.918595    5.256450   -0.844531
     23          6           0        6.265373    5.920657   -0.818915
     24          8           0        7.494934    6.169729   -0.783806
     25          6           0        5.502821    7.215209   -0.941993
     26          7           0        7.595591    0.726366   -0.050143
     27          6           0        8.184392    1.910902   -0.204119
     28          6           0        9.704934    1.883142    0.115461
     29          6           0        9.864179    0.381501    0.628047
     30          6           0        8.462294   -0.241585    0.407435
     31          6           0       10.486872    2.248558   -1.120885
     32          6           0       10.286475    0.342353    2.104334
     33          6           0        9.185523    0.132168    3.251442
     34          7           0        5.838491   -1.588214    0.030322
     35          6           0        6.983526   -2.258172    0.322958
     36          6           0        6.782904   -3.708920    0.217315
     37          6           0        5.423506   -3.819638    0.072704
     38          6           0        4.897207   -2.479186   -0.032237
     39          6           0        7.769467   -4.763565    0.458654
     40          6           0        4.312553   -4.676516   -0.081228
     41          8           0        4.263252   -5.897292   -0.249490
     42          6           0        2.953221   -3.806789   -0.101293
     43          6           0        2.219504   -4.094365   -1.348127
     44          8           0        2.658613   -3.816223   -2.486820
     45          8           0        1.146713   -4.939918   -1.184359
     46          6           0        0.376790   -5.138839   -2.369975
     47          6           0       -4.019425   -2.066345    1.256313
     48          6           0       -4.733138   -1.195620    0.232873
     49          6           0       -6.076425   -1.098990    0.204730
     50          6           0       -7.114624   -1.821092    1.160776
     51          6           0       -6.849514   -0.241177   -0.859597
     52          6           0       -6.702311    1.340371   -0.581899
     53          6           0       -8.044624    2.082142   -0.351575
     54          6           0       -8.058290    3.029343    0.852100
     55          6           0       -6.943298    4.027443    0.880629
     56          6           0       -8.359462    2.337434    2.239049
     57          6           0       -9.949183    2.279435    2.579745
     58          6           0      -10.603185    0.870869    2.395869
     59          6           0      -12.103051    1.017638    1.897643
     60          6           0      -13.097729    0.714392    3.065038
     61          6           0      -12.393450    0.165454    0.688276
     62          6           0      -12.982023    0.868027   -0.553352
     63          6           0      -12.231687    0.784677   -1.889996
     64          6           0      -12.247217   -0.591953   -2.682531
     65          6           0      -10.876397   -1.179302   -3.112636
     66          6           0      -13.209703   -0.388929   -3.906163
     67          1           0        1.861816    2.940690   -0.698202
     68          1           0        8.101669    3.968866   -0.254629
     69          1           0        9.107802   -2.264210    0.737390
     70          1           0        0.759604   -1.900558   -0.818133
     71          1           0        0.161943    0.801089    0.101724
     72          1           0       -0.502027    1.416203   -1.893291
     73          1           0       -0.264173   -0.386350   -2.122062
     74          1           0        0.895278    0.855218   -2.657901
     75          1           0        0.059985   -0.765893    1.701176
     76          1           0        1.410181   -1.874198    1.828930
     77          1           0       -0.042675   -3.553772    1.968480
     78          1           0       -0.490163   -3.249074    0.236049
     79          1           0        2.314118    4.767012   -1.608164
     80          1           0        3.116784    6.222152   -1.310814
     81          1           0        2.250638    5.303562    0.014669
     82          1           0        4.709718    7.398766   -0.216799
     83          1           0        5.114492    7.201851   -1.960260
     84          1           0        6.136483    8.099375   -0.887425
     85          1           0        9.842289    2.606257    0.919217
     86          1           0       10.609497   -0.219599    0.106015
     87          1           0       11.099273    1.429262   -1.498678
     88          1           0       11.164572    3.002540   -0.719896
     89          1           0        9.844307    2.755879   -1.840172
     90          1           0       10.884723    1.202557    2.404703
     91          1           0       10.868744   -0.574705    2.016200
     92          1           0        8.178831   -0.104745    2.906894
     93          1           0        9.246918    0.991125    3.920002
     94          1           0        9.335322   -0.757416    3.864887
     95          1           0        8.800394   -4.426179    0.561749
     96          1           0        7.764743   -5.427030   -0.405006
     97          1           0        7.477542   -5.347346    1.331280
     98          1           0        2.229787   -3.870909    0.711100
     99          1           0        0.928660   -5.408549   -3.271070
    100          1           0       -0.148837   -4.229899   -2.659964
    101          1           0       -0.365067   -5.929185   -2.257480
    102          1           0       -4.261079   -1.692355    2.250985
    103          1           0       -4.523624   -3.027437    1.160566
    104          1           0       -4.249494   -0.604603   -0.544441
    105          1           0       -7.705739   -1.038533    1.636069
    106          1           0       -6.626553   -2.399871    1.944826
    107          1           0       -7.584863   -2.529630    0.479823
    108          1           0       -7.863305   -0.635792   -0.933894
    109          1           0       -6.383538   -0.413159   -1.830049
    110          1           0       -6.239555    1.746336   -1.481067
    111          1           0       -6.041371    1.408910    0.282064
    112          1           0       -8.806140    1.326038   -0.158049
    113          1           0       -8.449162    2.543249   -1.252006
    114          1           0       -8.859302    3.685954    0.512447
    115          1           0       -6.275335    3.837515    0.040108
    116          1           0       -6.338340    3.944704    1.783659
    117          1           0       -7.347468    5.026426    0.713068
    118          1           0       -7.905204    2.927451    3.034493
    119          1           0       -8.000106    1.313703    2.346699
    120          1           0      -10.444279    3.063158    2.004975
    121          1           0       -9.917188    2.525943    3.640158
    122          1           0      -10.629291    0.464118    3.407044
    123          1           0      -10.034787    0.368990    1.612915
    124          1           0      -12.310733    2.032365    1.561178
    125          1           0      -13.609671    1.665664    3.212372
    126          1           0      -12.644762    0.406019    4.006713
    127          1           0      -13.822956   -0.077996    2.881965
    128          1           0      -13.192921   -0.547176    0.887679
    129          1           0      -11.582095   -0.495082    0.380355
    130          1           0      -13.062759    1.944351   -0.401910
    131          1           0      -13.969721    0.413351   -0.637279
    132          1           0      -11.186593    0.964266   -1.636725
    133          1           0      -12.599026    1.565061   -2.556449
    134          1           0      -12.834716   -1.249034   -2.041653
    135          1           0      -10.049990   -0.545527   -2.791807
    136          1           0      -10.759950   -1.407637   -4.172865
    137          1           0      -10.817980   -2.156518   -2.632743
    138          1           0      -12.735307   -0.701856   -4.836310
    139          1           0      -13.635338    0.587768   -4.137846
    140          1           0      -14.047794   -1.084347   -3.870458
 ---------------------------------------------------------------------

 SCF Done:  E(RCAM-B3LYP) =  -3007.10266279     A.U. after   18 cycles

 Excitation energies and oscillator strengths:

 Excited State   1:      Singlet-A      1.7655 eV  702.25 nm  f=0.3560  <S**2>=0.000
     245 -> 248       -0.20051
     246 -> 247        0.67993
     245 <- 248       -0.11088
 This state for optimization and/or second-order correction.
 Total Energy, E(TD-HF/TD-DFT) =  -3007.03778126
 Copying the excited state density for this state as the 1-particle RhoCI density.

 Excited State   2:      Singlet-A      2.2413 eV  553.18 nm  f=0.1092  <S**2>=0.000
     245 -> 247        0.63647
     246 -> 248        0.30121

 Excited State   3:      Singlet-A      3.4983 eV  354.42 nm  f=0.0178  <S**2>=0.000
     240 -> 247       -0.15698
     241 -> 247        0.22045
     241 -> 249        0.11239
     242 -> 247        0.29351
     242 -> 249        0.18458
     242 -> 250        0.11656
     243 -> 247        0.38778
     243 -> 249        0.20771
     243 -> 250        0.14089
     246 -> 248        0.11121

 Excited State   4:      Singlet-A      3.5247 eV  351.76 nm  f=0.1483  <S**2>=0.000
     239 -> 247       -0.12713
     241 -> 247        0.29709
     241 -> 249       -0.26246
     241 -> 250        0.17288
     242 -> 247       -0.29621
     242 -> 249        0.16784
     242 -> 250       -0.16432
     245 -> 247       -0.13127
     246 -> 248        0.28352

 Excited State   5:      Singlet-A      3.5580 eV  348.47 nm  f=0.5568  <S**2>=0.000
     241 -> 247       -0.19789
     241 -> 250       -0.11388
     242 -> 247        0.15192
     242 -> 249       -0.14055
     243 -> 247       -0.15727
     245 -> 247       -0.24578
     246 -> 248        0.53254

 The electronic state is 1-A.
 Alpha  occ. eigenvalues --  -46.88565 -19.26264 -19.25609 -19.20961 -19.19467
 Alpha  occ. eigenvalues --  -19.19294 -19.18537 -14.42722 -14.41607 -14.39840
 Alpha  occ. eigenvalues --  -14.39472 -10.40188 -10.39200 -10.36185 -10.35099
 Alpha  occ. eigenvalues --  -10.32575 -10.31895 -10.31129 -10.30925 -10.30870
 Alpha  occ. eigenvalues --  -10.29998 -10.29920 -10.29900 -10.29512 -10.29144
 Alpha  occ. eigenvalues --  -10.29038 -10.28856 -10.28399 -10.28142 -10.28021
 Alpha  occ. eigenvalues --  -10.27881 -10.27719 -10.27705 -10.27463 -10.27450
 Alpha  occ. eigenvalues --  -10.27379 -10.27316 -10.27307 -10.27212 -10.27206
 Alpha  occ. eigenvalues --  -10.26725 -10.26504 -10.26438 -10.26311 -10.26287
 Alpha  occ. eigenvalues --  -10.26094 -10.25963 -10.25920 -10.25772 -10.25762
 Alpha  occ. eigenvalues --  -10.25700 -10.25458 -10.25407 -10.25375 -10.25367
 Alpha  occ. eigenvalues --  -10.25242 -10.25188 -10.25133 -10.25099 -10.25079
 Alpha  occ. eigenvalues --  -10.24867 -10.24797 -10.24495 -10.24259 -10.24201
 Alpha  occ. eigenvalues --  -10.24196  -3.17315  -1.92199  -1.91767  -1.91643
 Alpha  occ. eigenvalues --   -1.16484  -1.15294  -1.08976  -1.08923  -1.07608
 Alpha  occ. eigenvalues --   -1.06560  -1.06128  -1.05282  -1.04844  -1.03186
 Alpha  occ. eigenvalues --   -0.93053  -0.90876  -0.90066  -0.89463  -0.89374
 Alpha  occ. eigenvalues --   -0.88620  -0.88234  -0.88192  -0.87793  -0.87160
 Alpha  occ. eigenvalues --   -0.87148  -0.86014  -0.84070  -0.83900  -0.83495
 Alpha  occ. eigenvalues --   -0.82618  -0.81887  -0.81268  -0.80862  -0.80551
 Alpha  occ. eigenvalues --   -0.79969  -0.78988  -0.78713  -0.77129  -0.76605
 Alpha  occ. eigenvalues --   -0.75909  -0.75731  -0.75439  -0.74783  -0.74518
 Alpha  occ. eigenvalues --   -0.73682  -0.73091  -0.71430  -0.70985  -0.69926
 Alpha  occ. eigenvalues --   -0.68970  -0.68622  -0.67679  -0.67417  -0.66214
 Alpha  occ. eigenvalues --   -0.65456  -0.65291  -0.65032  -0.64629  -0.64249
 Alpha  occ. eigenvalues --   -0.64124  -0.62412  -0.62390  -0.61547  -0.61038
 Alpha  occ. eigenvalues --   -0.60690  -0.59685  -0.58968  -0.58799  -0.58108
 Alpha  occ. eigenvalues --   -0.57379  -0.57013  -0.56529  -0.55868  -0.55530
 Alpha  occ. eigenvalues --   -0.55328  -0.54978  -0.54810  -0.54481  -0.54127
 Alpha  occ. eigenvalues --   -0.53969  -0.53689  -0.53298  -0.53018  -0.52962
 Alpha  occ. eigenvalues --   -0.52760  -0.52573  -0.52417  -0.52156  -0.51799
 Alpha  occ. eigenvalues --   -0.51670  -0.51527  -0.51371  -0.51163  -0.50756
 Alpha  occ. eigenvalues --   -0.50623  -0.50545  -0.50397  -0.49866  -0.49707
 Alpha  occ. eigenvalues --   -0.49619  -0.49279  -0.49235  -0.49150  -0.48906
 Alpha  occ. eigenvalues --   -0.48776  -0.48728  -0.48662  -0.48430  -0.48215
 Alpha  occ. eigenvalues --   -0.48067  -0.47897  -0.47591  -0.47329  -0.47051
 Alpha  occ. eigenvalues --   -0.46943  -0.46830  -0.46127  -0.46049  -0.45733
 Alpha  occ. eigenvalues --   -0.45701  -0.45571  -0.45077  -0.45056  -0.44970
 Alpha  occ. eigenvalues --   -0.44767  -0.44586  -0.44400  -0.44301  -0.44226
 Alpha  occ. eigenvalues --   -0.44004  -0.43657  -0.43550  -0.43502  -0.43163
 Alpha  occ. eigenvalues --   -0.42865  -0.42845  -0.42601  -0.42448  -0.42332
 Alpha  occ. eigenvalues --   -0.42212  -0.41998  -0.41921  -0.41720  -0.41466
 Alpha  occ. eigenvalues --   -0.41155  -0.40993  -0.40733  -0.40079  -0.40007
 Alpha  occ. eigenvalues --   -0.39788  -0.39552  -0.39052  -0.38857  -0.38814
 Alpha  occ. eigenvalues --   -0.38483  -0.38302  -0.37975  -0.37497  -0.37396
 Alpha  occ. eigenvalues --   -0.37098  -0.36788  -0.36559  -0.36493  -0.36282
 Alpha  occ. eigenvalues --   -0.36224  -0.36024  -0.35104  -0.34789  -0.34509
 Alpha  occ. eigenvalues --   -0.34182  -0.33880  -0.33368  -0.31506  -0.31082
 Alpha  occ. eigenvalues --   -0.30724  -0.30679  -0.30620  -0.29847  -0.23873
 Alpha  occ. eigenvalues --   -0.21342
 Alpha virt. eigenvalues --   -0.08458  -0.01917   0.00077   0.01902   0.02570
 Alpha virt. eigenvalues --    0.03266   0.03883   0.05458   0.05751   0.06505
 Alpha virt. eigenvalues --    0.07424   0.07545   0.08226   0.08468   0.08631

 Mulliken charges:
               1
     1  Mg   0.847173
     2  C   -0.038415
     3  C   -0.106911
     4  C   -0.080438
     5  C   -0.082180
     6  N   -0.217777
     7  C   -0.069365
     8  C   -0.039467
     9  C   -0.063300
    10  C    0.067514
    11  C    0.054107
    12  C    0.111250
    13  C    0.064536
    14  C    0.161129
    15  O   -0.249284
    16  O   -0.356998
    17  N   -0.418788
    18  C    0.149345
    19  C   -0.135863
    20  C   -0.041260
    21  C    0.141393
    22  C    0.122741
    23  C    0.054321
    24  O   -0.222688
    25  C    0.037145
    26  N   -0.276778
    27  C    0.027664
    28  C   -0.058731
    29  C   -0.006318
    30  C    0.032033
    31  C    0.097599
    32  C    0.002038
    33  C   -0.000647
    34  N   -0.284397
    35  C    0.106977
    36  C   -0.188623
    37  C    0.091688
    38  C    0.051253
    39  C    0.124909
    40  C    0.038910
    41  O   -0.183153
    42  C    0.058062
    43  C    0.162643
    44  O   -0.251535
    45  O   -0.305773
    46  C    0.189254
    47  C    0.282084
    48  C   -0.084440
    49  C   -0.244103
    50  C    0.059366
    51  C    0.052247
    52  C    0.015543
    53  C    0.040035
    54  C   -0.118750
    55  C    0.060435
    56  C    0.043014
    57  C   -0.022062
    58  C    0.074162
    59  C   -0.119765
    60  C    0.039931
    61  C    0.058240
    62  C   -0.007965
    63  C    0.045421
    64  C   -0.149601
    65  C    0.055592
    66  C    0.015566
    67  H   -0.038305
    68  H   -0.009423
    69  H   -0.025510
    70  H    0.014437
    71  H    0.007953
    72  H    0.019034
    73  H    0.023919
    74  H    0.016883
    75  H    0.018393
    76  H    0.014685
    77  H    0.032643
    78  H    0.035363
    79  H    0.019067
    80  H    0.009797
    81  H    0.037071
    82  H    0.038189
    83  H    0.032810
    84  H    0.025468
    85  H    0.019131
    86  H    0.003023
    87  H    0.019362
    88  H    0.009195
    89  H    0.031672
    90  H    0.015402
    91  H    0.003667
    92  H    0.026806
    93  H    0.018320
    94  H    0.006591
    95  H    0.003634
    96  H    0.035155
    97  H    0.040682
    98  H    0.018961
    99  H    0.039555
   100  H    0.010857
   101  H    0.031388
   102  H    0.054743
   103  H    0.033565
   104  H   -0.010419
   105  H    0.043464
   106  H    0.003307
   107  H    0.040587
   108  H    0.004213
   109  H    0.002434
   110  H    0.007742
   111  H    0.014978
   112  H   -0.016289
   113  H   -0.004211
   114  H   -0.013097
   115  H   -0.005626
   116  H    0.006975
   117  H    0.008539
   118  H   -0.008305
   119  H   -0.004611
   120  H    0.003202
   121  H   -0.003428
   122  H    0.005719
   123  H    0.012455
   124  H    0.002062
   125  H    0.010574
   126  H    0.003391
   127  H    0.008170
   128  H   -0.019466
   129  H   -0.015234
   130  H   -0.001403
   131  H   -0.005542
   132  H   -0.019140
   133  H   -0.000938
   134  H    0.002803
   135  H    0.017049
   136  H    0.012738
   137  H    0.009445
   138  H   -0.009048
   139  H    0.012600
   140  H    0.000185
 Sum of Mulliken charges =  -0.00000

 Dipole moment (field-independent basis, Debye):
    X=             -3.7457    Y=              4.0219    Z=              0.5910  Tot=              5.5277
 Quadrupole moment (field-independent basis, Debye-Ang):
   XX=           -376.1783   YY=           -432.1201   ZZ=           -415.2868
   XY=             -3.3741   XZ=             21.9651   YZ=              0.0299

 Normal termination of Gaussian 16 at Wed May  4 08:57:00 2022.
