 Gaussian 16, Revision A.03,
 Gaussian 16:  ES64L-G16RevA.03 25-Dec-2016

 ---------------------------------
 #p PBE1PBE/Def2SVP td=(nstates=5)
 ---------------------------------

 ------------------------------------------------------
 step_1551_chromophore_13 TDDFT with PBE1PBE functional
 ------------------------------------------------------
 Symbolic Z-matrix:
 Charge =  0 Multiplicity = 1

                         Standard orientation:
 ---------------------------------------------------------------------
 Center     Atomic      Atomic             Coordinates (Angstroms)
 Number     Number       Type             X           Y           Z
 ---------------------------------------------------------------------
      1         12           0        5.455602    0.447562   -0.035714
      2          6           0        3.454531   -2.422386   -0.124664
      3          6           0        2.726506    2.283328   -0.585790
      4          6           0        7.474052    3.074749   -0.262738
      5          6           0        8.242015   -1.627477    0.547240
      6          7           0        3.305610   -0.108926   -0.482419
      7          6           0        2.671453   -1.252184   -0.216475
      8          6           0        1.136425   -1.186600   -0.085164
      9          6           0        0.929536    0.337123   -0.516801
     10          6           0        2.414322    0.870010   -0.440871
     11          6           0        0.188536    0.574293   -1.877049
     12          6           0        0.533824   -1.626784    1.230842
     13          6           0       -0.385095   -2.825420    1.234776
     14          6           0       -1.776145   -2.687898    1.825064
     15          8           0       -2.063395   -2.854793    3.030398
     16          8           0       -2.609717   -2.233197    0.793177
     17          7           0        5.111973    2.360955   -0.263337
     18          6           0        3.948279    2.958659   -0.546120
     19          6           0        4.098602    4.366390   -0.673264
     20          6           0        5.481124    4.553238   -0.599580
     21          6           0        6.098763    3.314440   -0.353128
     22          6           0        2.918595    5.256450   -0.844531
     23          6           0        6.265373    5.920657   -0.818915
     24          8           0        7.494934    6.169729   -0.783806
     25          6           0        5.502821    7.215209   -0.941993
     26          7           0        7.595591    0.726366   -0.050143
     27          6           0        8.184392    1.910902   -0.204119
     28          6           0        9.704934    1.883142    0.115461
     29          6           0        9.864179    0.381501    0.628047
     30          6           0        8.462294   -0.241585    0.407435
     31          6           0       10.486872    2.248558   -1.120885
     32          6           0       10.286475    0.342353    2.104334
     33          6           0        9.185523    0.132168    3.251442
     34          7           0        5.838491   -1.588214    0.030322
     35          6           0        6.983526   -2.258172    0.322958
     36          6           0        6.782904   -3.708920    0.217315
     37          6           0        5.423506   -3.819638    0.072704
     38          6           0        4.897207   -2.479186   -0.032237
     39          6           0        7.769467   -4.763565    0.458654
     40          6           0        4.312553   -4.676516   -0.081228
     41          8           0        4.263252   -5.897292   -0.249490
     42          6           0        2.953221   -3.806789   -0.101293
     43          6           0        2.219504   -4.094365   -1.348127
     44          8           0        2.658613   -3.816223   -2.486820
     45          8           0        1.146713   -4.939918   -1.184359
     46          6           0        0.376790   -5.138839   -2.369975
     47          6           0       -4.019425   -2.066345    1.256313
     48          6           0       -4.733138   -1.195620    0.232873
     49          6           0       -6.076425   -1.098990    0.204730
     50          6           0       -7.114624   -1.821092    1.160776
     51          6           0       -6.849514   -0.241177   -0.859597
     52          6           0       -6.702311    1.340371   -0.581899
     53          6           0       -8.044624    2.082142   -0.351575
     54          6           0       -8.058290    3.029343    0.852100
     55          6           0       -6.943298    4.027443    0.880629
     56          6           0       -8.359462    2.337434    2.239049
     57          6           0       -9.949183    2.279435    2.579745
     58          6           0      -10.603185    0.870869    2.395869
     59          6           0      -12.103051    1.017638    1.897643
     60          6           0      -13.097729    0.714392    3.065038
     61          6           0      -12.393450    0.165454    0.688276
     62          6           0      -12.982023    0.868027   -0.553352
     63          6           0      -12.231687    0.784677   -1.889996
     64          6           0      -12.247217   -0.591953   -2.682531
     65          6           0      -10.876397   -1.179302   -3.112636
     66          6           0      -13.209703   -0.388929   -3.906163
     67          1           0        1.861816    2.940690   -0.698202
     68          1           0        8.101669    3.968866   -0.254629
     69          1           0        9.107802   -2.264210    0.737390
     70          1           0        0.759604   -1.900558   -0.818133
     71          1           0        0.161943    0.801089    0.101724
     72          1           0       -0.502027    1.416203   -1.893291
     73          1           0       -0.264173   -0.386350   -2.122062
     74          1           0        0.895278    0.855218   -2.657901
     75          1           0        0.059985   -0.765893    1.701176
     76          1           0        1.410181   -1.874198    1.828930
     77          1           0       -0.042675   -3.553772    1.968480
     78          1           0       -0.490163   -3.249074    0.236049
     79          1           0        2.314118    4.767012   -1.608164
     80          1           0        3.116784    6.222152   -1.310814
     81          1           0        2.250638    5.303562    0.014669
     82          1           0        4.709718    7.398766   -0.216799
     83          1           0        5.114492    7.201851   -1.960260
     84          1           0        6.136483    8.099375   -0.887425
     85          1           0        9.842289    2.606257    0.919217
     86          1           0       10.609497   -0.219599    0.106015
     87          1           0       11.099273    1.429262   -1.498678
     88          1           0       11.164572    3.002540   -0.719896
     89          1           0        9.844307    2.755879   -1.840172
     90          1           0       10.884723    1.202557    2.404703
     91          1           0       10.868744   -0.574705    2.016200
     92          1           0        8.178831   -0.104745    2.906894
     93          1           0        9.246918    0.991125    3.920002
     94          1           0        9.335322   -0.757416    3.864887
     95          1           0        8.800394   -4.426179    0.561749
     96          1           0        7.764743   -5.427030   -0.405006
     97          1           0        7.477542   -5.347346    1.331280
     98          1           0        2.229787   -3.870909    0.711100
     99          1           0        0.928660   -5.408549   -3.271070
    100          1           0       -0.148837   -4.229899   -2.659964
    101          1           0       -0.365067   -5.929185   -2.257480
    102          1           0       -4.261079   -1.692355    2.250985
    103          1           0       -4.523624   -3.027437    1.160566
    104          1           0       -4.249494   -0.604603   -0.544441
    105          1           0       -7.705739   -1.038533    1.636069
    106          1           0       -6.626553   -2.399871    1.944826
    107          1           0       -7.584863   -2.529630    0.479823
    108          1           0       -7.863305   -0.635792   -0.933894
    109          1           0       -6.383538   -0.413159   -1.830049
    110          1           0       -6.239555    1.746336   -1.481067
    111          1           0       -6.041371    1.408910    0.282064
    112          1           0       -8.806140    1.326038   -0.158049
    113          1           0       -8.449162    2.543249   -1.252006
    114          1           0       -8.859302    3.685954    0.512447
    115          1           0       -6.275335    3.837515    0.040108
    116          1           0       -6.338340    3.944704    1.783659
    117          1           0       -7.347468    5.026426    0.713068
    118          1           0       -7.905204    2.927451    3.034493
    119          1           0       -8.000106    1.313703    2.346699
    120          1           0      -10.444279    3.063158    2.004975
    121          1           0       -9.917188    2.525943    3.640158
    122          1           0      -10.629291    0.464118    3.407044
    123          1           0      -10.034787    0.368990    1.612915
    124          1           0      -12.310733    2.032365    1.561178
    125          1           0      -13.609671    1.665664    3.212372
    126          1           0      -12.644762    0.406019    4.006713
    127          1           0      -13.822956   -0.077996    2.881965
    128          1           0      -13.192921   -0.547176    0.887679
    129          1           0      -11.582095   -0.495082    0.380355
    130          1           0      -13.062759    1.944351   -0.401910
    131          1           0      -13.969721    0.413351   -0.637279
    132          1           0      -11.186593    0.964266   -1.636725
    133          1           0      -12.599026    1.565061   -2.556449
    134          1           0      -12.834716   -1.249034   -2.041653
    135          1           0      -10.049990   -0.545527   -2.791807
    136          1           0      -10.759950   -1.407637   -4.172865
    137          1           0      -10.817980   -2.156518   -2.632743
    138          1           0      -12.735307   -0.701856   -4.836310
    139          1           0      -13.635338    0.587768   -4.137846
    140          1           0      -14.047794   -1.084347   -3.870458
 ---------------------------------------------------------------------

 SCF Done:  E(RPBE1PBE) =  -3005.29238114     A.U. after   15 cycles

 Excitation energies and oscillator strengths:

 Excited State   1:      Singlet-A      1.9180 eV  646.42 nm  f=0.3465  <S**2>=0.000
     245 -> 248       -0.19427
     246 -> 247        0.68637
 This state for optimization and/or second-order correction.
 Total Energy, E(TD-HF/TD-DFT) =  -3005.22189563
 Copying the excited state density for this state as the 1-particle RhoCI density.

 Excited State   2:      Singlet-A      2.2440 eV  552.51 nm  f=0.1099  <S**2>=0.000
     245 -> 247        0.65003
     246 -> 248        0.27354

 Excited State   3:      Singlet-A      3.0233 eV  410.09 nm  f=0.0001  <S**2>=0.000
     242 -> 247        0.66074
     242 -> 249        0.18096
     242 -> 250        0.10788

 Excited State   4:      Singlet-A      3.0606 eV  405.10 nm  f=0.0010  <S**2>=0.000
     243 -> 247        0.65140
     243 -> 249       -0.19337
     243 -> 250        0.12443

 Excited State   5:      Singlet-A      3.3624 eV  368.73 nm  f=0.2319  <S**2>=0.000
     239 -> 247       -0.15256
     240 -> 247       -0.15190
     241 -> 247       -0.43498
     245 -> 247       -0.16972
     246 -> 248        0.45802

 The electronic state is 1-A.
 Alpha  occ. eigenvalues --  -46.91973 -19.27004 -19.26215 -19.21291 -19.19672
 Alpha  occ. eigenvalues --  -19.19512 -19.18846 -14.42147 -14.41159 -14.39480
 Alpha  occ. eigenvalues --  -14.39096 -10.37281 -10.36217 -10.33332 -10.32287
 Alpha  occ. eigenvalues --  -10.30000 -10.29569 -10.28739 -10.28726 -10.28344
 Alpha  occ. eigenvalues --  -10.27751 -10.27579 -10.27558 -10.27075 -10.26925
 Alpha  occ. eigenvalues --  -10.26842 -10.26670 -10.25931 -10.25769 -10.25735
 Alpha  occ. eigenvalues --  -10.25525 -10.25466 -10.25337 -10.25318 -10.25100
 Alpha  occ. eigenvalues --  -10.25025 -10.24960 -10.24926 -10.24920 -10.24664
 Alpha  occ. eigenvalues --  -10.24136 -10.24127 -10.24006 -10.23962 -10.23898
 Alpha  occ. eigenvalues --  -10.23574 -10.23525 -10.23496 -10.23489 -10.23295
 Alpha  occ. eigenvalues --  -10.23109 -10.23104 -10.23019 -10.22967 -10.22905
 Alpha  occ. eigenvalues --  -10.22836 -10.22818 -10.22683 -10.22660 -10.22475
 Alpha  occ. eigenvalues --  -10.22431 -10.22337 -10.21912 -10.21760 -10.21631
 Alpha  occ. eigenvalues --  -10.21615  -3.14298  -1.87125  -1.86669  -1.86551
 Alpha  occ. eigenvalues --   -1.11241  -1.10116  -1.03763  -1.03601  -1.02498
 Alpha  occ. eigenvalues --   -1.01314  -1.00818  -1.00025  -0.99479  -0.97830
 Alpha  occ. eigenvalues --   -0.87411  -0.85109  -0.84156  -0.83676  -0.83579
 Alpha  occ. eigenvalues --   -0.82761  -0.82574  -0.82533  -0.82083  -0.81467
 Alpha  occ. eigenvalues --   -0.81262  -0.80256  -0.78335  -0.78178  -0.77720
 Alpha  occ. eigenvalues --   -0.76815  -0.76130  -0.75531  -0.75052  -0.74758
 Alpha  occ. eigenvalues --   -0.74171  -0.73268  -0.72960  -0.71456  -0.70956
 Alpha  occ. eigenvalues --   -0.70054  -0.69833  -0.69777  -0.68926  -0.68687
 Alpha  occ. eigenvalues --   -0.68088  -0.67475  -0.65803  -0.65379  -0.64346
 Alpha  occ. eigenvalues --   -0.63436  -0.62853  -0.61911  -0.61781  -0.60624
 Alpha  occ. eigenvalues --   -0.59887  -0.59662  -0.59579  -0.59072  -0.58651
 Alpha  occ. eigenvalues --   -0.58382  -0.57004  -0.56577  -0.55799  -0.55553
 Alpha  occ. eigenvalues --   -0.55197  -0.54266  -0.53657  -0.53203  -0.52524
 Alpha  occ. eigenvalues --   -0.51928  -0.51542  -0.51168  -0.50281  -0.50042
 Alpha  occ. eigenvalues --   -0.49963  -0.49531  -0.49358  -0.48874  -0.48663
 Alpha  occ. eigenvalues --   -0.48430  -0.48306  -0.47807  -0.47445  -0.47399
 Alpha  occ. eigenvalues --   -0.47343  -0.47056  -0.46896  -0.46668  -0.46343
 Alpha  occ. eigenvalues --   -0.46228  -0.46048  -0.45953  -0.45681  -0.45328
 Alpha  occ. eigenvalues --   -0.45264  -0.45023  -0.44979  -0.44500  -0.44317
 Alpha  occ. eigenvalues --   -0.44226  -0.43896  -0.43793  -0.43726  -0.43522
 Alpha  occ. eigenvalues --   -0.43365  -0.43303  -0.43271  -0.43064  -0.42784
 Alpha  occ. eigenvalues --   -0.42695  -0.42522  -0.42270  -0.42023  -0.41774
 Alpha  occ. eigenvalues --   -0.41567  -0.41510  -0.40791  -0.40741  -0.40532
 Alpha  occ. eigenvalues --   -0.40500  -0.40264  -0.39937  -0.39768  -0.39734
 Alpha  occ. eigenvalues --   -0.39450  -0.39313  -0.39185  -0.39107  -0.38938
 Alpha  occ. eigenvalues --   -0.38833  -0.38428  -0.38380  -0.38213  -0.37935
 Alpha  occ. eigenvalues --   -0.37672  -0.37525  -0.37357  -0.37222  -0.37207
 Alpha  occ. eigenvalues --   -0.36942  -0.36752  -0.36684  -0.36529  -0.36225
 Alpha  occ. eigenvalues --   -0.36029  -0.35889  -0.35483  -0.34949  -0.34774
 Alpha  occ. eigenvalues --   -0.34699  -0.34321  -0.33877  -0.33836  -0.33657
 Alpha  occ. eigenvalues --   -0.33483  -0.33150  -0.32878  -0.32414  -0.32215
 Alpha  occ. eigenvalues --   -0.32166  -0.31771  -0.31583  -0.31434  -0.31184
 Alpha  occ. eigenvalues --   -0.31130  -0.30935  -0.29972  -0.29904  -0.29472
 Alpha  occ. eigenvalues --   -0.29151  -0.29026  -0.28487  -0.27097  -0.26712
 Alpha  occ. eigenvalues --   -0.26284  -0.25589  -0.25463  -0.25099  -0.20843
 Alpha  occ. eigenvalues --   -0.18973
 Alpha virt. eigenvalues --   -0.10990  -0.05391  -0.04189  -0.02493  -0.01318
 Alpha virt. eigenvalues --   -0.00834  -0.00111   0.01118   0.01376   0.02920
 Alpha virt. eigenvalues --    0.03649   0.04082   0.04471   0.04911   0.05133

 Mulliken charges:
               1
     1  Mg   0.999537
     2  C   -0.041325
     3  C   -0.091103
     4  C   -0.066475
     5  C   -0.064892
     6  N   -0.318626
     7  C    0.002723
     8  C   -0.109604
     9  C   -0.129287
    10  C    0.095849
    11  C   -0.001663
    12  C    0.064129
    13  C   -0.020941
    14  C    0.228052
    15  O   -0.280695
    16  O   -0.383973
    17  N   -0.547423
    18  C    0.166110
    19  C   -0.161076
    20  C   -0.090736
    21  C    0.167034
    22  C    0.062289
    23  C    0.106744
    24  O   -0.258920
    25  C   -0.038617
    26  N   -0.383560
    27  C    0.069885
    28  C   -0.139195
    29  C   -0.077810
    30  C    0.060631
    31  C    0.043276
    32  C   -0.053598
    33  C   -0.072494
    34  N   -0.421354
    35  C    0.122283
    36  C   -0.197373
    37  C    0.035252
    38  C    0.110819
    39  C    0.070693
    40  C    0.136588
    41  O   -0.226794
    42  C   -0.069173
    43  C    0.254749
    44  O   -0.282530
    45  O   -0.339930
    46  C    0.131211
    47  C    0.240045
    48  C   -0.097940
    49  C   -0.281212
    50  C   -0.015916
    51  C   -0.007865
    52  C   -0.047956
    53  C   -0.022353
    54  C   -0.202926
    55  C    0.000917
    56  C   -0.021341
    57  C   -0.078005
    58  C    0.007070
    59  C   -0.205943
    60  C   -0.014820
    61  C    0.009596
    62  C   -0.071102
    63  C   -0.017433
    64  C   -0.239416
    65  C   -0.007616
    66  C   -0.040882
    67  H   -0.007181
    68  H    0.022458
    69  H    0.005887
    70  H    0.058362
    71  H    0.043832
    72  H    0.044897
    73  H    0.050930
    74  H    0.045024
    75  H    0.050175
    76  H    0.048531
    77  H    0.064236
    78  H    0.069336
    79  H    0.046486
    80  H    0.037250
    81  H    0.064459
    82  H    0.064120
    83  H    0.060028
    84  H    0.053308
    85  H    0.054757
    86  H    0.038875
    87  H    0.046217
    88  H    0.037373
    89  H    0.059710
    90  H    0.047259
    91  H    0.036218
    92  H    0.056405
    93  H    0.046060
    94  H    0.034512
    95  H    0.030649
    96  H    0.063329
    97  H    0.068062
    98  H    0.060942
    99  H    0.061796
   100  H    0.033675
   101  H    0.053909
   102  H    0.080111
   103  H    0.061511
   104  H    0.019618
   105  H    0.076346
   106  H    0.030878
   107  H    0.068377
   108  H    0.035415
   109  H    0.035930
   110  H    0.039876
   111  H    0.048287
   112  H    0.026687
   113  H    0.027698
   114  H    0.025806
   115  H    0.023332
   116  H    0.033774
   117  H    0.036039
   118  H    0.024641
   119  H    0.034424
   120  H    0.033942
   121  H    0.029864
   122  H    0.038535
   123  H    0.048694
   124  H    0.039195
   125  H    0.037745
   126  H    0.029569
   127  H    0.034179
   128  H    0.013264
   129  H    0.016315
   130  H    0.030168
   131  H    0.027554
   132  H    0.020273
   133  H    0.030972
   134  H    0.040953
   135  H    0.044418
   136  H    0.038993
   137  H    0.036744
   138  H    0.018490
   139  H    0.038190
   140  H    0.027717
 Sum of Mulliken charges =  -0.00000

 Dipole moment (field-independent basis, Debye):
    X=             -3.6579    Y=              3.8651    Z=              0.6493  Tot=              5.3611
 Quadrupole moment (field-independent basis, Debye-Ang):
   XX=           -369.4280   YY=           -429.5873   ZZ=           -412.7159
   XY=             -4.6120   XZ=             22.7357   YZ=             -0.0762

 Normal termination of Gaussian 16 at Wed May  4 09:22:12 2022.
