 Gaussian 16, Revision A.03,
 Gaussian 16:  ES64L-G16RevA.03 25-Dec-2016

 --------------------------------
 #p wB97XD/Def2SVP td=(nstates=5)
 --------------------------------

 -----------------------------------------------------
 step_1551_chromophore_13 TDDFT with wB97XD functional
 -----------------------------------------------------
 Symbolic Z-matrix:
 Charge =  0 Multiplicity = 1

                         Standard orientation:
 ---------------------------------------------------------------------
 Center     Atomic      Atomic             Coordinates (Angstroms)
 Number     Number       Type             X           Y           Z
 ---------------------------------------------------------------------
      1         12           0        5.455602    0.447562   -0.035714
      2          6           0        3.454531   -2.422386   -0.124664
      3          6           0        2.726506    2.283328   -0.585790
      4          6           0        7.474052    3.074749   -0.262738
      5          6           0        8.242015   -1.627477    0.547240
      6          7           0        3.305610   -0.108926   -0.482419
      7          6           0        2.671453   -1.252184   -0.216475
      8          6           0        1.136425   -1.186600   -0.085164
      9          6           0        0.929536    0.337123   -0.516801
     10          6           0        2.414322    0.870010   -0.440871
     11          6           0        0.188536    0.574293   -1.877049
     12          6           0        0.533824   -1.626784    1.230842
     13          6           0       -0.385095   -2.825420    1.234776
     14          6           0       -1.776145   -2.687898    1.825064
     15          8           0       -2.063395   -2.854793    3.030398
     16          8           0       -2.609717   -2.233197    0.793177
     17          7           0        5.111973    2.360955   -0.263337
     18          6           0        3.948279    2.958659   -0.546120
     19          6           0        4.098602    4.366390   -0.673264
     20          6           0        5.481124    4.553238   -0.599580
     21          6           0        6.098763    3.314440   -0.353128
     22          6           0        2.918595    5.256450   -0.844531
     23          6           0        6.265373    5.920657   -0.818915
     24          8           0        7.494934    6.169729   -0.783806
     25          6           0        5.502821    7.215209   -0.941993
     26          7           0        7.595591    0.726366   -0.050143
     27          6           0        8.184392    1.910902   -0.204119
     28          6           0        9.704934    1.883142    0.115461
     29          6           0        9.864179    0.381501    0.628047
     30          6           0        8.462294   -0.241585    0.407435
     31          6           0       10.486872    2.248558   -1.120885
     32          6           0       10.286475    0.342353    2.104334
     33          6           0        9.185523    0.132168    3.251442
     34          7           0        5.838491   -1.588214    0.030322
     35          6           0        6.983526   -2.258172    0.322958
     36          6           0        6.782904   -3.708920    0.217315
     37          6           0        5.423506   -3.819638    0.072704
     38          6           0        4.897207   -2.479186   -0.032237
     39          6           0        7.769467   -4.763565    0.458654
     40          6           0        4.312553   -4.676516   -0.081228
     41          8           0        4.263252   -5.897292   -0.249490
     42          6           0        2.953221   -3.806789   -0.101293
     43          6           0        2.219504   -4.094365   -1.348127
     44          8           0        2.658613   -3.816223   -2.486820
     45          8           0        1.146713   -4.939918   -1.184359
     46          6           0        0.376790   -5.138839   -2.369975
     47          6           0       -4.019425   -2.066345    1.256313
     48          6           0       -4.733138   -1.195620    0.232873
     49          6           0       -6.076425   -1.098990    0.204730
     50          6           0       -7.114624   -1.821092    1.160776
     51          6           0       -6.849514   -0.241177   -0.859597
     52          6           0       -6.702311    1.340371   -0.581899
     53          6           0       -8.044624    2.082142   -0.351575
     54          6           0       -8.058290    3.029343    0.852100
     55          6           0       -6.943298    4.027443    0.880629
     56          6           0       -8.359462    2.337434    2.239049
     57          6           0       -9.949183    2.279435    2.579745
     58          6           0      -10.603185    0.870869    2.395869
     59          6           0      -12.103051    1.017638    1.897643
     60          6           0      -13.097729    0.714392    3.065038
     61          6           0      -12.393450    0.165454    0.688276
     62          6           0      -12.982023    0.868027   -0.553352
     63          6           0      -12.231687    0.784677   -1.889996
     64          6           0      -12.247217   -0.591953   -2.682531
     65          6           0      -10.876397   -1.179302   -3.112636
     66          6           0      -13.209703   -0.388929   -3.906163
     67          1           0        1.861816    2.940690   -0.698202
     68          1           0        8.101669    3.968866   -0.254629
     69          1           0        9.107802   -2.264210    0.737390
     70          1           0        0.759604   -1.900558   -0.818133
     71          1           0        0.161943    0.801089    0.101724
     72          1           0       -0.502027    1.416203   -1.893291
     73          1           0       -0.264173   -0.386350   -2.122062
     74          1           0        0.895278    0.855218   -2.657901
     75          1           0        0.059985   -0.765893    1.701176
     76          1           0        1.410181   -1.874198    1.828930
     77          1           0       -0.042675   -3.553772    1.968480
     78          1           0       -0.490163   -3.249074    0.236049
     79          1           0        2.314118    4.767012   -1.608164
     80          1           0        3.116784    6.222152   -1.310814
     81          1           0        2.250638    5.303562    0.014669
     82          1           0        4.709718    7.398766   -0.216799
     83          1           0        5.114492    7.201851   -1.960260
     84          1           0        6.136483    8.099375   -0.887425
     85          1           0        9.842289    2.606257    0.919217
     86          1           0       10.609497   -0.219599    0.106015
     87          1           0       11.099273    1.429262   -1.498678
     88          1           0       11.164572    3.002540   -0.719896
     89          1           0        9.844307    2.755879   -1.840172
     90          1           0       10.884723    1.202557    2.404703
     91          1           0       10.868744   -0.574705    2.016200
     92          1           0        8.178831   -0.104745    2.906894
     93          1           0        9.246918    0.991125    3.920002
     94          1           0        9.335322   -0.757416    3.864887
     95          1           0        8.800394   -4.426179    0.561749
     96          1           0        7.764743   -5.427030   -0.405006
     97          1           0        7.477542   -5.347346    1.331280
     98          1           0        2.229787   -3.870909    0.711100
     99          1           0        0.928660   -5.408549   -3.271070
    100          1           0       -0.148837   -4.229899   -2.659964
    101          1           0       -0.365067   -5.929185   -2.257480
    102          1           0       -4.261079   -1.692355    2.250985
    103          1           0       -4.523624   -3.027437    1.160566
    104          1           0       -4.249494   -0.604603   -0.544441
    105          1           0       -7.705739   -1.038533    1.636069
    106          1           0       -6.626553   -2.399871    1.944826
    107          1           0       -7.584863   -2.529630    0.479823
    108          1           0       -7.863305   -0.635792   -0.933894
    109          1           0       -6.383538   -0.413159   -1.830049
    110          1           0       -6.239555    1.746336   -1.481067
    111          1           0       -6.041371    1.408910    0.282064
    112          1           0       -8.806140    1.326038   -0.158049
    113          1           0       -8.449162    2.543249   -1.252006
    114          1           0       -8.859302    3.685954    0.512447
    115          1           0       -6.275335    3.837515    0.040108
    116          1           0       -6.338340    3.944704    1.783659
    117          1           0       -7.347468    5.026426    0.713068
    118          1           0       -7.905204    2.927451    3.034493
    119          1           0       -8.000106    1.313703    2.346699
    120          1           0      -10.444279    3.063158    2.004975
    121          1           0       -9.917188    2.525943    3.640158
    122          1           0      -10.629291    0.464118    3.407044
    123          1           0      -10.034787    0.368990    1.612915
    124          1           0      -12.310733    2.032365    1.561178
    125          1           0      -13.609671    1.665664    3.212372
    126          1           0      -12.644762    0.406019    4.006713
    127          1           0      -13.822956   -0.077996    2.881965
    128          1           0      -13.192921   -0.547176    0.887679
    129          1           0      -11.582095   -0.495082    0.380355
    130          1           0      -13.062759    1.944351   -0.401910
    131          1           0      -13.969721    0.413351   -0.637279
    132          1           0      -11.186593    0.964266   -1.636725
    133          1           0      -12.599026    1.565061   -2.556449
    134          1           0      -12.834716   -1.249034   -2.041653
    135          1           0      -10.049990   -0.545527   -2.791807
    136          1           0      -10.759950   -1.407637   -4.172865
    137          1           0      -10.817980   -2.156518   -2.632743
    138          1           0      -12.735307   -0.701856   -4.836310
    139          1           0      -13.635338    0.587768   -4.137846
    140          1           0      -14.047794   -1.084347   -3.870458
 ---------------------------------------------------------------------

 SCF Done:  E(RwB97XD) =  -3007.80353562     A.U. after   19 cycles

 Excitation energies and oscillator strengths:

 Excited State   1:      Singlet-A      1.7098 eV  725.14 nm  f=0.3535  <S**2>=0.000
     245 -> 248       -0.20579
     246 -> 247        0.67796
     245 <- 248       -0.12018
 This state for optimization and/or second-order correction.
 Total Energy, E(TD-HF/TD-DFT) =  -3007.74070147
 Copying the excited state density for this state as the 1-particle RhoCI density.

 Excited State   2:      Singlet-A      2.1872 eV  566.85 nm  f=0.1072  <S**2>=0.000
     245 -> 247        0.63491
     246 -> 248        0.30318

 Excited State   3:      Singlet-A      3.5295 eV  351.28 nm  f=0.0735  <S**2>=0.000
     240 -> 247       -0.12027
     242 -> 247        0.33203
     242 -> 250        0.16126
     243 -> 247        0.36863
     243 -> 249        0.30540
     243 -> 250        0.14938
     246 -> 248        0.20996

 Excited State   4:      Singlet-A      3.5377 eV  350.47 nm  f=0.1137  <S**2>=0.000
     242 -> 247       -0.23275
     242 -> 249        0.32559
     242 -> 250       -0.16955
     243 -> 247        0.37111
     243 -> 250        0.19549
     245 -> 247        0.11325
     246 -> 248       -0.24274

 Excited State   5:      Singlet-A      3.5678 eV  347.50 nm  f=0.5324  <S**2>=0.000
     240 -> 247       -0.12665
     242 -> 247       -0.29029
     242 -> 249        0.12514
     242 -> 250       -0.12936
     243 -> 249       -0.13534
     245 -> 247       -0.23682
     246 -> 248        0.51743
     245 <- 247        0.10024

 The electronic state is 1-A.
 Alpha  occ. eigenvalues --  -46.94910 -19.31555 -19.30821 -19.25960 -19.24520
 Alpha  occ. eigenvalues --  -19.24243 -19.23609 -14.47294 -14.46186 -14.44401
 Alpha  occ. eigenvalues --  -14.44088 -10.44062 -10.43062 -10.40206 -10.39124
 Alpha  occ. eigenvalues --  -10.36506 -10.35943 -10.34932 -10.34884 -10.34865
 Alpha  occ. eigenvalues --  -10.34045 -10.33937 -10.33906 -10.33552 -10.33129
 Alpha  occ. eigenvalues --  -10.33105 -10.32928 -10.32546 -10.32172 -10.32115
 Alpha  occ. eigenvalues --  -10.31983 -10.31833 -10.31685 -10.31501 -10.31412
 Alpha  occ. eigenvalues --  -10.31400 -10.31399 -10.31268 -10.31246 -10.31234
 Alpha  occ. eigenvalues --  -10.30580 -10.30377 -10.30360 -10.30276 -10.30261
 Alpha  occ. eigenvalues --  -10.29948 -10.29911 -10.29889 -10.29761 -10.29657
 Alpha  occ. eigenvalues --  -10.29649 -10.29481 -10.29393 -10.29331 -10.29195
 Alpha  occ. eigenvalues --  -10.29179 -10.29132 -10.29072 -10.29028 -10.28892
 Alpha  occ. eigenvalues --  -10.28788 -10.28704 -10.28331 -10.28124 -10.28079
 Alpha  occ. eigenvalues --  -10.28023  -3.21073  -1.94654  -1.94200  -1.94074
 Alpha  occ. eigenvalues --   -1.18661  -1.17511  -1.11212  -1.11150  -1.09853
 Alpha  occ. eigenvalues --   -1.08728  -1.08155  -1.07323  -1.06906  -1.05191
 Alpha  occ. eigenvalues --   -0.95022  -0.92741  -0.91843  -0.91305  -0.91249
 Alpha  occ. eigenvalues --   -0.90432  -0.90153  -0.90089  -0.89741  -0.89096
 Alpha  occ. eigenvalues --   -0.88928  -0.87903  -0.85967  -0.85801  -0.85366
 Alpha  occ. eigenvalues --   -0.84474  -0.83791  -0.83201  -0.82738  -0.82466
 Alpha  occ. eigenvalues --   -0.81833  -0.80951  -0.80623  -0.79031  -0.78558
 Alpha  occ. eigenvalues --   -0.77753  -0.77524  -0.77351  -0.76602  -0.76361
 Alpha  occ. eigenvalues --   -0.75648  -0.75054  -0.73380  -0.72949  -0.71849
 Alpha  occ. eigenvalues --   -0.70960  -0.70507  -0.69553  -0.69400  -0.68170
 Alpha  occ. eigenvalues --   -0.67313  -0.67294  -0.67034  -0.66552  -0.66137
 Alpha  occ. eigenvalues --   -0.66058  -0.64390  -0.64218  -0.63409  -0.63047
 Alpha  occ. eigenvalues --   -0.62647  -0.61679  -0.60974  -0.60734  -0.60060
 Alpha  occ. eigenvalues --   -0.59387  -0.58975  -0.58493  -0.57769  -0.57456
 Alpha  occ. eigenvalues --   -0.57337  -0.56927  -0.56755  -0.56358  -0.56050
 Alpha  occ. eigenvalues --   -0.55854  -0.55604  -0.55208  -0.54929  -0.54858
 Alpha  occ. eigenvalues --   -0.54692  -0.54495  -0.54290  -0.54091  -0.53730
 Alpha  occ. eigenvalues --   -0.53592  -0.53417  -0.53277  -0.53047  -0.52670
 Alpha  occ. eigenvalues --   -0.52558  -0.52492  -0.52307  -0.51798  -0.51627
 Alpha  occ. eigenvalues --   -0.51538  -0.51203  -0.51132  -0.51046  -0.50798
 Alpha  occ. eigenvalues --   -0.50667  -0.50651  -0.50611  -0.50350  -0.50080
 Alpha  occ. eigenvalues --   -0.49980  -0.49853  -0.49511  -0.49237  -0.48996
 Alpha  occ. eigenvalues --   -0.48816  -0.48751  -0.48007  -0.47962  -0.47648
 Alpha  occ. eigenvalues --   -0.47611  -0.47462  -0.46974  -0.46963  -0.46893
 Alpha  occ. eigenvalues --   -0.46655  -0.46530  -0.46350  -0.46230  -0.46121
 Alpha  occ. eigenvalues --   -0.45934  -0.45546  -0.45468  -0.45405  -0.45087
 Alpha  occ. eigenvalues --   -0.44783  -0.44725  -0.44516  -0.44334  -0.44290
 Alpha  occ. eigenvalues --   -0.44073  -0.43889  -0.43836  -0.43637  -0.43478
 Alpha  occ. eigenvalues --   -0.43087  -0.42906  -0.42603  -0.41994  -0.41873
 Alpha  occ. eigenvalues --   -0.41720  -0.41405  -0.40904  -0.40759  -0.40678
 Alpha  occ. eigenvalues --   -0.40408  -0.40170  -0.39943  -0.39432  -0.39234
 Alpha  occ. eigenvalues --   -0.39184  -0.38702  -0.38472  -0.38416  -0.38245
 Alpha  occ. eigenvalues --   -0.38156  -0.37868  -0.36962  -0.36746  -0.36473
 Alpha  occ. eigenvalues --   -0.36048  -0.35825  -0.35570  -0.33704  -0.33262
 Alpha  occ. eigenvalues --   -0.32862  -0.32669  -0.32645  -0.31884  -0.25789
 Alpha  occ. eigenvalues --   -0.23165
 Alpha virt. eigenvalues --   -0.06805  -0.00013   0.02131   0.04019   0.05431
 Alpha virt. eigenvalues --    0.05598   0.06095   0.07880   0.08116   0.09330
 Alpha virt. eigenvalues --    0.10099   0.10524   0.11349   0.11682   0.11819

 Mulliken charges:
               1
     1  Mg   0.988632
     2  C   -0.042790
     3  C   -0.108847
     4  C   -0.087059
     5  C   -0.087895
     6  N   -0.284107
     7  C   -0.030612
     8  C   -0.076697
     9  C   -0.108485
    10  C    0.082848
    11  C    0.008321
    12  C    0.070302
    13  C    0.002877
    14  C    0.218265
    15  O   -0.278934
    16  O   -0.384290
    17  N   -0.513020
    18  C    0.162014
    19  C   -0.151396
    20  C   -0.085526
    21  C    0.163307
    22  C    0.075108
    23  C    0.102146
    24  O   -0.252806
    25  C   -0.027995
    26  N   -0.348023
    27  C    0.055299
    28  C   -0.112452
    29  C   -0.056718
    30  C    0.052950
    31  C    0.050652
    32  C   -0.042766
    33  C   -0.053808
    34  N   -0.379291
    35  C    0.116771
    36  C   -0.197131
    37  C    0.042196
    38  C    0.087808
    39  C    0.081747
    40  C    0.116582
    41  O   -0.218398
    42  C   -0.018464
    43  C    0.229561
    44  O   -0.277954
    45  O   -0.336598
    46  C    0.146564
    47  C    0.252911
    48  C   -0.107835
    49  C   -0.269324
    50  C    0.009460
    51  C    0.010517
    52  C   -0.032937
    53  C    0.007421
    54  C   -0.174699
    55  C    0.011163
    56  C    0.000162
    57  C   -0.062909
    58  C    0.035420
    59  C   -0.175786
    60  C   -0.003411
    61  C    0.022523
    62  C   -0.052893
    63  C    0.006256
    64  C   -0.214865
    65  C    0.008448
    66  C   -0.028091
    67  H   -0.013580
    68  H    0.016560
    69  H    0.000165
    70  H    0.035267
    71  H    0.034800
    72  H    0.040229
    73  H    0.045598
    74  H    0.038554
    75  H    0.043642
    76  H    0.040040
    77  H    0.059026
    78  H    0.058776
    79  H    0.040237
    80  H    0.032579
    81  H    0.061538
    82  H    0.059454
    83  H    0.054266
    84  H    0.052306
    85  H    0.045044
    86  H    0.029981
    87  H    0.041555
    88  H    0.031758
    89  H    0.053506
    90  H    0.040233
    91  H    0.028142
    92  H    0.045673
    93  H    0.040815
    94  H    0.028947
    95  H    0.025285
    96  H    0.058470
    97  H    0.063162
    98  H    0.048041
    99  H    0.057749
   100  H    0.028514
   101  H    0.050930
   102  H    0.075894
   103  H    0.054657
   104  H    0.017876
   105  H    0.063797
   106  H    0.025346
   107  H    0.062233
   108  H    0.025720
   109  H    0.028671
   110  H    0.033232
   111  H    0.035209
   112  H   -0.000895
   113  H    0.021590
   114  H    0.013388
   115  H    0.015451
   116  H    0.028081
   117  H    0.031783
   118  H    0.016924
   119  H    0.018346
   120  H    0.023568
   121  H    0.022572
   122  H    0.029908
   123  H    0.027829
   124  H    0.023190
   125  H    0.032318
   126  H    0.023279
   127  H    0.028240
   128  H    0.003987
   129  H    0.005506
   130  H    0.022055
   131  H    0.018941
   132  H    0.003582
   133  H    0.022544
   134  H    0.028946
   135  H    0.036436
   136  H    0.033322
   137  H    0.030744
   138  H    0.011008
   139  H    0.032141
   140  H    0.021894
 Sum of Mulliken charges =  -0.00000

 Dipole moment (field-independent basis, Debye):
    X=             -3.8187    Y=              4.1477    Z=              0.5921  Tot=              5.6689
 Quadrupole moment (field-independent basis, Debye-Ang):
   XX=           -371.1734   YY=           -427.8263   ZZ=           -412.4245
   XY=             -3.2996   XZ=             22.5025   YZ=             -0.1911

 Normal termination of Gaussian 16 at Wed May  4 09:53:09 2022.
