 Gaussian 16, Revision A.03,
 Gaussian 16:  ES64L-G16RevA.03 25-Dec-2016

 --------------------
 #p ZINDO=(nstates=5)
 --------------------

 ------------------------------
 step_1551_chromophore_13 ZINDO
 ------------------------------
 Symbolic Z-matrix:
 Charge =  0 Multiplicity = 1

                         Standard orientation:
 ---------------------------------------------------------------------
 Center     Atomic      Atomic             Coordinates (Angstroms)
 Number     Number       Type             X           Y           Z
 ---------------------------------------------------------------------
      1         12           0        5.455602    0.447562   -0.035714
      2          6           0        3.454531   -2.422386   -0.124664
      3          6           0        2.726506    2.283328   -0.585790
      4          6           0        7.474052    3.074749   -0.262738
      5          6           0        8.242015   -1.627477    0.547240
      6          7           0        3.305610   -0.108926   -0.482419
      7          6           0        2.671453   -1.252184   -0.216475
      8          6           0        1.136425   -1.186600   -0.085164
      9          6           0        0.929536    0.337123   -0.516801
     10          6           0        2.414322    0.870010   -0.440871
     11          6           0        0.188536    0.574293   -1.877049
     12          6           0        0.533824   -1.626784    1.230842
     13          6           0       -0.385095   -2.825420    1.234776
     14          6           0       -1.776145   -2.687898    1.825064
     15          8           0       -2.063395   -2.854793    3.030398
     16          8           0       -2.609717   -2.233197    0.793177
     17          7           0        5.111973    2.360955   -0.263337
     18          6           0        3.948279    2.958659   -0.546120
     19          6           0        4.098602    4.366390   -0.673264
     20          6           0        5.481124    4.553238   -0.599580
     21          6           0        6.098763    3.314440   -0.353128
     22          6           0        2.918595    5.256450   -0.844531
     23          6           0        6.265373    5.920657   -0.818915
     24          8           0        7.494934    6.169729   -0.783806
     25          6           0        5.502821    7.215209   -0.941993
     26          7           0        7.595591    0.726366   -0.050143
     27          6           0        8.184392    1.910902   -0.204119
     28          6           0        9.704934    1.883142    0.115461
     29          6           0        9.864179    0.381501    0.628047
     30          6           0        8.462294   -0.241585    0.407435
     31          6           0       10.486872    2.248558   -1.120885
     32          6           0       10.286475    0.342353    2.104334
     33          6           0        9.185523    0.132168    3.251442
     34          7           0        5.838491   -1.588214    0.030322
     35          6           0        6.983526   -2.258172    0.322958
     36          6           0        6.782904   -3.708920    0.217315
     37          6           0        5.423506   -3.819638    0.072704
     38          6           0        4.897207   -2.479186   -0.032237
     39          6           0        7.769467   -4.763565    0.458654
     40          6           0        4.312553   -4.676516   -0.081228
     41          8           0        4.263252   -5.897292   -0.249490
     42          6           0        2.953221   -3.806789   -0.101293
     43          6           0        2.219504   -4.094365   -1.348127
     44          8           0        2.658613   -3.816223   -2.486820
     45          8           0        1.146713   -4.939918   -1.184359
     46          6           0        0.376790   -5.138839   -2.369975
     47          6           0       -4.019425   -2.066345    1.256313
     48          6           0       -4.733138   -1.195620    0.232873
     49          6           0       -6.076425   -1.098990    0.204730
     50          6           0       -7.114624   -1.821092    1.160776
     51          6           0       -6.849514   -0.241177   -0.859597
     52          6           0       -6.702311    1.340371   -0.581899
     53          6           0       -8.044624    2.082142   -0.351575
     54          6           0       -8.058290    3.029343    0.852100
     55          6           0       -6.943298    4.027443    0.880629
     56          6           0       -8.359462    2.337434    2.239049
     57          6           0       -9.949183    2.279435    2.579745
     58          6           0      -10.603185    0.870869    2.395869
     59          6           0      -12.103051    1.017638    1.897643
     60          6           0      -13.097729    0.714392    3.065038
     61          6           0      -12.393450    0.165454    0.688276
     62          6           0      -12.982023    0.868027   -0.553352
     63          6           0      -12.231687    0.784677   -1.889996
     64          6           0      -12.247217   -0.591953   -2.682531
     65          6           0      -10.876397   -1.179302   -3.112636
     66          6           0      -13.209703   -0.388929   -3.906163
     67          1           0        1.861816    2.940690   -0.698202
     68          1           0        8.101669    3.968866   -0.254629
     69          1           0        9.107802   -2.264210    0.737390
     70          1           0        0.759604   -1.900558   -0.818133
     71          1           0        0.161943    0.801089    0.101724
     72          1           0       -0.502027    1.416203   -1.893291
     73          1           0       -0.264173   -0.386350   -2.122062
     74          1           0        0.895278    0.855218   -2.657901
     75          1           0        0.059985   -0.765893    1.701176
     76          1           0        1.410181   -1.874198    1.828930
     77          1           0       -0.042675   -3.553772    1.968480
     78          1           0       -0.490163   -3.249074    0.236049
     79          1           0        2.314118    4.767012   -1.608164
     80          1           0        3.116784    6.222152   -1.310814
     81          1           0        2.250638    5.303562    0.014669
     82          1           0        4.709718    7.398766   -0.216799
     83          1           0        5.114492    7.201851   -1.960260
     84          1           0        6.136483    8.099375   -0.887425
     85          1           0        9.842289    2.606257    0.919217
     86          1           0       10.609497   -0.219599    0.106015
     87          1           0       11.099273    1.429262   -1.498678
     88          1           0       11.164572    3.002540   -0.719896
     89          1           0        9.844307    2.755879   -1.840172
     90          1           0       10.884723    1.202557    2.404703
     91          1           0       10.868744   -0.574705    2.016200
     92          1           0        8.178831   -0.104745    2.906894
     93          1           0        9.246918    0.991125    3.920002
     94          1           0        9.335322   -0.757416    3.864887
     95          1           0        8.800394   -4.426179    0.561749
     96          1           0        7.764743   -5.427030   -0.405006
     97          1           0        7.477542   -5.347346    1.331280
     98          1           0        2.229787   -3.870909    0.711100
     99          1           0        0.928660   -5.408549   -3.271070
    100          1           0       -0.148837   -4.229899   -2.659964
    101          1           0       -0.365067   -5.929185   -2.257480
    102          1           0       -4.261079   -1.692355    2.250985
    103          1           0       -4.523624   -3.027437    1.160566
    104          1           0       -4.249494   -0.604603   -0.544441
    105          1           0       -7.705739   -1.038533    1.636069
    106          1           0       -6.626553   -2.399871    1.944826
    107          1           0       -7.584863   -2.529630    0.479823
    108          1           0       -7.863305   -0.635792   -0.933894
    109          1           0       -6.383538   -0.413159   -1.830049
    110          1           0       -6.239555    1.746336   -1.481067
    111          1           0       -6.041371    1.408910    0.282064
    112          1           0       -8.806140    1.326038   -0.158049
    113          1           0       -8.449162    2.543249   -1.252006
    114          1           0       -8.859302    3.685954    0.512447
    115          1           0       -6.275335    3.837515    0.040108
    116          1           0       -6.338340    3.944704    1.783659
    117          1           0       -7.347468    5.026426    0.713068
    118          1           0       -7.905204    2.927451    3.034493
    119          1           0       -8.000106    1.313703    2.346699
    120          1           0      -10.444279    3.063158    2.004975
    121          1           0       -9.917188    2.525943    3.640158
    122          1           0      -10.629291    0.464118    3.407044
    123          1           0      -10.034787    0.368990    1.612915
    124          1           0      -12.310733    2.032365    1.561178
    125          1           0      -13.609671    1.665664    3.212372
    126          1           0      -12.644762    0.406019    4.006713
    127          1           0      -13.822956   -0.077996    2.881965
    128          1           0      -13.192921   -0.547176    0.887679
    129          1           0      -11.582095   -0.495082    0.380355
    130          1           0      -13.062759    1.944351   -0.401910
    131          1           0      -13.969721    0.413351   -0.637279
    132          1           0      -11.186593    0.964266   -1.636725
    133          1           0      -12.599026    1.565061   -2.556449
    134          1           0      -12.834716   -1.249034   -2.041653
    135          1           0      -10.049990   -0.545527   -2.791807
    136          1           0      -10.759950   -1.407637   -4.172865
    137          1           0      -10.817980   -2.156518   -2.632743
    138          1           0      -12.735307   -0.701856   -4.836310
    139          1           0      -13.635338    0.587768   -4.137846
    140          1           0      -14.047794   -1.084347   -3.870458
 ---------------------------------------------------------------------

 SCF Done:  E(RZINDO/S) =  -474.277250751     A.U. after   20 cycles

 Excitation energies and oscillator strengths:

 Excited State   1:      Singlet-A      1.2641 eV  980.84 nm  f=0.5482  <S**2>=0.000
     175 ->178         0.21344
     176 ->177         0.65677
 This state for optimization and/or second-order correction.
 Total Energy, E(CIS/TDA) =  -474.230797465
 Copying the excited state density for this state as the 1-particle RhoCI density.

 Excited State   2:      Singlet-A      1.8623 eV  665.77 nm  f=0.0413  <S**2>=0.000
     175 ->177         0.54922
     176 ->178        -0.42049

 Excited State   3:      Singlet-A      2.8167 eV  440.18 nm  f=0.0031  <S**2>=0.000
     168 ->179        -0.10854
     168 ->181        -0.12441
     169 ->177         0.23048
     169 ->179        -0.32717
     169 ->181        -0.38427
     169 ->182        -0.14755
     169 ->185        -0.21506

 Excited State   4:      Singlet-A      2.9315 eV  422.93 nm  f=0.4376  <S**2>=0.000
     168 ->177         0.10626
     168 ->179         0.10429
     170 ->177         0.10208
     170 ->179         0.12970
     175 ->177         0.25772
     176 ->178         0.38631
     176 ->179        -0.38366
     176 ->182         0.10715

 Excited State   5:      Singlet-A      2.9564 eV  419.37 nm  f=0.1758  <S**2>=0.000
     168 ->177         0.24479
     168 ->178        -0.10119
     168 ->179         0.28767
     168 ->181        -0.16059
     168 ->182        -0.13966
     168 ->185         0.12459
     170 ->177         0.19779
     170 ->179         0.21240
     170 ->181        -0.12063
     170 ->182        -0.10573
     175 ->177        -0.15710
     176 ->178        -0.22716
     176 ->179         0.10634

 The electronic state is 1-A.
 Alpha  occ. eigenvalues --   -1.86777  -1.85304  -1.81106  -1.73789  -1.72972
 Alpha  occ. eigenvalues --   -1.70100  -1.64261  -1.59863  -1.59528  -1.57346
 Alpha  occ. eigenvalues --   -1.53118  -1.51644  -1.48728  -1.47987  -1.46348
 Alpha  occ. eigenvalues --   -1.45422  -1.42367  -1.40520  -1.40271  -1.38500
 Alpha  occ. eigenvalues --   -1.36296  -1.35434  -1.33191  -1.31861  -1.29161
 Alpha  occ. eigenvalues --   -1.28286  -1.25733  -1.22011  -1.20349  -1.18778
 Alpha  occ. eigenvalues --   -1.17263  -1.16056  -1.15895  -1.14896  -1.13930
 Alpha  occ. eigenvalues --   -1.12207  -1.11777  -1.11476  -1.05914  -1.04710
 Alpha  occ. eigenvalues --   -1.02631  -1.02325  -1.00150  -0.97824  -0.97225
 Alpha  occ. eigenvalues --   -0.97030  -0.95126  -0.94247  -0.93398  -0.92922
 Alpha  occ. eigenvalues --   -0.91510  -0.90477  -0.89202  -0.87009  -0.85575
 Alpha  occ. eigenvalues --   -0.85353  -0.84630  -0.83960  -0.82314  -0.80832
 Alpha  occ. eigenvalues --   -0.79165  -0.79041  -0.76998  -0.76664  -0.75642
 Alpha  occ. eigenvalues --   -0.75487  -0.75275  -0.74254  -0.73654  -0.73306
 Alpha  occ. eigenvalues --   -0.73105  -0.72835  -0.72323  -0.71141  -0.70582
 Alpha  occ. eigenvalues --   -0.70329  -0.70234  -0.69597  -0.68975  -0.68845
 Alpha  occ. eigenvalues --   -0.67111  -0.66964  -0.66297  -0.65909  -0.65856
 Alpha  occ. eigenvalues --   -0.65279  -0.64611  -0.64150  -0.64109  -0.63770
 Alpha  occ. eigenvalues --   -0.63686  -0.63035  -0.62907  -0.62521  -0.62280
 Alpha  occ. eigenvalues --   -0.62214  -0.61758  -0.61347  -0.60638  -0.60469
 Alpha  occ. eigenvalues --   -0.60211  -0.60068  -0.59689  -0.59455  -0.58356
 Alpha  occ. eigenvalues --   -0.58011  -0.57917  -0.57315  -0.57015  -0.56721
 Alpha  occ. eigenvalues --   -0.56220  -0.55671  -0.55490  -0.55165  -0.54805
 Alpha  occ. eigenvalues --   -0.54622  -0.53813  -0.53430  -0.53262  -0.53180
 Alpha  occ. eigenvalues --   -0.52626  -0.52323  -0.52092  -0.51938  -0.51383
 Alpha  occ. eigenvalues --   -0.51246  -0.50780  -0.50581  -0.50172  -0.49920
 Alpha  occ. eigenvalues --   -0.49891  -0.49764  -0.49520  -0.49444  -0.49195
 Alpha  occ. eigenvalues --   -0.48928  -0.48701  -0.48422  -0.48143  -0.48074
 Alpha  occ. eigenvalues --   -0.47702  -0.47603  -0.47359  -0.46941  -0.46911
 Alpha  occ. eigenvalues --   -0.46398  -0.45934  -0.45678  -0.45666  -0.45359
 Alpha  occ. eigenvalues --   -0.45226  -0.45036  -0.44308  -0.44197  -0.43941
 Alpha  occ. eigenvalues --   -0.43882  -0.43026  -0.42828  -0.42721  -0.42577
 Alpha  occ. eigenvalues --   -0.42235  -0.41954  -0.41282  -0.39718  -0.38601
 Alpha  occ. eigenvalues --   -0.38257  -0.37461  -0.35272  -0.34933  -0.34876
 Alpha  occ. eigenvalues --   -0.33798  -0.33270  -0.32297  -0.32232  -0.26259
 Alpha  occ. eigenvalues --   -0.21882
 Alpha virt. eigenvalues --   -0.08327  -0.02347  -0.00707   0.00502   0.00785
 Alpha virt. eigenvalues --    0.01946   0.02557   0.02854   0.04485   0.04862
 Alpha virt. eigenvalues --    0.06063   0.06805   0.07017   0.07502   0.07898

 Mulliken charges:
               1
     1  Mg   0.431910
     2  C   -0.050357
     3  C   -0.092006
     4  C   -0.063487
     5  C   -0.076674
     6  N   -0.250952
     7  C    0.112776
     8  C    0.001547
     9  C   -0.006420
    10  C    0.127854
    11  C   -0.052327
    12  C   -0.007758
    13  C    0.002351
    14  C    0.464220
    15  O   -0.515079
    16  O   -0.267464
    17  N   -0.323217
    18  C    0.119695
    19  C    0.013570
    20  C   -0.032617
    21  C    0.135137
    22  C   -0.042421
    23  C    0.314526
    24  O   -0.524425
    25  C   -0.026674
    26  N   -0.275050
    27  C    0.138313
    28  C    0.000168
    29  C    0.001405
    30  C    0.115837
    31  C   -0.049721
    32  C   -0.036216
    33  C   -0.064845
    34  N   -0.289280
    35  C    0.083233
    36  C    0.043119
    37  C   -0.048513
    38  C    0.113841
    39  C   -0.032468
    40  C    0.341578
    41  O   -0.524539
    42  C    0.053095
    43  C    0.483714
    44  O   -0.534520
    45  O   -0.257875
    46  C    0.080148
    47  C    0.103123
    48  C   -0.094705
    49  C   -0.030947
    50  C   -0.052855
    51  C   -0.037709
    52  C   -0.033006
    53  C   -0.030743
    54  C   -0.010549
    55  C   -0.052837
    56  C   -0.041858
    57  C   -0.053951
    58  C   -0.041037
    59  C   -0.011005
    60  C   -0.061702
    61  C   -0.034587
    62  C   -0.036194
    63  C   -0.037513
    64  C   -0.012948
    65  C   -0.051201
    66  C   -0.066451
    67  H    0.020389
    68  H    0.037898
    69  H    0.035585
    70  H    0.034817
    71  H    0.030199
    72  H    0.024677
    73  H    0.026914
    74  H    0.020276
    75  H    0.029959
    76  H    0.022977
    77  H    0.040281
    78  H    0.044629
    79  H    0.020617
    80  H    0.027209
    81  H    0.039959
    82  H    0.029797
    83  H    0.033870
    84  H    0.034820
    85  H    0.038744
    86  H    0.031992
    87  H    0.028889
    88  H    0.013789
    89  H    0.034754
    90  H    0.027810
    91  H    0.015927
    92  H    0.030943
    93  H    0.021106
    94  H    0.015548
    95  H    0.021266
    96  H    0.036206
    97  H    0.036635
    98  H    0.052244
    99  H    0.049142
   100  H    0.029234
   101  H    0.028096
   102  H    0.068861
   103  H    0.044860
   104  H    0.041895
   105  H    0.037418
   106  H    0.017590
   107  H    0.036547
   108  H    0.026544
   109  H    0.016408
   110  H    0.021076
   111  H    0.029969
   112  H    0.007623
   113  H    0.020900
   114  H    0.012149
   115  H    0.011681
   116  H    0.020552
   117  H    0.019294
   118  H    0.015961
   119  H    0.025593
   120  H    0.027740
   121  H    0.015504
   122  H    0.033754
   123  H    0.032131
   124  H    0.025987
   125  H    0.015209
   126  H    0.018629
   127  H    0.021130
   128  H    0.009566
   129  H    0.016847
   130  H    0.016183
   131  H    0.017398
   132  H    0.011993
   133  H    0.021606
   134  H    0.024165
   135  H    0.023141
   136  H    0.024783
   137  H    0.014422
   138  H    0.008479
   139  H    0.024540
   140  H    0.010222
 Sum of Mulliken charges =  -0.00000

 Dipole moment (field-independent basis, Debye):
    X=             -5.4298    Y=              5.0116    Z=              1.4835  Tot=              7.5366
 N-N= 4.373403574531D+03 E-N= 0.000000000000D+00  KE=-9.420392615884D+03
 Leave Link  601 at Wed May  4 10:05:18 2022, MaxMem=  6710886400 cpu:               1.3 elap:               0.1
 (Enter /sw/apps/gaussian-16.0/g16/l9999.exe)
 1\1\GINC-BP1-COMPUTE062\SP\RZINDO CIS\STO-3G\C55H74Mg1N4O6\OF15641\04-
 May-2022\0\\#p ZINDO=(nstates=5)\\step_1551_chromophore_13 ZINDO\\0,1\
 Mg,0,46.487,25.012,29.361\C,0,47.032,27.474,31.788\C,0,45.65,22.894,31
 .797\C,0,46.315,22.658,27.025\C,0,47.391,27.368,26.903\N,0,46.525,25.1
 9,31.619\C,0,46.512,26.296,32.365\C,0,45.974,26.163,33.804\C,0,45.789,
 24.577,33.839\C,0,45.922,24.23,32.304\C,0,46.745,23.792,34.801\C,0,44.
 78,27.013,34.179\C,0,44.949,28.05,35.264\C,0,44.009,28.033,36.455\O,0,

 Normal termination of Gaussian 16 at Wed May  4 10:05:18 2022.
