 Gaussian 16, Revision A.03,
 Gaussian 16:  ES64L-G16RevA.03 25-Dec-2016

 ------------------------------
 #p blyp/Def2SVP td=(nstates=5)
 ------------------------------

 -------------------------------------------------
 step_51_chromophore_16 TDDFT with blyp functional
 -------------------------------------------------
 Symbolic Z-matrix:
 Charge =  0 Multiplicity = 1

                         Standard orientation:
 ---------------------------------------------------------------------
 Center     Atomic      Atomic             Coordinates (Angstroms)
 Number     Number       Type             X           Y           Z
 ---------------------------------------------------------------------
      1         12           0        5.900048    0.553568    0.252444
      2          6           0        3.552273   -2.114420   -0.071241
      3          6           0        3.586802    2.579036   -1.169843
      4          6           0        8.299290    2.789739   -0.225470
      5          6           0        8.319383   -1.814580    1.335886
      6          7           0        3.826161    0.186304   -0.605686
      7          6           0        3.019575   -0.875230   -0.366723
      8          6           0        1.585706   -0.558653   -0.701934
      9          6           0        1.675590    0.945066   -1.164808
     10          6           0        3.171359    1.239740   -1.059017
     11          6           0        0.970359    1.107261   -2.591361
     12          6           0        0.571799   -0.866240    0.544791
     13          6           0       -0.978072   -0.498458    0.344885
     14          6           0       -1.971853   -1.613059    0.533342
     15          8           0       -2.518514   -1.802277    1.623138
     16          8           0       -2.336306   -2.151152   -0.623742
     17          7           0        5.920692    2.394948   -0.625774
     18          6           0        4.881728    3.146204   -1.113830
     19          6           0        5.312418    4.460585   -1.406930
     20          6           0        6.649082    4.543508   -1.184623
     21          6           0        7.022703    3.239079   -0.655416
     22          6           0        4.351010    5.523277   -1.954330
     23          6           0        7.530774    5.715026   -1.404187
     24          8           0        8.761373    5.690836   -1.230644
     25          6           0        6.867777    7.067334   -1.571877
     26          7           0        7.950431    0.534489    0.636284
     27          6           0        8.710077    1.605551    0.377351
     28          6           0       10.181685    1.361911    0.908372
     29          6           0       10.079953    0.026359    1.723692
     30          6           0        8.750900   -0.503783    1.205326
     31          6           0       11.197385    1.307981   -0.281404
     32          6           0       10.100222    0.192417    3.295209
     33          6           0        8.930445    1.014117    3.849230
     34          7           0        6.005269   -1.581133    0.571438
     35          6           0        7.061868   -2.384066    1.002851
     36          6           0        6.569329   -3.751910    1.107915
     37          6           0        5.214479   -3.707896    0.662132
     38          6           0        4.946380   -2.347876    0.358831
     39          6           0        7.508762   -4.917407    1.407646
     40          6           0        3.979042   -4.445213    0.437237
     41          8           0        3.742613   -5.604969    0.699622
     42          6           0        2.907138   -3.419087   -0.028477
     43          6           0        2.379096   -3.875584   -1.306221
     44          8           0        3.079159   -4.106666   -2.267296
     45          8           0        1.053511   -4.180079   -1.220079
     46          6           0        0.401911   -4.620091   -2.443798
     47          6           0       -3.393595   -3.152186   -0.458162
     48          6           0       -4.673412   -2.628671   -0.051649
     49          6           0       -5.870090   -3.287044   -0.037699
     50          6           0       -5.985734   -4.758018   -0.416715
     51          6           0       -7.159731   -2.590083    0.481265
     52          6           0       -8.198169   -2.508975   -0.576327
     53          6           0       -8.784688   -1.064724   -0.781668
     54          6           0      -10.246552   -1.065077   -1.365075
     55          6           0      -10.347695   -0.782645   -2.881439
     56          6           0      -11.235921    0.016603   -0.671965
     57          6           0      -12.545000   -0.412490   -0.017530
     58          6           0      -13.791884    0.322982   -0.489188
     59          6           0      -14.332057    1.265629    0.613123
     60          6           0      -15.899096    1.340249    0.365428
     61          6           0      -13.616134    2.657036    0.383663
     62          6           0      -13.234799    3.348842    1.677907
     63          6           0      -11.988386    4.216467    1.475137
     64          6           0      -10.728646    3.510277    2.109064
     65          6           0       -9.491388    3.731207    1.209159
     66          6           0      -10.498882    3.959951    3.523724
     67          1           0        2.726374    3.138567   -1.540440
     68          1           0        9.089854    3.543274   -0.235370
     69          1           0        9.053363   -2.498148    1.766806
     70          1           0        1.176648   -1.265406   -1.424135
     71          1           0        1.167199    1.668351   -0.528687
     72          1           0        0.901529    0.191561   -3.178775
     73          1           0        1.542132    1.875726   -3.112600
     74          1           0       -0.029096    1.536891   -2.518885
     75          1           0        0.950690   -0.507143    1.501368
     76          1           0        0.641401   -1.940621    0.714650
     77          1           0       -1.134806   -0.057698   -0.640390
     78          1           0       -1.154784    0.301417    1.064359
     79          1           0        4.164475    6.359470   -1.280917
     80          1           0        3.378602    5.084495   -2.180440
     81          1           0        4.710876    5.965003   -2.883632
     82          1           0        6.411020    7.010148   -2.559968
     83          1           0        7.640223    7.822391   -1.710320
     84          1           0        6.215823    7.292446   -0.727180
     85          1           0       10.501785    2.102190    1.641548
     86          1           0       10.904955   -0.664096    1.548400
     87          1           0       11.974525    0.575780   -0.061711
     88          1           0       11.634149    2.305978   -0.245498
     89          1           0       10.787898    1.359688   -1.289439
     90          1           0       11.038581    0.671709    3.576262
     91          1           0       10.021023   -0.786975    3.768159
     92          1           0        9.351809    1.982121    4.120739
     93          1           0        8.403828    0.466314    4.630696
     94          1           0        8.257090    1.298547    3.041062
     95          1           0        7.711359   -5.033748    2.471849
     96          1           0        8.445799   -4.741855    0.878349
     97          1           0        7.059233   -5.810600    0.974339
     98          1           0        2.151010   -3.366322    0.755370
     99          1           0        0.933863   -4.171074   -3.283081
    100          1           0       -0.661814   -4.388426   -2.384459
    101          1           0        0.615712   -5.682290   -2.558395
    102          1           0       -3.043827   -3.891619    0.262629
    103          1           0       -3.498372   -3.660078   -1.416728
    104          1           0       -4.721070   -1.546591    0.069438
    105          1           0       -6.247941   -4.870684   -1.469245
    106          1           0       -6.762585   -5.258555    0.161471
    107          1           0       -5.024952   -5.247363   -0.256579
    108          1           0       -6.944454   -1.595236    0.872584
    109          1           0       -7.395195   -3.096318    1.417973
    110          1           0       -8.979434   -3.262053   -0.467487
    111          1           0       -7.735842   -2.664061   -1.550746
    112          1           0       -8.115962   -0.573599   -1.488155
    113          1           0       -8.690334   -0.600837    0.200135
    114          1           0      -10.795153   -2.000596   -1.252313
    115          1           0       -9.759482   -1.550044   -3.384370
    116          1           0      -10.165279    0.222396   -3.260631
    117          1           0      -11.395058   -0.955158   -3.129510
    118          1           0      -11.409492    0.746268   -1.462048
    119          1           0      -10.663744    0.394766    0.175639
    120          1           0      -12.334072   -0.392979    1.051447
    121          1           0      -12.665660   -1.445906   -0.344893
    122          1           0      -14.488522   -0.493679   -0.678402
    123          1           0      -13.670409    0.859851   -1.430121
    124          1           0      -14.100043    0.922440    1.621779
    125          1           0      -16.214951    2.360226    0.582634
    126          1           0      -16.379550    0.710150    1.115344
    127          1           0      -16.144668    1.045456   -0.653662
    128          1           0      -14.185160    3.358190   -0.227646
    129          1           0      -12.746187    2.487240   -0.250952
    130          1           0      -13.157973    2.648537    2.509754
    131          1           0      -14.092816    3.998513    1.851052
    132          1           0      -12.284280    5.132505    1.986417
    133          1           0      -11.860780    4.390442    0.406642
    134          1           0      -10.837924    2.426306    2.132569
    135          1           0       -9.006914    2.781158    0.986355
    136          1           0       -8.798575    4.358744    1.770454
    137          1           0       -9.642665    4.207800    0.239923
    138          1           0      -11.461162    4.232276    3.956943
    139          1           0       -9.917526    4.881807    3.513828
    140          1           0      -10.104544    3.132193    4.112132
 ---------------------------------------------------------------------

 SCF Done:  E(RB-LYP) =  -3007.38750209     A.U. after   22 cycles

 Excitation energies and oscillator strengths:

 Excited State   1:      Singlet-A      1.7982 eV  689.50 nm  f=0.2805  <S**2>=0.000
     244 -> 247        0.13262
     245 -> 248        0.17127
     246 -> 247        0.67656
     246 <- 247       -0.14431
 This state for optimization and/or second-order correction.
 Total Energy, E(TD-HF/TD-DFT) =  -3007.32142008
 Copying the excited state density for this state as the 1-particle RhoCI density.

 Excited State   2:      Singlet-A      1.8445 eV  672.19 nm  f=0.0185  <S**2>=0.000
     244 -> 247        0.68501
     246 -> 247       -0.13689

 Excited State   3:      Singlet-A      1.9351 eV  640.71 nm  f=0.0020  <S**2>=0.000
     243 -> 247        0.69803
     245 -> 247       -0.10105

 Excited State   4:      Singlet-A      1.9851 eV  624.56 nm  f=0.0986  <S**2>=0.000
     242 -> 247        0.10979
     243 -> 247        0.10841
     244 -> 247        0.10731
     245 -> 247        0.63387
     246 -> 248       -0.19985
     246 -> 249       -0.10947

 Excited State   5:      Singlet-A      2.0240 eV  612.58 nm  f=0.0024  <S**2>=0.000
     242 -> 247        0.69837

 The electronic state is 1-A.
 Alpha  occ. eigenvalues --  -46.27576 -18.83568 -18.82183 -18.76470 -18.76290
 Alpha  occ. eigenvalues --  -18.75914 -18.75333 -14.03268 -14.03100 -14.01546
 Alpha  occ. eigenvalues --  -14.00542 -10.04036 -10.03550 -10.00120  -9.99258
 Alpha  occ. eigenvalues --   -9.98227  -9.97672  -9.96635  -9.96559  -9.96423
 Alpha  occ. eigenvalues --   -9.96386  -9.96354  -9.95920  -9.95182  -9.94719
 Alpha  occ. eigenvalues --   -9.94569  -9.94401  -9.94153  -9.94084  -9.93970
 Alpha  occ. eigenvalues --   -9.93771  -9.93769  -9.93725  -9.93607  -9.93470
 Alpha  occ. eigenvalues --   -9.93161  -9.93121  -9.92939  -9.92908  -9.92829
 Alpha  occ. eigenvalues --   -9.92801  -9.92797  -9.92425  -9.92354  -9.92157
 Alpha  occ. eigenvalues --   -9.92089  -9.92070  -9.92052  -9.91788  -9.91782
 Alpha  occ. eigenvalues --   -9.91753  -9.91727  -9.91501  -9.91370  -9.91353
 Alpha  occ. eigenvalues --   -9.91075  -9.90834  -9.90787  -9.90778  -9.90714
 Alpha  occ. eigenvalues --   -9.90705  -9.90678  -9.90466  -9.90430  -9.90413
 Alpha  occ. eigenvalues --   -9.90307  -2.92196  -1.72605  -1.72071  -1.71920
 Alpha  occ. eigenvalues --   -0.99909  -0.98350  -0.91556  -0.90914  -0.90277
 Alpha  occ. eigenvalues --   -0.89799  -0.87446  -0.86264  -0.85532  -0.84720
 Alpha  occ. eigenvalues --   -0.76057  -0.73637  -0.72999  -0.72462  -0.72063
 Alpha  occ. eigenvalues --   -0.71823  -0.71705  -0.71491  -0.70817  -0.70531
 Alpha  occ. eigenvalues --   -0.69453  -0.69203  -0.68191  -0.67586  -0.67407
 Alpha  occ. eigenvalues --   -0.66851  -0.66104  -0.65487  -0.65178  -0.64933
 Alpha  occ. eigenvalues --   -0.64239  -0.63158  -0.62358  -0.61974  -0.60958
 Alpha  occ. eigenvalues --   -0.60507  -0.60102  -0.59728  -0.59009  -0.58792
 Alpha  occ. eigenvalues --   -0.58529  -0.57797  -0.56794  -0.55963  -0.54959
 Alpha  occ. eigenvalues --   -0.54226  -0.53447  -0.53334  -0.52222  -0.51857
 Alpha  occ. eigenvalues --   -0.50976  -0.50523  -0.50386  -0.50046  -0.49924
 Alpha  occ. eigenvalues --   -0.49848  -0.49048  -0.48782  -0.48571  -0.47309
 Alpha  occ. eigenvalues --   -0.47131  -0.46257  -0.46113  -0.45348  -0.45137
 Alpha  occ. eigenvalues --   -0.44306  -0.44113  -0.42979  -0.42591  -0.42209
 Alpha  occ. eigenvalues --   -0.42035  -0.41884  -0.41667  -0.41286  -0.41198
 Alpha  occ. eigenvalues --   -0.40995  -0.40927  -0.40747  -0.40587  -0.40336
 Alpha  occ. eigenvalues --   -0.40160  -0.40097  -0.39758  -0.39551  -0.39215
 Alpha  occ. eigenvalues --   -0.39033  -0.38904  -0.38684  -0.38146  -0.38044
 Alpha  occ. eigenvalues --   -0.37869  -0.37742  -0.37632  -0.37458  -0.37236
 Alpha  occ. eigenvalues --   -0.37155  -0.37103  -0.36913  -0.36776  -0.36491
 Alpha  occ. eigenvalues --   -0.36460  -0.36120  -0.35683  -0.35604  -0.35539
 Alpha  occ. eigenvalues --   -0.35412  -0.35305  -0.35220  -0.35181  -0.34811
 Alpha  occ. eigenvalues --   -0.34467  -0.34222  -0.34188  -0.34037  -0.33985
 Alpha  occ. eigenvalues --   -0.33823  -0.33594  -0.33566  -0.33322  -0.33197
 Alpha  occ. eigenvalues --   -0.33062  -0.32996  -0.32839  -0.32719  -0.32328
 Alpha  occ. eigenvalues --   -0.32166  -0.31973  -0.31935  -0.31788  -0.31494
 Alpha  occ. eigenvalues --   -0.31270  -0.31244  -0.30995  -0.30789  -0.30646
 Alpha  occ. eigenvalues --   -0.30428  -0.30113  -0.29979  -0.29857  -0.29791
 Alpha  occ. eigenvalues --   -0.29711  -0.29619  -0.29424  -0.29249  -0.29070
 Alpha  occ. eigenvalues --   -0.28890  -0.28636  -0.28597  -0.28435  -0.28162
 Alpha  occ. eigenvalues --   -0.27798  -0.27373  -0.27170  -0.26950  -0.26692
 Alpha  occ. eigenvalues --   -0.26395  -0.26148  -0.25770  -0.25528  -0.25405
 Alpha  occ. eigenvalues --   -0.25148  -0.24656  -0.23848  -0.23606  -0.23375
 Alpha  occ. eigenvalues --   -0.22983  -0.22682  -0.22186  -0.21606  -0.21267
 Alpha  occ. eigenvalues --   -0.20153  -0.19303  -0.18888  -0.18566  -0.17314
 Alpha  occ. eigenvalues --   -0.16155
 Alpha virt. eigenvalues --   -0.11870  -0.07025  -0.06121  -0.04902  -0.03529
 Alpha virt. eigenvalues --   -0.03258  -0.02268  -0.01567  -0.01401   0.00031
 Alpha virt. eigenvalues --    0.01031   0.01558   0.02098   0.02419   0.02826

 Mulliken charges:
               1
     1  Mg   0.695778
     2  C    0.015435
     3  C   -0.087544
     4  C   -0.039675
     5  C   -0.052736
     6  N   -0.157227
     7  C   -0.096016
     8  C    0.037597
     9  C   -0.004461
    10  C    0.012839
    11  C    0.101174
    12  C    0.034750
    13  C    0.163134
    14  C    0.062753
    15  O   -0.210482
    16  O   -0.236050
    17  N   -0.312225
    18  C    0.163945
    19  C   -0.121490
    20  C    0.094284
    21  C    0.085972
    22  C    0.181732
    23  C   -0.113165
    24  O   -0.172254
    25  C    0.157503
    26  N   -0.259313
    27  C    0.047218
    28  C    0.010857
    29  C    0.023295
    30  C    0.041650
    31  C    0.133773
    32  C    0.068078
    33  C    0.062447
    34  N   -0.224365
    35  C    0.097141
    36  C   -0.190200
    37  C    0.093714
    38  C    0.040129
    39  C    0.165937
    40  C   -0.079670
    41  O   -0.116867
    42  C    0.129641
    43  C    0.085396
    44  O   -0.171949
    45  O   -0.267258
    46  C    0.216388
    47  C    0.336834
    48  C   -0.097417
    49  C   -0.205088
    50  C    0.143700
    51  C    0.158001
    52  C    0.061227
    53  C    0.103474
    54  C   -0.056871
    55  C    0.083451
    56  C    0.041590
    57  C    0.099758
    58  C    0.105327
    59  C   -0.086374
    60  C    0.122020
    61  C    0.071251
    62  C    0.063874
    63  C    0.116971
    64  C   -0.098265
    65  C    0.097282
    66  C    0.130766
    67  H   -0.061323
    68  H   -0.049704
    69  H   -0.065014
    70  H   -0.010851
    71  H   -0.016545
    72  H    0.004212
    73  H   -0.019232
    74  H   -0.006729
    75  H   -0.023491
    76  H   -0.006691
    77  H   -0.015878
    78  H   -0.005747
    79  H   -0.003720
    80  H   -0.022275
    81  H   -0.003786
    82  H   -0.010815
    83  H   -0.017307
    84  H    0.026031
    85  H   -0.026465
    86  H   -0.039602
    87  H   -0.001158
    88  H   -0.011314
    89  H    0.006291
    90  H   -0.014872
    91  H   -0.020911
    92  H   -0.014340
    93  H    0.003862
    94  H   -0.003077
    95  H    0.001985
    96  H   -0.002124
    97  H    0.008369
    98  H    0.005431
    99  H    0.011685
   100  H    0.023969
   101  H    0.013319
   102  H    0.010368
   103  H   -0.001566
   104  H   -0.029518
   105  H    0.002660
   106  H   -0.010510
   107  H   -0.009049
   108  H   -0.044592
   109  H   -0.019072
   110  H   -0.025035
   111  H   -0.024606
   112  H   -0.024769
   113  H   -0.020784
   114  H   -0.038590
   115  H   -0.020740
   116  H   -0.004790
   117  H   -0.023388
   118  H   -0.025481
   119  H   -0.035493
   120  H   -0.027897
   121  H   -0.047094
   122  H   -0.044871
   123  H   -0.024919
   124  H   -0.034973
   125  H   -0.026081
   126  H   -0.017428
   127  H   -0.005658
   128  H   -0.039543
   129  H   -0.033431
   130  H   -0.026854
   131  H   -0.043652
   132  H   -0.037652
   133  H   -0.032488
   134  H   -0.029154
   135  H   -0.016447
   136  H   -0.030095
   137  H   -0.017321
   138  H   -0.026661
   139  H   -0.013011
   140  H   -0.013120
 Sum of Mulliken charges =  -0.00000

 Dipole moment (field-independent basis, Debye):
    X=             -2.8432    Y=              3.6595    Z=             -0.1677  Tot=              4.6372
 Quadrupole moment (field-independent basis, Debye-Ang):
   XX=           -395.3747   YY=           -421.7774   ZZ=           -405.3542
   XY=              9.4097   XZ=             29.7986   YZ=              3.1457

 Normal termination of Gaussian 16 at Sat Apr 30 00:52:53 2022.
