 Gaussian 16, Revision A.03,
 Gaussian 16:  ES64L-G16RevA.03 25-Dec-2016

 -----------------------------------
 #p cam-b3lyp/Def2SVP td=(nstates=5)
 -----------------------------------

 ------------------------------------------------------
 step_51_chromophore_16 TDDFT with cam-b3lyp functional
 ------------------------------------------------------
 Symbolic Z-matrix:
 Charge =  0 Multiplicity = 1

                         Standard orientation:
 ---------------------------------------------------------------------
 Center     Atomic      Atomic             Coordinates (Angstroms)
 Number     Number       Type             X           Y           Z
 ---------------------------------------------------------------------
      1         12           0        5.900048    0.553568    0.252444
      2          6           0        3.552273   -2.114420   -0.071241
      3          6           0        3.586802    2.579036   -1.169843
      4          6           0        8.299290    2.789739   -0.225470
      5          6           0        8.319383   -1.814580    1.335886
      6          7           0        3.826161    0.186304   -0.605686
      7          6           0        3.019575   -0.875230   -0.366723
      8          6           0        1.585706   -0.558653   -0.701934
      9          6           0        1.675590    0.945066   -1.164808
     10          6           0        3.171359    1.239740   -1.059017
     11          6           0        0.970359    1.107261   -2.591361
     12          6           0        0.571799   -0.866240    0.544791
     13          6           0       -0.978072   -0.498458    0.344885
     14          6           0       -1.971853   -1.613059    0.533342
     15          8           0       -2.518514   -1.802277    1.623138
     16          8           0       -2.336306   -2.151152   -0.623742
     17          7           0        5.920692    2.394948   -0.625774
     18          6           0        4.881728    3.146204   -1.113830
     19          6           0        5.312418    4.460585   -1.406930
     20          6           0        6.649082    4.543508   -1.184623
     21          6           0        7.022703    3.239079   -0.655416
     22          6           0        4.351010    5.523277   -1.954330
     23          6           0        7.530774    5.715026   -1.404187
     24          8           0        8.761373    5.690836   -1.230644
     25          6           0        6.867777    7.067334   -1.571877
     26          7           0        7.950431    0.534489    0.636284
     27          6           0        8.710077    1.605551    0.377351
     28          6           0       10.181685    1.361911    0.908372
     29          6           0       10.079953    0.026359    1.723692
     30          6           0        8.750900   -0.503783    1.205326
     31          6           0       11.197385    1.307981   -0.281404
     32          6           0       10.100222    0.192417    3.295209
     33          6           0        8.930445    1.014117    3.849230
     34          7           0        6.005269   -1.581133    0.571438
     35          6           0        7.061868   -2.384066    1.002851
     36          6           0        6.569329   -3.751910    1.107915
     37          6           0        5.214479   -3.707896    0.662132
     38          6           0        4.946380   -2.347876    0.358831
     39          6           0        7.508762   -4.917407    1.407646
     40          6           0        3.979042   -4.445213    0.437237
     41          8           0        3.742613   -5.604969    0.699622
     42          6           0        2.907138   -3.419087   -0.028477
     43          6           0        2.379096   -3.875584   -1.306221
     44          8           0        3.079159   -4.106666   -2.267296
     45          8           0        1.053511   -4.180079   -1.220079
     46          6           0        0.401911   -4.620091   -2.443798
     47          6           0       -3.393595   -3.152186   -0.458162
     48          6           0       -4.673412   -2.628671   -0.051649
     49          6           0       -5.870090   -3.287044   -0.037699
     50          6           0       -5.985734   -4.758018   -0.416715
     51          6           0       -7.159731   -2.590083    0.481265
     52          6           0       -8.198169   -2.508975   -0.576327
     53          6           0       -8.784688   -1.064724   -0.781668
     54          6           0      -10.246552   -1.065077   -1.365075
     55          6           0      -10.347695   -0.782645   -2.881439
     56          6           0      -11.235921    0.016603   -0.671965
     57          6           0      -12.545000   -0.412490   -0.017530
     58          6           0      -13.791884    0.322982   -0.489188
     59          6           0      -14.332057    1.265629    0.613123
     60          6           0      -15.899096    1.340249    0.365428
     61          6           0      -13.616134    2.657036    0.383663
     62          6           0      -13.234799    3.348842    1.677907
     63          6           0      -11.988386    4.216467    1.475137
     64          6           0      -10.728646    3.510277    2.109064
     65          6           0       -9.491388    3.731207    1.209159
     66          6           0      -10.498882    3.959951    3.523724
     67          1           0        2.726374    3.138567   -1.540440
     68          1           0        9.089854    3.543274   -0.235370
     69          1           0        9.053363   -2.498148    1.766806
     70          1           0        1.176648   -1.265406   -1.424135
     71          1           0        1.167199    1.668351   -0.528687
     72          1           0        0.901529    0.191561   -3.178775
     73          1           0        1.542132    1.875726   -3.112600
     74          1           0       -0.029096    1.536891   -2.518885
     75          1           0        0.950690   -0.507143    1.501368
     76          1           0        0.641401   -1.940621    0.714650
     77          1           0       -1.134806   -0.057698   -0.640390
     78          1           0       -1.154784    0.301417    1.064359
     79          1           0        4.164475    6.359470   -1.280917
     80          1           0        3.378602    5.084495   -2.180440
     81          1           0        4.710876    5.965003   -2.883632
     82          1           0        6.411020    7.010148   -2.559968
     83          1           0        7.640223    7.822391   -1.710320
     84          1           0        6.215823    7.292446   -0.727180
     85          1           0       10.501785    2.102190    1.641548
     86          1           0       10.904955   -0.664096    1.548400
     87          1           0       11.974525    0.575780   -0.061711
     88          1           0       11.634149    2.305978   -0.245498
     89          1           0       10.787898    1.359688   -1.289439
     90          1           0       11.038581    0.671709    3.576262
     91          1           0       10.021023   -0.786975    3.768159
     92          1           0        9.351809    1.982121    4.120739
     93          1           0        8.403828    0.466314    4.630696
     94          1           0        8.257090    1.298547    3.041062
     95          1           0        7.711359   -5.033748    2.471849
     96          1           0        8.445799   -4.741855    0.878349
     97          1           0        7.059233   -5.810600    0.974339
     98          1           0        2.151010   -3.366322    0.755370
     99          1           0        0.933863   -4.171074   -3.283081
    100          1           0       -0.661814   -4.388426   -2.384459
    101          1           0        0.615712   -5.682290   -2.558395
    102          1           0       -3.043827   -3.891619    0.262629
    103          1           0       -3.498372   -3.660078   -1.416728
    104          1           0       -4.721070   -1.546591    0.069438
    105          1           0       -6.247941   -4.870684   -1.469245
    106          1           0       -6.762585   -5.258555    0.161471
    107          1           0       -5.024952   -5.247363   -0.256579
    108          1           0       -6.944454   -1.595236    0.872584
    109          1           0       -7.395195   -3.096318    1.417973
    110          1           0       -8.979434   -3.262053   -0.467487
    111          1           0       -7.735842   -2.664061   -1.550746
    112          1           0       -8.115962   -0.573599   -1.488155
    113          1           0       -8.690334   -0.600837    0.200135
    114          1           0      -10.795153   -2.000596   -1.252313
    115          1           0       -9.759482   -1.550044   -3.384370
    116          1           0      -10.165279    0.222396   -3.260631
    117          1           0      -11.395058   -0.955158   -3.129510
    118          1           0      -11.409492    0.746268   -1.462048
    119          1           0      -10.663744    0.394766    0.175639
    120          1           0      -12.334072   -0.392979    1.051447
    121          1           0      -12.665660   -1.445906   -0.344893
    122          1           0      -14.488522   -0.493679   -0.678402
    123          1           0      -13.670409    0.859851   -1.430121
    124          1           0      -14.100043    0.922440    1.621779
    125          1           0      -16.214951    2.360226    0.582634
    126          1           0      -16.379550    0.710150    1.115344
    127          1           0      -16.144668    1.045456   -0.653662
    128          1           0      -14.185160    3.358190   -0.227646
    129          1           0      -12.746187    2.487240   -0.250952
    130          1           0      -13.157973    2.648537    2.509754
    131          1           0      -14.092816    3.998513    1.851052
    132          1           0      -12.284280    5.132505    1.986417
    133          1           0      -11.860780    4.390442    0.406642
    134          1           0      -10.837924    2.426306    2.132569
    135          1           0       -9.006914    2.781158    0.986355
    136          1           0       -8.798575    4.358744    1.770454
    137          1           0       -9.642665    4.207800    0.239923
    138          1           0      -11.461162    4.232276    3.956943
    139          1           0       -9.917526    4.881807    3.513828
    140          1           0      -10.104544    3.132193    4.112132
 ---------------------------------------------------------------------

 SCF Done:  E(RCAM-B3LYP) =  -3007.18856822     A.U. after   18 cycles

 Excitation energies and oscillator strengths:

 Excited State   1:      Singlet-A      1.7366 eV  713.95 nm  f=0.3724  <S**2>=0.000
     245 -> 248        0.16747
     246 -> 247        0.68787
     245 <- 248        0.10080
 This state for optimization and/or second-order correction.
 Total Energy, E(TD-HF/TD-DFT) =  -3007.12474991
 Copying the excited state density for this state as the 1-particle RhoCI density.

 Excited State   2:      Singlet-A      2.1950 eV  564.85 nm  f=0.1498  <S**2>=0.000
     245 -> 247        0.65415
     246 -> 248       -0.25285

 Excited State   3:      Singlet-A      3.3015 eV  375.54 nm  f=0.0086  <S**2>=0.000
     241 -> 247       -0.14802
     244 -> 247        0.67257

 Excited State   4:      Singlet-A      3.5059 eV  353.65 nm  f=0.0019  <S**2>=0.000
     240 -> 247        0.53932
     240 -> 248       -0.17181
     240 -> 249       -0.33833
     240 -> 250        0.13380
     240 -> 251        0.13188

 Excited State   5:      Singlet-A      3.5516 eV  349.10 nm  f=0.0128  <S**2>=0.000
     242 -> 247        0.59142
     242 -> 249        0.21299
     242 -> 251        0.25882
     246 -> 248       -0.10610

 The electronic state is 1-A.
 Alpha  occ. eigenvalues --  -46.89146 -19.26453 -19.25017 -19.19637 -19.19439
 Alpha  occ. eigenvalues --  -19.19175 -19.18064 -14.42210 -14.41931 -14.40261
 Alpha  occ. eigenvalues --  -14.38654 -10.39182 -10.38817 -10.35787 -10.34154
 Alpha  occ. eigenvalues --  -10.32228 -10.31573 -10.31426 -10.31376 -10.31368
 Alpha  occ. eigenvalues --  -10.30846 -10.30501 -10.30426 -10.29186 -10.28777
 Alpha  occ. eigenvalues --  -10.28737 -10.28735 -10.28209 -10.28138 -10.28114
 Alpha  occ. eigenvalues --  -10.27977 -10.27882 -10.27725 -10.27668 -10.27547
 Alpha  occ. eigenvalues --  -10.27517 -10.27401 -10.27216 -10.26963 -10.26855
 Alpha  occ. eigenvalues --  -10.26753 -10.26626 -10.26394 -10.26273 -10.26165
 Alpha  occ. eigenvalues --  -10.26080 -10.25764 -10.25559 -10.25480 -10.25470
 Alpha  occ. eigenvalues --  -10.25417 -10.25345 -10.25327 -10.24985 -10.24980
 Alpha  occ. eigenvalues --  -10.24684 -10.24444 -10.24438 -10.24363 -10.24317
 Alpha  occ. eigenvalues --  -10.24302 -10.24271 -10.24183 -10.24106 -10.24033
 Alpha  occ. eigenvalues --  -10.23909  -3.17666  -1.92551  -1.92111  -1.91976
 Alpha  occ. eigenvalues --   -1.18352  -1.16817  -1.09752  -1.09571  -1.08126
 Alpha  occ. eigenvalues --   -1.07629  -1.05330  -1.04280  -1.02889  -1.02052
 Alpha  occ. eigenvalues --   -0.93026  -0.90501  -0.89821  -0.89464  -0.88837
 Alpha  occ. eigenvalues --   -0.88744  -0.88404  -0.88198  -0.87379  -0.87016
 Alpha  occ. eigenvalues --   -0.85815  -0.85349  -0.84445  -0.83697  -0.83510
 Alpha  occ. eigenvalues --   -0.82961  -0.82301  -0.81679  -0.80993  -0.80866
 Alpha  occ. eigenvalues --   -0.80039  -0.79210  -0.77897  -0.77354  -0.76265
 Alpha  occ. eigenvalues --   -0.75863  -0.75471  -0.75042  -0.74194  -0.73985
 Alpha  occ. eigenvalues --   -0.73674  -0.72690  -0.71752  -0.70802  -0.69542
 Alpha  occ. eigenvalues --   -0.69105  -0.67944  -0.67735  -0.66559  -0.66036
 Alpha  occ. eigenvalues --   -0.65101  -0.64660  -0.64330  -0.63972  -0.63888
 Alpha  occ. eigenvalues --   -0.63696  -0.63009  -0.62703  -0.62204  -0.61066
 Alpha  occ. eigenvalues --   -0.60955  -0.59858  -0.59684  -0.58849  -0.58559
 Alpha  occ. eigenvalues --   -0.57683  -0.57418  -0.56394  -0.55765  -0.55465
 Alpha  occ. eigenvalues --   -0.55176  -0.54842  -0.54420  -0.54288  -0.54117
 Alpha  occ. eigenvalues --   -0.54080  -0.53782  -0.53423  -0.53063  -0.53014
 Alpha  occ. eigenvalues --   -0.52839  -0.52755  -0.52684  -0.52329  -0.51770
 Alpha  occ. eigenvalues --   -0.51494  -0.51366  -0.51263  -0.50698  -0.50565
 Alpha  occ. eigenvalues --   -0.50434  -0.50236  -0.49978  -0.49784  -0.49666
 Alpha  occ. eigenvalues --   -0.49485  -0.49434  -0.49275  -0.49151  -0.48862
 Alpha  occ. eigenvalues --   -0.48611  -0.48364  -0.48199  -0.48162  -0.47828
 Alpha  occ. eigenvalues --   -0.47554  -0.47448  -0.47123  -0.46994  -0.46924
 Alpha  occ. eigenvalues --   -0.46196  -0.46106  -0.45857  -0.45732  -0.45702
 Alpha  occ. eigenvalues --   -0.45488  -0.45293  -0.45248  -0.45158  -0.44937
 Alpha  occ. eigenvalues --   -0.44893  -0.44706  -0.44608  -0.44432  -0.44086
 Alpha  occ. eigenvalues --   -0.43933  -0.43653  -0.43422  -0.43344  -0.43244
 Alpha  occ. eigenvalues --   -0.42844  -0.42594  -0.42512  -0.42362  -0.42091
 Alpha  occ. eigenvalues --   -0.41982  -0.41797  -0.41507  -0.41303  -0.40982
 Alpha  occ. eigenvalues --   -0.40967  -0.40867  -0.40563  -0.40163  -0.39965
 Alpha  occ. eigenvalues --   -0.39899  -0.39657  -0.39569  -0.39488  -0.39085
 Alpha  occ. eigenvalues --   -0.38741  -0.38264  -0.38018  -0.37993  -0.37764
 Alpha  occ. eigenvalues --   -0.37401  -0.36980  -0.36757  -0.36456  -0.36256
 Alpha  occ. eigenvalues --   -0.36111  -0.35225  -0.34598  -0.34276  -0.34012
 Alpha  occ. eigenvalues --   -0.33650  -0.33268  -0.33111  -0.32388  -0.31704
 Alpha  occ. eigenvalues --   -0.30701  -0.30197  -0.28971  -0.28942  -0.24104
 Alpha  occ. eigenvalues --   -0.21564
 Alpha virt. eigenvalues --   -0.09037  -0.01646   0.00171   0.01517   0.02266
 Alpha virt. eigenvalues --    0.04450   0.05623   0.05847   0.05938   0.06940
 Alpha virt. eigenvalues --    0.07640   0.07995   0.08350   0.08739   0.09126

 Mulliken charges:
               1
     1  Mg   0.826900
     2  C   -0.000222
     3  C   -0.100552
     4  C   -0.062099
     5  C   -0.055493
     6  N   -0.225834
     7  C   -0.061719
     8  C   -0.008157
     9  C   -0.073108
    10  C    0.044156
    11  C    0.048404
    12  C   -0.002480
    13  C    0.092659
    14  C    0.139041
    15  O   -0.251906
    16  O   -0.298333
    17  N   -0.401438
    18  C    0.171018
    19  C   -0.124089
    20  C    0.020729
    21  C    0.117838
    22  C    0.125190
    23  C   -0.025521
    24  O   -0.209353
    25  C    0.068155
    26  N   -0.329694
    27  C    0.065082
    28  C   -0.043256
    29  C   -0.026593
    30  C    0.047015
    31  C    0.075448
    32  C    0.020495
    33  C   -0.000090
    34  N   -0.310192
    35  C    0.090526
    36  C   -0.177784
    37  C    0.008990
    38  C    0.075171
    39  C    0.111384
    40  C    0.024621
    41  O   -0.158650
    42  C    0.036237
    43  C    0.173758
    44  O   -0.209104
    45  O   -0.330436
    46  C    0.177337
    47  C    0.294338
    48  C   -0.111727
    49  C   -0.225565
    50  C    0.080682
    51  C    0.097800
    52  C    0.003975
    53  C    0.052770
    54  C   -0.111155
    55  C    0.028262
    56  C   -0.001604
    57  C    0.044714
    58  C    0.045196
    59  C   -0.142428
    60  C    0.065540
    61  C    0.024785
    62  C    0.010751
    63  C    0.058640
    64  C   -0.156659
    65  C    0.041136
    66  C    0.071242
    67  H   -0.029360
    68  H   -0.009061
    69  H   -0.029359
    70  H    0.020270
    71  H    0.017927
    72  H    0.030168
    73  H    0.004917
    74  H    0.017388
    75  H    0.007706
    76  H    0.018425
    77  H    0.015463
    78  H    0.028199
    79  H    0.026024
    80  H    0.008852
    81  H    0.024753
    82  H    0.018039
    83  H    0.021731
    84  H    0.054099
    85  H    0.008863
    86  H   -0.003506
    87  H    0.023839
    88  H    0.012206
    89  H    0.032724
    90  H    0.011555
    91  H    0.007305
    92  H    0.008545
    93  H    0.028628
    94  H    0.014944
    95  H    0.025711
    96  H    0.020361
    97  H    0.033700
    98  H    0.050569
    99  H    0.036965
   100  H    0.043669
   101  H    0.037318
   102  H    0.041750
   103  H    0.027031
   104  H    0.003691
   105  H    0.026777
   106  H    0.015589
   107  H    0.014776
   108  H   -0.011733
   109  H    0.011444
   110  H    0.003467
   111  H    0.002911
   112  H    0.003059
   113  H    0.005111
   114  H   -0.007732
   115  H    0.003272
   116  H    0.018416
   117  H    0.000000
   118  H   -0.001094
   119  H   -0.011853
   120  H   -0.000151
   121  H   -0.017344
   122  H   -0.012502
   123  H    0.003005
   124  H   -0.003309
   125  H   -0.002573
   126  H    0.007188
   127  H    0.017344
   128  H   -0.010111
   129  H   -0.009095
   130  H   -0.001127
   131  H   -0.013676
   132  H   -0.007460
   133  H   -0.004101
   134  H   -0.000968
   135  H    0.005355
   136  H   -0.005948
   137  H    0.006858
   138  H   -0.002818
   139  H    0.010262
   140  H    0.011964
 Sum of Mulliken charges =  -0.00000

 Dipole moment (field-independent basis, Debye):
    X=             -2.9757    Y=              5.3330    Z=             -0.7161  Tot=              6.1488
 Quadrupole moment (field-independent basis, Debye-Ang):
   XX=           -395.0737   YY=           -416.4351   ZZ=           -405.1404
   XY=             18.7362   XZ=             28.8863   YZ=              1.6130

 Normal termination of Gaussian 16 at Fri Apr 29 23:52:57 2022.
