 Gaussian 16, Revision A.03,
 Gaussian 16:  ES64L-G16RevA.03 25-Dec-2016

 ---------------------------------
 #p PBE1PBE/Def2SVP td=(nstates=5)
 ---------------------------------

 ----------------------------------------------------
 step_51_chromophore_16 TDDFT with PBE1PBE functional
 ----------------------------------------------------
 Symbolic Z-matrix:
 Charge =  0 Multiplicity = 1

                         Standard orientation:
 ---------------------------------------------------------------------
 Center     Atomic      Atomic             Coordinates (Angstroms)
 Number     Number       Type             X           Y           Z
 ---------------------------------------------------------------------
      1         12           0        5.900048    0.553568    0.252444
      2          6           0        3.552273   -2.114420   -0.071241
      3          6           0        3.586802    2.579036   -1.169843
      4          6           0        8.299290    2.789739   -0.225470
      5          6           0        8.319383   -1.814580    1.335886
      6          7           0        3.826161    0.186304   -0.605686
      7          6           0        3.019575   -0.875230   -0.366723
      8          6           0        1.585706   -0.558653   -0.701934
      9          6           0        1.675590    0.945066   -1.164808
     10          6           0        3.171359    1.239740   -1.059017
     11          6           0        0.970359    1.107261   -2.591361
     12          6           0        0.571799   -0.866240    0.544791
     13          6           0       -0.978072   -0.498458    0.344885
     14          6           0       -1.971853   -1.613059    0.533342
     15          8           0       -2.518514   -1.802277    1.623138
     16          8           0       -2.336306   -2.151152   -0.623742
     17          7           0        5.920692    2.394948   -0.625774
     18          6           0        4.881728    3.146204   -1.113830
     19          6           0        5.312418    4.460585   -1.406930
     20          6           0        6.649082    4.543508   -1.184623
     21          6           0        7.022703    3.239079   -0.655416
     22          6           0        4.351010    5.523277   -1.954330
     23          6           0        7.530774    5.715026   -1.404187
     24          8           0        8.761373    5.690836   -1.230644
     25          6           0        6.867777    7.067334   -1.571877
     26          7           0        7.950431    0.534489    0.636284
     27          6           0        8.710077    1.605551    0.377351
     28          6           0       10.181685    1.361911    0.908372
     29          6           0       10.079953    0.026359    1.723692
     30          6           0        8.750900   -0.503783    1.205326
     31          6           0       11.197385    1.307981   -0.281404
     32          6           0       10.100222    0.192417    3.295209
     33          6           0        8.930445    1.014117    3.849230
     34          7           0        6.005269   -1.581133    0.571438
     35          6           0        7.061868   -2.384066    1.002851
     36          6           0        6.569329   -3.751910    1.107915
     37          6           0        5.214479   -3.707896    0.662132
     38          6           0        4.946380   -2.347876    0.358831
     39          6           0        7.508762   -4.917407    1.407646
     40          6           0        3.979042   -4.445213    0.437237
     41          8           0        3.742613   -5.604969    0.699622
     42          6           0        2.907138   -3.419087   -0.028477
     43          6           0        2.379096   -3.875584   -1.306221
     44          8           0        3.079159   -4.106666   -2.267296
     45          8           0        1.053511   -4.180079   -1.220079
     46          6           0        0.401911   -4.620091   -2.443798
     47          6           0       -3.393595   -3.152186   -0.458162
     48          6           0       -4.673412   -2.628671   -0.051649
     49          6           0       -5.870090   -3.287044   -0.037699
     50          6           0       -5.985734   -4.758018   -0.416715
     51          6           0       -7.159731   -2.590083    0.481265
     52          6           0       -8.198169   -2.508975   -0.576327
     53          6           0       -8.784688   -1.064724   -0.781668
     54          6           0      -10.246552   -1.065077   -1.365075
     55          6           0      -10.347695   -0.782645   -2.881439
     56          6           0      -11.235921    0.016603   -0.671965
     57          6           0      -12.545000   -0.412490   -0.017530
     58          6           0      -13.791884    0.322982   -0.489188
     59          6           0      -14.332057    1.265629    0.613123
     60          6           0      -15.899096    1.340249    0.365428
     61          6           0      -13.616134    2.657036    0.383663
     62          6           0      -13.234799    3.348842    1.677907
     63          6           0      -11.988386    4.216467    1.475137
     64          6           0      -10.728646    3.510277    2.109064
     65          6           0       -9.491388    3.731207    1.209159
     66          6           0      -10.498882    3.959951    3.523724
     67          1           0        2.726374    3.138567   -1.540440
     68          1           0        9.089854    3.543274   -0.235370
     69          1           0        9.053363   -2.498148    1.766806
     70          1           0        1.176648   -1.265406   -1.424135
     71          1           0        1.167199    1.668351   -0.528687
     72          1           0        0.901529    0.191561   -3.178775
     73          1           0        1.542132    1.875726   -3.112600
     74          1           0       -0.029096    1.536891   -2.518885
     75          1           0        0.950690   -0.507143    1.501368
     76          1           0        0.641401   -1.940621    0.714650
     77          1           0       -1.134806   -0.057698   -0.640390
     78          1           0       -1.154784    0.301417    1.064359
     79          1           0        4.164475    6.359470   -1.280917
     80          1           0        3.378602    5.084495   -2.180440
     81          1           0        4.710876    5.965003   -2.883632
     82          1           0        6.411020    7.010148   -2.559968
     83          1           0        7.640223    7.822391   -1.710320
     84          1           0        6.215823    7.292446   -0.727180
     85          1           0       10.501785    2.102190    1.641548
     86          1           0       10.904955   -0.664096    1.548400
     87          1           0       11.974525    0.575780   -0.061711
     88          1           0       11.634149    2.305978   -0.245498
     89          1           0       10.787898    1.359688   -1.289439
     90          1           0       11.038581    0.671709    3.576262
     91          1           0       10.021023   -0.786975    3.768159
     92          1           0        9.351809    1.982121    4.120739
     93          1           0        8.403828    0.466314    4.630696
     94          1           0        8.257090    1.298547    3.041062
     95          1           0        7.711359   -5.033748    2.471849
     96          1           0        8.445799   -4.741855    0.878349
     97          1           0        7.059233   -5.810600    0.974339
     98          1           0        2.151010   -3.366322    0.755370
     99          1           0        0.933863   -4.171074   -3.283081
    100          1           0       -0.661814   -4.388426   -2.384459
    101          1           0        0.615712   -5.682290   -2.558395
    102          1           0       -3.043827   -3.891619    0.262629
    103          1           0       -3.498372   -3.660078   -1.416728
    104          1           0       -4.721070   -1.546591    0.069438
    105          1           0       -6.247941   -4.870684   -1.469245
    106          1           0       -6.762585   -5.258555    0.161471
    107          1           0       -5.024952   -5.247363   -0.256579
    108          1           0       -6.944454   -1.595236    0.872584
    109          1           0       -7.395195   -3.096318    1.417973
    110          1           0       -8.979434   -3.262053   -0.467487
    111          1           0       -7.735842   -2.664061   -1.550746
    112          1           0       -8.115962   -0.573599   -1.488155
    113          1           0       -8.690334   -0.600837    0.200135
    114          1           0      -10.795153   -2.000596   -1.252313
    115          1           0       -9.759482   -1.550044   -3.384370
    116          1           0      -10.165279    0.222396   -3.260631
    117          1           0      -11.395058   -0.955158   -3.129510
    118          1           0      -11.409492    0.746268   -1.462048
    119          1           0      -10.663744    0.394766    0.175639
    120          1           0      -12.334072   -0.392979    1.051447
    121          1           0      -12.665660   -1.445906   -0.344893
    122          1           0      -14.488522   -0.493679   -0.678402
    123          1           0      -13.670409    0.859851   -1.430121
    124          1           0      -14.100043    0.922440    1.621779
    125          1           0      -16.214951    2.360226    0.582634
    126          1           0      -16.379550    0.710150    1.115344
    127          1           0      -16.144668    1.045456   -0.653662
    128          1           0      -14.185160    3.358190   -0.227646
    129          1           0      -12.746187    2.487240   -0.250952
    130          1           0      -13.157973    2.648537    2.509754
    131          1           0      -14.092816    3.998513    1.851052
    132          1           0      -12.284280    5.132505    1.986417
    133          1           0      -11.860780    4.390442    0.406642
    134          1           0      -10.837924    2.426306    2.132569
    135          1           0       -9.006914    2.781158    0.986355
    136          1           0       -8.798575    4.358744    1.770454
    137          1           0       -9.642665    4.207800    0.239923
    138          1           0      -11.461162    4.232276    3.956943
    139          1           0       -9.917526    4.881807    3.513828
    140          1           0      -10.104544    3.132193    4.112132
 ---------------------------------------------------------------------

 SCF Done:  E(RPBE1PBE) =  -3005.37616019     A.U. after   16 cycles

 Excitation energies and oscillator strengths:

 Excited State   1:      Singlet-A      1.8543 eV  668.63 nm  f=0.3587  <S**2>=0.000
     245 -> 248       -0.16319
     246 -> 247        0.69392
     246 <- 247       -0.10520
 This state for optimization and/or second-order correction.
 Total Energy, E(TD-HF/TD-DFT) =  -3005.30801574
 Copying the excited state density for this state as the 1-particle RhoCI density.

 Excited State   2:      Singlet-A      2.1929 eV  565.40 nm  f=0.1420  <S**2>=0.000
     245 -> 247        0.66286
     246 -> 248        0.23063

 Excited State   3:      Singlet-A      2.9098 eV  426.08 nm  f=0.0071  <S**2>=0.000
     243 -> 247        0.69303

 Excited State   4:      Singlet-A      2.9334 eV  422.66 nm  f=0.0002  <S**2>=0.000
     242 -> 247        0.68036
     242 -> 249       -0.11671
     242 -> 250       -0.10352

 Excited State   5:      Singlet-A      3.0367 eV  408.29 nm  f=0.0000  <S**2>=0.000
     241 -> 247        0.66244
     241 -> 248        0.11824
     241 -> 249        0.17638

 The electronic state is 1-A.
 Alpha  occ. eigenvalues --  -46.92548 -19.27152 -19.25732 -19.19745 -19.19560
 Alpha  occ. eigenvalues --  -19.19536 -19.18596 -14.41615 -14.41505 -14.39783
 Alpha  occ. eigenvalues --  -14.38499 -10.36257 -10.35891 -10.32631 -10.31581
 Alpha  occ. eigenvalues --  -10.29627 -10.28924 -10.28844 -10.28787 -10.28703
 Alpha  occ. eigenvalues --  -10.28506 -10.28404 -10.28097 -10.26945 -10.26631
 Alpha  occ. eigenvalues --  -10.26453 -10.26369 -10.26263 -10.25906 -10.25864
 Alpha  occ. eigenvalues --  -10.25831 -10.25565 -10.25493 -10.25215 -10.25035
 Alpha  occ. eigenvalues --  -10.25000 -10.24986 -10.24965 -10.24673 -10.24527
 Alpha  occ. eigenvalues --  -10.24261 -10.24139 -10.23898 -10.23830 -10.23686
 Alpha  occ. eigenvalues --  -10.23475 -10.23290 -10.23222 -10.23073 -10.23055
 Alpha  occ. eigenvalues --  -10.23053 -10.23033 -10.22866 -10.22524 -10.22501
 Alpha  occ. eigenvalues --  -10.22447 -10.22083 -10.22018 -10.22015 -10.21838
 Alpha  occ. eigenvalues --  -10.21769 -10.21720 -10.21661 -10.21631 -10.21557
 Alpha  occ. eigenvalues --  -10.21291  -3.14648  -1.87473  -1.87012  -1.86881
 Alpha  occ. eigenvalues --   -1.13230  -1.11660  -1.04598  -1.04177  -1.03036
 Alpha  occ. eigenvalues --   -1.02532  -0.99871  -0.98696  -0.97694  -0.96841
 Alpha  occ. eigenvalues --   -0.87527  -0.84645  -0.83901  -0.83558  -0.83013
 Alpha  occ. eigenvalues --   -0.82891  -0.82554  -0.82453  -0.81515  -0.81364
 Alpha  occ. eigenvalues --   -0.80064  -0.79844  -0.78721  -0.78015  -0.77782
 Alpha  occ. eigenvalues --   -0.77150  -0.76414  -0.75836  -0.75294  -0.75116
 Alpha  occ. eigenvalues --   -0.74211  -0.73301  -0.72220  -0.71754  -0.70672
 Alpha  occ. eigenvalues --   -0.70030  -0.69549  -0.69355  -0.68396  -0.68183
 Alpha  occ. eigenvalues --   -0.67924  -0.67223  -0.66066  -0.65172  -0.63883
 Alpha  occ. eigenvalues --   -0.63419  -0.62330  -0.62202  -0.60854  -0.60430
 Alpha  occ. eigenvalues --   -0.59612  -0.58969  -0.58916  -0.58379  -0.58148
 Alpha  occ. eigenvalues --   -0.58068  -0.57185  -0.56869  -0.56847  -0.55416
 Alpha  occ. eigenvalues --   -0.55288  -0.54404  -0.54237  -0.53417  -0.53118
 Alpha  occ. eigenvalues --   -0.52294  -0.52037  -0.50878  -0.50322  -0.50109
 Alpha  occ. eigenvalues --   -0.49830  -0.49370  -0.48991  -0.48777  -0.48588
 Alpha  occ. eigenvalues --   -0.48286  -0.48202  -0.47830  -0.47756  -0.47507
 Alpha  occ. eigenvalues --   -0.47370  -0.47177  -0.47132  -0.46792  -0.46500
 Alpha  occ. eigenvalues --   -0.46097  -0.45940  -0.45792  -0.45329  -0.45119
 Alpha  occ. eigenvalues --   -0.44810  -0.44738  -0.44532  -0.44345  -0.44171
 Alpha  occ. eigenvalues --   -0.44011  -0.43965  -0.43946  -0.43736  -0.43526
 Alpha  occ. eigenvalues --   -0.43166  -0.43067  -0.42792  -0.42628  -0.42406
 Alpha  occ. eigenvalues --   -0.42146  -0.42054  -0.41801  -0.41610  -0.41544
 Alpha  occ. eigenvalues --   -0.41045  -0.40925  -0.40548  -0.40418  -0.40296
 Alpha  occ. eigenvalues --   -0.40278  -0.40076  -0.39930  -0.39900  -0.39687
 Alpha  occ. eigenvalues --   -0.39618  -0.39447  -0.39324  -0.39143  -0.38828
 Alpha  occ. eigenvalues --   -0.38608  -0.38488  -0.38226  -0.38122  -0.38014
 Alpha  occ. eigenvalues --   -0.37697  -0.37604  -0.37291  -0.37132  -0.36884
 Alpha  occ. eigenvalues --   -0.36868  -0.36649  -0.36317  -0.36133  -0.35895
 Alpha  occ. eigenvalues --   -0.35716  -0.35613  -0.35435  -0.35141  -0.34920
 Alpha  occ. eigenvalues --   -0.34691  -0.34474  -0.34385  -0.34332  -0.33856
 Alpha  occ. eigenvalues --   -0.33535  -0.33059  -0.33026  -0.32927  -0.32582
 Alpha  occ. eigenvalues --   -0.32333  -0.31998  -0.31789  -0.31409  -0.31336
 Alpha  occ. eigenvalues --   -0.30935  -0.30102  -0.29663  -0.29342  -0.28956
 Alpha  occ. eigenvalues --   -0.28733  -0.28476  -0.28237  -0.27760  -0.26333
 Alpha  occ. eigenvalues --   -0.26150  -0.25331  -0.24911  -0.24277  -0.20994
 Alpha  occ. eigenvalues --   -0.19134
 Alpha virt. eigenvalues --   -0.11499  -0.05249  -0.03906  -0.02322  -0.01277
 Alpha virt. eigenvalues --   -0.00092   0.00894   0.01391   0.01487   0.03029
 Alpha virt. eigenvalues --    0.04132   0.04374   0.04757   0.05341   0.05794

 Mulliken charges:
               1
     1  Mg   0.969949
     2  C   -0.001115
     3  C   -0.093443
     4  C   -0.049123
     5  C   -0.055052
     6  N   -0.335445
     7  C    0.009275
     8  C   -0.073285
     9  C   -0.155727
    10  C    0.091979
    11  C   -0.007787
    12  C   -0.051489
    13  C    0.014822
    14  C    0.203075
    15  O   -0.281269
    16  O   -0.330494
    17  N   -0.513715
    18  C    0.187437
    19  C   -0.149966
    20  C   -0.039193
    21  C    0.149223
    22  C    0.067560
    23  C    0.032753
    24  O   -0.248884
    25  C   -0.012370
    26  N   -0.428029
    27  C    0.087765
    28  C   -0.117469
    29  C   -0.099075
    30  C    0.079715
    31  C    0.020442
    32  C   -0.039076
    33  C   -0.077448
    34  N   -0.436597
    35  C    0.116155
    36  C   -0.181737
    37  C   -0.049020
    38  C    0.135896
    39  C    0.054129
    40  C    0.129465
    41  O   -0.203591
    42  C   -0.092522
    43  C    0.269156
    44  O   -0.244201
    45  O   -0.364755
    46  C    0.121361
    47  C    0.245435
    48  C   -0.115123
    49  C   -0.274736
    50  C    0.019973
    51  C    0.039835
    52  C   -0.060343
    53  C   -0.004114
    54  C   -0.191595
    55  C   -0.037058
    56  C   -0.056122
    57  C   -0.014912
    58  C   -0.016297
    59  C   -0.228273
    60  C    0.004290
    61  C   -0.022472
    62  C   -0.053044
    63  C   -0.000893
    64  C   -0.251931
    65  C   -0.015722
    66  C    0.010974
    67  H    0.001913
    68  H    0.023218
    69  H    0.002341
    70  H    0.060793
    71  H    0.054082
    72  H    0.055566
    73  H    0.033186
    74  H    0.043426
    75  H    0.039419
    76  H    0.055843
    77  H    0.050183
    78  H    0.061266
    79  H    0.052197
    80  H    0.035932
    81  H    0.051491
    82  H    0.046064
    83  H    0.049079
    84  H    0.079905
    85  H    0.045193
    86  H    0.032824
    87  H    0.050333
    88  H    0.040233
    89  H    0.059611
    90  H    0.045410
    91  H    0.040483
    92  H    0.037307
    93  H    0.055901
    94  H    0.051665
    95  H    0.054997
    96  H    0.048671
    97  H    0.063014
    98  H    0.089432
    99  H    0.058096
   100  H    0.066730
   101  H    0.060016
   102  H    0.069096
   103  H    0.053205
   104  H    0.034001
   105  H    0.053933
   106  H    0.042796
   107  H    0.041937
   108  H    0.019506
   109  H    0.044132
   110  H    0.034727
   111  H    0.037712
   112  H    0.035916
   113  H    0.036407
   114  H    0.029411
   115  H    0.033048
   116  H    0.045219
   117  H    0.030203
   118  H    0.029480
   119  H    0.026057
   120  H    0.030610
   121  H    0.016487
   122  H    0.021616
   123  H    0.034649
   124  H    0.032283
   125  H    0.025957
   126  H    0.035766
   127  H    0.043779
   128  H    0.021969
   129  H    0.027448
   130  H    0.029155
   131  H    0.020831
   132  H    0.025132
   133  H    0.027056
   134  H    0.038752
   135  H    0.032723
   136  H    0.021249
   137  H    0.033130
   138  H    0.025900
   139  H    0.037172
   140  H    0.039571
 Sum of Mulliken charges =  -0.00000

 Dipole moment (field-independent basis, Debye):
    X=             -2.9243    Y=              4.5519    Z=             -0.4019  Tot=              5.4252
 Quadrupole moment (field-independent basis, Debye-Ang):
   XX=           -388.4838   YY=           -414.4847   ZZ=           -402.5424
   XY=             13.6077   XZ=             31.8721   YZ=              1.9359

 Normal termination of Gaussian 16 at Sat Apr 30 00:09:59 2022.
