 Gaussian 16, Revision A.03,
 Gaussian 16:  ES64L-G16RevA.03 25-Dec-2016

 --------------------------------
 #p wB97XD/Def2SVP td=(nstates=5)
 --------------------------------

 ---------------------------------------------------
 step_51_chromophore_16 TDDFT with wB97XD functional
 ---------------------------------------------------
 Symbolic Z-matrix:
 Charge =  0 Multiplicity = 1

                         Standard orientation:
 ---------------------------------------------------------------------
 Center     Atomic      Atomic             Coordinates (Angstroms)
 Number     Number       Type             X           Y           Z
 ---------------------------------------------------------------------
      1         12           0        5.900048    0.553568    0.252444
      2          6           0        3.552273   -2.114420   -0.071241
      3          6           0        3.586802    2.579036   -1.169843
      4          6           0        8.299290    2.789739   -0.225470
      5          6           0        8.319383   -1.814580    1.335886
      6          7           0        3.826161    0.186304   -0.605686
      7          6           0        3.019575   -0.875230   -0.366723
      8          6           0        1.585706   -0.558653   -0.701934
      9          6           0        1.675590    0.945066   -1.164808
     10          6           0        3.171359    1.239740   -1.059017
     11          6           0        0.970359    1.107261   -2.591361
     12          6           0        0.571799   -0.866240    0.544791
     13          6           0       -0.978072   -0.498458    0.344885
     14          6           0       -1.971853   -1.613059    0.533342
     15          8           0       -2.518514   -1.802277    1.623138
     16          8           0       -2.336306   -2.151152   -0.623742
     17          7           0        5.920692    2.394948   -0.625774
     18          6           0        4.881728    3.146204   -1.113830
     19          6           0        5.312418    4.460585   -1.406930
     20          6           0        6.649082    4.543508   -1.184623
     21          6           0        7.022703    3.239079   -0.655416
     22          6           0        4.351010    5.523277   -1.954330
     23          6           0        7.530774    5.715026   -1.404187
     24          8           0        8.761373    5.690836   -1.230644
     25          6           0        6.867777    7.067334   -1.571877
     26          7           0        7.950431    0.534489    0.636284
     27          6           0        8.710077    1.605551    0.377351
     28          6           0       10.181685    1.361911    0.908372
     29          6           0       10.079953    0.026359    1.723692
     30          6           0        8.750900   -0.503783    1.205326
     31          6           0       11.197385    1.307981   -0.281404
     32          6           0       10.100222    0.192417    3.295209
     33          6           0        8.930445    1.014117    3.849230
     34          7           0        6.005269   -1.581133    0.571438
     35          6           0        7.061868   -2.384066    1.002851
     36          6           0        6.569329   -3.751910    1.107915
     37          6           0        5.214479   -3.707896    0.662132
     38          6           0        4.946380   -2.347876    0.358831
     39          6           0        7.508762   -4.917407    1.407646
     40          6           0        3.979042   -4.445213    0.437237
     41          8           0        3.742613   -5.604969    0.699622
     42          6           0        2.907138   -3.419087   -0.028477
     43          6           0        2.379096   -3.875584   -1.306221
     44          8           0        3.079159   -4.106666   -2.267296
     45          8           0        1.053511   -4.180079   -1.220079
     46          6           0        0.401911   -4.620091   -2.443798
     47          6           0       -3.393595   -3.152186   -0.458162
     48          6           0       -4.673412   -2.628671   -0.051649
     49          6           0       -5.870090   -3.287044   -0.037699
     50          6           0       -5.985734   -4.758018   -0.416715
     51          6           0       -7.159731   -2.590083    0.481265
     52          6           0       -8.198169   -2.508975   -0.576327
     53          6           0       -8.784688   -1.064724   -0.781668
     54          6           0      -10.246552   -1.065077   -1.365075
     55          6           0      -10.347695   -0.782645   -2.881439
     56          6           0      -11.235921    0.016603   -0.671965
     57          6           0      -12.545000   -0.412490   -0.017530
     58          6           0      -13.791884    0.322982   -0.489188
     59          6           0      -14.332057    1.265629    0.613123
     60          6           0      -15.899096    1.340249    0.365428
     61          6           0      -13.616134    2.657036    0.383663
     62          6           0      -13.234799    3.348842    1.677907
     63          6           0      -11.988386    4.216467    1.475137
     64          6           0      -10.728646    3.510277    2.109064
     65          6           0       -9.491388    3.731207    1.209159
     66          6           0      -10.498882    3.959951    3.523724
     67          1           0        2.726374    3.138567   -1.540440
     68          1           0        9.089854    3.543274   -0.235370
     69          1           0        9.053363   -2.498148    1.766806
     70          1           0        1.176648   -1.265406   -1.424135
     71          1           0        1.167199    1.668351   -0.528687
     72          1           0        0.901529    0.191561   -3.178775
     73          1           0        1.542132    1.875726   -3.112600
     74          1           0       -0.029096    1.536891   -2.518885
     75          1           0        0.950690   -0.507143    1.501368
     76          1           0        0.641401   -1.940621    0.714650
     77          1           0       -1.134806   -0.057698   -0.640390
     78          1           0       -1.154784    0.301417    1.064359
     79          1           0        4.164475    6.359470   -1.280917
     80          1           0        3.378602    5.084495   -2.180440
     81          1           0        4.710876    5.965003   -2.883632
     82          1           0        6.411020    7.010148   -2.559968
     83          1           0        7.640223    7.822391   -1.710320
     84          1           0        6.215823    7.292446   -0.727180
     85          1           0       10.501785    2.102190    1.641548
     86          1           0       10.904955   -0.664096    1.548400
     87          1           0       11.974525    0.575780   -0.061711
     88          1           0       11.634149    2.305978   -0.245498
     89          1           0       10.787898    1.359688   -1.289439
     90          1           0       11.038581    0.671709    3.576262
     91          1           0       10.021023   -0.786975    3.768159
     92          1           0        9.351809    1.982121    4.120739
     93          1           0        8.403828    0.466314    4.630696
     94          1           0        8.257090    1.298547    3.041062
     95          1           0        7.711359   -5.033748    2.471849
     96          1           0        8.445799   -4.741855    0.878349
     97          1           0        7.059233   -5.810600    0.974339
     98          1           0        2.151010   -3.366322    0.755370
     99          1           0        0.933863   -4.171074   -3.283081
    100          1           0       -0.661814   -4.388426   -2.384459
    101          1           0        0.615712   -5.682290   -2.558395
    102          1           0       -3.043827   -3.891619    0.262629
    103          1           0       -3.498372   -3.660078   -1.416728
    104          1           0       -4.721070   -1.546591    0.069438
    105          1           0       -6.247941   -4.870684   -1.469245
    106          1           0       -6.762585   -5.258555    0.161471
    107          1           0       -5.024952   -5.247363   -0.256579
    108          1           0       -6.944454   -1.595236    0.872584
    109          1           0       -7.395195   -3.096318    1.417973
    110          1           0       -8.979434   -3.262053   -0.467487
    111          1           0       -7.735842   -2.664061   -1.550746
    112          1           0       -8.115962   -0.573599   -1.488155
    113          1           0       -8.690334   -0.600837    0.200135
    114          1           0      -10.795153   -2.000596   -1.252313
    115          1           0       -9.759482   -1.550044   -3.384370
    116          1           0      -10.165279    0.222396   -3.260631
    117          1           0      -11.395058   -0.955158   -3.129510
    118          1           0      -11.409492    0.746268   -1.462048
    119          1           0      -10.663744    0.394766    0.175639
    120          1           0      -12.334072   -0.392979    1.051447
    121          1           0      -12.665660   -1.445906   -0.344893
    122          1           0      -14.488522   -0.493679   -0.678402
    123          1           0      -13.670409    0.859851   -1.430121
    124          1           0      -14.100043    0.922440    1.621779
    125          1           0      -16.214951    2.360226    0.582634
    126          1           0      -16.379550    0.710150    1.115344
    127          1           0      -16.144668    1.045456   -0.653662
    128          1           0      -14.185160    3.358190   -0.227646
    129          1           0      -12.746187    2.487240   -0.250952
    130          1           0      -13.157973    2.648537    2.509754
    131          1           0      -14.092816    3.998513    1.851052
    132          1           0      -12.284280    5.132505    1.986417
    133          1           0      -11.860780    4.390442    0.406642
    134          1           0      -10.837924    2.426306    2.132569
    135          1           0       -9.006914    2.781158    0.986355
    136          1           0       -8.798575    4.358744    1.770454
    137          1           0       -9.642665    4.207800    0.239923
    138          1           0      -11.461162    4.232276    3.956943
    139          1           0       -9.917526    4.881807    3.513828
    140          1           0      -10.104544    3.132193    4.112132
 ---------------------------------------------------------------------

 SCF Done:  E(RwB97XD) =  -3007.88781136     A.U. after   19 cycles

 Excitation energies and oscillator strengths:

 Excited State   1:      Singlet-A      1.7005 eV  729.11 nm  f=0.3724  <S**2>=0.000
     245 -> 248        0.17071
     246 -> 247        0.68572
     245 <- 248        0.10804
 This state for optimization and/or second-order correction.
 Total Energy, E(TD-HF/TD-DFT) =  -3007.82531924
 Copying the excited state density for this state as the 1-particle RhoCI density.

 Excited State   2:      Singlet-A      2.1432 eV  578.49 nm  f=0.1463  <S**2>=0.000
     245 -> 247        0.65190
     246 -> 248       -0.25433

 Excited State   3:      Singlet-A      3.3608 eV  368.91 nm  f=0.0101  <S**2>=0.000
     241 -> 247       -0.19248
     243 -> 247        0.65555

 Excited State   4:      Singlet-A      3.5081 eV  353.42 nm  f=0.0018  <S**2>=0.000
     240 -> 247        0.53090
     240 -> 248       -0.17304
     240 -> 249       -0.37059
     240 -> 250        0.16435

 Excited State   5:      Singlet-A      3.5814 eV  346.19 nm  f=0.3961  <S**2>=0.000
     239 -> 247        0.22760
     241 -> 247        0.28648
     243 -> 247        0.11458
     245 -> 247        0.17877
     246 -> 248        0.54895

 The electronic state is 1-A.
 Alpha  occ. eigenvalues --  -46.95496 -19.31686 -19.30210 -19.24747 -19.24340
 Alpha  occ. eigenvalues --  -19.24141 -19.23044 -14.46786 -14.46542 -14.44927
 Alpha  occ. eigenvalues --  -14.43184 -10.42994 -10.42617 -10.39824 -10.38109
 Alpha  occ. eigenvalues --  -10.36098 -10.35534 -10.35512 -10.35432 -10.35272
 Alpha  occ. eigenvalues --  -10.34992 -10.34464 -10.34398 -10.33421 -10.32845
 Alpha  occ. eigenvalues --  -10.32807 -10.32656 -10.32171 -10.32145 -10.32129
 Alpha  occ. eigenvalues --  -10.32066 -10.31913 -10.31885 -10.31621 -10.31596
 Alpha  occ. eigenvalues --  -10.31581 -10.31428 -10.31201 -10.30986 -10.30758
 Alpha  occ. eigenvalues --  -10.30716 -10.30561 -10.30361 -10.30311 -10.30170
 Alpha  occ. eigenvalues --  -10.29916 -10.29638 -10.29556 -10.29410 -10.29405
 Alpha  occ. eigenvalues --  -10.29349 -10.29252 -10.29147 -10.28892 -10.28795
 Alpha  occ. eigenvalues --  -10.28517 -10.28365 -10.28364 -10.28329 -10.28199
 Alpha  occ. eigenvalues --  -10.28147 -10.28113 -10.28068 -10.28034 -10.27928
 Alpha  occ. eigenvalues --  -10.27710  -3.21464  -1.95037  -1.94578  -1.94440
 Alpha  occ. eigenvalues --   -1.20560  -1.18953  -1.12034  -1.11740  -1.10287
 Alpha  occ. eigenvalues --   -1.09827  -1.07354  -1.06396  -1.04863  -1.04037
 Alpha  occ. eigenvalues --   -0.94955  -0.92309  -0.91569  -0.91465  -0.90806
 Alpha  occ. eigenvalues --   -0.90556  -0.90210  -0.90114  -0.89176  -0.88925
 Alpha  occ. eigenvalues --   -0.87673  -0.87235  -0.86308  -0.85589  -0.85372
 Alpha  occ. eigenvalues --   -0.84802  -0.84260  -0.83594  -0.82919  -0.82775
 Alpha  occ. eigenvalues --   -0.81872  -0.81210  -0.79788  -0.79257  -0.78185
 Alpha  occ. eigenvalues --   -0.77701  -0.77246  -0.77001  -0.76038  -0.75833
 Alpha  occ. eigenvalues --   -0.75550  -0.74641  -0.73698  -0.72767  -0.71472
 Alpha  occ. eigenvalues --   -0.71112  -0.69826  -0.69736  -0.68444  -0.67962
 Alpha  occ. eigenvalues --   -0.67116  -0.66528  -0.66319  -0.65821  -0.65764
 Alpha  occ. eigenvalues --   -0.65640  -0.64836  -0.64517  -0.64149  -0.63122
 Alpha  occ. eigenvalues --   -0.62827  -0.61838  -0.61611  -0.60787  -0.60538
 Alpha  occ. eigenvalues --   -0.59620  -0.59384  -0.58433  -0.57672  -0.57429
 Alpha  occ. eigenvalues --   -0.57140  -0.56747  -0.56355  -0.56244  -0.56051
 Alpha  occ. eigenvalues --   -0.55993  -0.55647  -0.55269  -0.54958  -0.54897
 Alpha  occ. eigenvalues --   -0.54835  -0.54637  -0.54545  -0.54189  -0.53714
 Alpha  occ. eigenvalues --   -0.53359  -0.53255  -0.53143  -0.52665  -0.52455
 Alpha  occ. eigenvalues --   -0.52408  -0.52163  -0.51892  -0.51699  -0.51594
 Alpha  occ. eigenvalues --   -0.51441  -0.51313  -0.51160  -0.51044  -0.50773
 Alpha  occ. eigenvalues --   -0.50489  -0.50317  -0.50176  -0.50085  -0.49764
 Alpha  occ. eigenvalues --   -0.49426  -0.49354  -0.48993  -0.48896  -0.48838
 Alpha  occ. eigenvalues --   -0.48100  -0.48008  -0.47744  -0.47617  -0.47542
 Alpha  occ. eigenvalues --   -0.47406  -0.47149  -0.47130  -0.47077  -0.46841
 Alpha  occ. eigenvalues --   -0.46813  -0.46636  -0.46489  -0.46319  -0.46077
 Alpha  occ. eigenvalues --   -0.45823  -0.45599  -0.45288  -0.45262  -0.45126
 Alpha  occ. eigenvalues --   -0.44795  -0.44582  -0.44470  -0.44278  -0.43993
 Alpha  occ. eigenvalues --   -0.43902  -0.43703  -0.43454  -0.43174  -0.42866
 Alpha  occ. eigenvalues --   -0.42819  -0.42719  -0.42510  -0.42048  -0.41888
 Alpha  occ. eigenvalues --   -0.41758  -0.41486  -0.41417  -0.41392  -0.40915
 Alpha  occ. eigenvalues --   -0.40611  -0.40106  -0.39928  -0.39869  -0.39614
 Alpha  occ. eigenvalues --   -0.39353  -0.38973  -0.38721  -0.38371  -0.38323
 Alpha  occ. eigenvalues --   -0.37962  -0.37062  -0.36538  -0.36222  -0.35837
 Alpha  occ. eigenvalues --   -0.35575  -0.35329  -0.35113  -0.34614  -0.33704
 Alpha  occ. eigenvalues --   -0.32916  -0.32108  -0.31043  -0.30997  -0.26038
 Alpha  occ. eigenvalues --   -0.23387
 Alpha virt. eigenvalues --   -0.07375   0.00291   0.02241   0.04241   0.04737
 Alpha virt. eigenvalues --    0.06752   0.07814   0.08135   0.08232   0.09601
 Alpha virt. eigenvalues --    0.10894   0.11064   0.11142   0.12090   0.12479

 Mulliken charges:
               1
     1  Mg   0.959975
     2  C   -0.005826
     3  C   -0.109659
     4  C   -0.070979
     5  C   -0.065322
     6  N   -0.296693
     7  C   -0.025974
     8  C   -0.047267
     9  C   -0.131568
    10  C    0.075936
    11  C    0.003351
    12  C   -0.036833
    13  C    0.032682
    14  C    0.192513
    15  O   -0.279785
    16  O   -0.330311
    17  N   -0.485118
    18  C    0.187028
    19  C   -0.141069
    20  C   -0.027125
    21  C    0.145022
    22  C    0.080167
    23  C    0.025421
    24  O   -0.240230
    25  C    0.003529
    26  N   -0.399525
    27  C    0.082775
    28  C   -0.096533
    29  C   -0.068954
    30  C    0.063485
    31  C    0.028442
    32  C   -0.028061
    33  C   -0.055404
    34  N   -0.396115
    35  C    0.101395
    36  C   -0.184156
    37  C   -0.041892
    38  C    0.111270
    39  C    0.065407
    40  C    0.107711
    41  O   -0.196776
    42  C   -0.044360
    43  C    0.241996
    44  O   -0.239141
    45  O   -0.362124
    46  C    0.135201
    47  C    0.265335
    48  C   -0.127767
    49  C   -0.257586
    50  C    0.031204
    51  C    0.053684
    52  C   -0.042980
    53  C    0.012575
    54  C   -0.164476
    55  C   -0.020916
    56  C   -0.033821
    57  C   -0.000570
    58  C    0.004447
    59  C   -0.200781
    60  C    0.017222
    61  C   -0.006684
    62  C   -0.035383
    63  C    0.017395
    64  C   -0.220004
    65  C   -0.003882
    66  C    0.022208
    67  H   -0.007603
    68  H    0.018616
    69  H   -0.002591
    70  H    0.045283
    71  H    0.044825
    72  H    0.052035
    73  H    0.025771
    74  H    0.038621
    75  H    0.033229
    76  H    0.040350
    77  H    0.040849
    78  H    0.056280
    79  H    0.048840
    80  H    0.033332
    81  H    0.047092
    82  H    0.039120
    83  H    0.049113
    84  H    0.075438
    85  H    0.035781
    86  H    0.024203
    87  H    0.046146
    88  H    0.033684
    89  H    0.054593
    90  H    0.036909
    91  H    0.032776
    92  H    0.030957
    93  H    0.052232
    94  H    0.034213
    95  H    0.048761
    96  H    0.040986
    97  H    0.057820
    98  H    0.081915
    99  H    0.053243
   100  H    0.065302
   101  H    0.056054
   102  H    0.063260
   103  H    0.048707
   104  H    0.029353
   105  H    0.048419
   106  H    0.038255
   107  H    0.036166
   108  H    0.011201
   109  H    0.037637
   110  H    0.027708
   111  H    0.025784
   112  H    0.028085
   113  H    0.025771
   114  H    0.015296
   115  H    0.026454
   116  H    0.039635
   117  H    0.021482
   118  H    0.016086
   119  H    0.010683
   120  H    0.023490
   121  H    0.006758
   122  H    0.012964
   123  H    0.024657
   124  H    0.020391
   125  H    0.019142
   126  H    0.030304
   127  H    0.037862
   128  H    0.014503
   129  H    0.007453
   130  H    0.018843
   131  H    0.012581
   132  H    0.017437
   133  H    0.017416
   134  H    0.023713
   135  H    0.027107
   136  H    0.014159
   137  H    0.027387
   138  H    0.018317
   139  H    0.030358
   140  H    0.035275
 Sum of Mulliken charges =  -0.00000

 Dipole moment (field-independent basis, Debye):
    X=             -3.0152    Y=              5.6238    Z=             -0.7626  Tot=              6.4265
 Quadrupole moment (field-independent basis, Debye-Ang):
   XX=           -389.9690   YY=           -411.8676   ZZ=           -402.1539
   XY=             20.3116   XZ=             29.7184   YZ=              1.3346

 Normal termination of Gaussian 16 at Sat Apr 30 00:40:03 2022.
