 Gaussian 16, Revision A.03,
 Gaussian 16:  ES64L-G16RevA.03 25-Dec-2016

 --------------------
 #p ZINDO=(nstates=5)
 --------------------

 ----------------------------
 step_51_chromophore_16 ZINDO
 ----------------------------
 Symbolic Z-matrix:
 Charge =  0 Multiplicity = 1

                         Standard orientation:
 ---------------------------------------------------------------------
 Center     Atomic      Atomic             Coordinates (Angstroms)
 Number     Number       Type             X           Y           Z
 ---------------------------------------------------------------------
      1         12           0        5.900048    0.553568    0.252444
      2          6           0        3.552273   -2.114420   -0.071241
      3          6           0        3.586802    2.579036   -1.169843
      4          6           0        8.299290    2.789739   -0.225470
      5          6           0        8.319383   -1.814580    1.335886
      6          7           0        3.826161    0.186304   -0.605686
      7          6           0        3.019575   -0.875230   -0.366723
      8          6           0        1.585706   -0.558653   -0.701934
      9          6           0        1.675590    0.945066   -1.164808
     10          6           0        3.171359    1.239740   -1.059017
     11          6           0        0.970359    1.107261   -2.591361
     12          6           0        0.571799   -0.866240    0.544791
     13          6           0       -0.978072   -0.498458    0.344885
     14          6           0       -1.971853   -1.613059    0.533342
     15          8           0       -2.518514   -1.802277    1.623138
     16          8           0       -2.336306   -2.151152   -0.623742
     17          7           0        5.920692    2.394948   -0.625774
     18          6           0        4.881728    3.146204   -1.113830
     19          6           0        5.312418    4.460585   -1.406930
     20          6           0        6.649082    4.543508   -1.184623
     21          6           0        7.022703    3.239079   -0.655416
     22          6           0        4.351010    5.523277   -1.954330
     23          6           0        7.530774    5.715026   -1.404187
     24          8           0        8.761373    5.690836   -1.230644
     25          6           0        6.867777    7.067334   -1.571877
     26          7           0        7.950431    0.534489    0.636284
     27          6           0        8.710077    1.605551    0.377351
     28          6           0       10.181685    1.361911    0.908372
     29          6           0       10.079953    0.026359    1.723692
     30          6           0        8.750900   -0.503783    1.205326
     31          6           0       11.197385    1.307981   -0.281404
     32          6           0       10.100222    0.192417    3.295209
     33          6           0        8.930445    1.014117    3.849230
     34          7           0        6.005269   -1.581133    0.571438
     35          6           0        7.061868   -2.384066    1.002851
     36          6           0        6.569329   -3.751910    1.107915
     37          6           0        5.214479   -3.707896    0.662132
     38          6           0        4.946380   -2.347876    0.358831
     39          6           0        7.508762   -4.917407    1.407646
     40          6           0        3.979042   -4.445213    0.437237
     41          8           0        3.742613   -5.604969    0.699622
     42          6           0        2.907138   -3.419087   -0.028477
     43          6           0        2.379096   -3.875584   -1.306221
     44          8           0        3.079159   -4.106666   -2.267296
     45          8           0        1.053511   -4.180079   -1.220079
     46          6           0        0.401911   -4.620091   -2.443798
     47          6           0       -3.393595   -3.152186   -0.458162
     48          6           0       -4.673412   -2.628671   -0.051649
     49          6           0       -5.870090   -3.287044   -0.037699
     50          6           0       -5.985734   -4.758018   -0.416715
     51          6           0       -7.159731   -2.590083    0.481265
     52          6           0       -8.198169   -2.508975   -0.576327
     53          6           0       -8.784688   -1.064724   -0.781668
     54          6           0      -10.246552   -1.065077   -1.365075
     55          6           0      -10.347695   -0.782645   -2.881439
     56          6           0      -11.235921    0.016603   -0.671965
     57          6           0      -12.545000   -0.412490   -0.017530
     58          6           0      -13.791884    0.322982   -0.489188
     59          6           0      -14.332057    1.265629    0.613123
     60          6           0      -15.899096    1.340249    0.365428
     61          6           0      -13.616134    2.657036    0.383663
     62          6           0      -13.234799    3.348842    1.677907
     63          6           0      -11.988386    4.216467    1.475137
     64          6           0      -10.728646    3.510277    2.109064
     65          6           0       -9.491388    3.731207    1.209159
     66          6           0      -10.498882    3.959951    3.523724
     67          1           0        2.726374    3.138567   -1.540440
     68          1           0        9.089854    3.543274   -0.235370
     69          1           0        9.053363   -2.498148    1.766806
     70          1           0        1.176648   -1.265406   -1.424135
     71          1           0        1.167199    1.668351   -0.528687
     72          1           0        0.901529    0.191561   -3.178775
     73          1           0        1.542132    1.875726   -3.112600
     74          1           0       -0.029096    1.536891   -2.518885
     75          1           0        0.950690   -0.507143    1.501368
     76          1           0        0.641401   -1.940621    0.714650
     77          1           0       -1.134806   -0.057698   -0.640390
     78          1           0       -1.154784    0.301417    1.064359
     79          1           0        4.164475    6.359470   -1.280917
     80          1           0        3.378602    5.084495   -2.180440
     81          1           0        4.710876    5.965003   -2.883632
     82          1           0        6.411020    7.010148   -2.559968
     83          1           0        7.640223    7.822391   -1.710320
     84          1           0        6.215823    7.292446   -0.727180
     85          1           0       10.501785    2.102190    1.641548
     86          1           0       10.904955   -0.664096    1.548400
     87          1           0       11.974525    0.575780   -0.061711
     88          1           0       11.634149    2.305978   -0.245498
     89          1           0       10.787898    1.359688   -1.289439
     90          1           0       11.038581    0.671709    3.576262
     91          1           0       10.021023   -0.786975    3.768159
     92          1           0        9.351809    1.982121    4.120739
     93          1           0        8.403828    0.466314    4.630696
     94          1           0        8.257090    1.298547    3.041062
     95          1           0        7.711359   -5.033748    2.471849
     96          1           0        8.445799   -4.741855    0.878349
     97          1           0        7.059233   -5.810600    0.974339
     98          1           0        2.151010   -3.366322    0.755370
     99          1           0        0.933863   -4.171074   -3.283081
    100          1           0       -0.661814   -4.388426   -2.384459
    101          1           0        0.615712   -5.682290   -2.558395
    102          1           0       -3.043827   -3.891619    0.262629
    103          1           0       -3.498372   -3.660078   -1.416728
    104          1           0       -4.721070   -1.546591    0.069438
    105          1           0       -6.247941   -4.870684   -1.469245
    106          1           0       -6.762585   -5.258555    0.161471
    107          1           0       -5.024952   -5.247363   -0.256579
    108          1           0       -6.944454   -1.595236    0.872584
    109          1           0       -7.395195   -3.096318    1.417973
    110          1           0       -8.979434   -3.262053   -0.467487
    111          1           0       -7.735842   -2.664061   -1.550746
    112          1           0       -8.115962   -0.573599   -1.488155
    113          1           0       -8.690334   -0.600837    0.200135
    114          1           0      -10.795153   -2.000596   -1.252313
    115          1           0       -9.759482   -1.550044   -3.384370
    116          1           0      -10.165279    0.222396   -3.260631
    117          1           0      -11.395058   -0.955158   -3.129510
    118          1           0      -11.409492    0.746268   -1.462048
    119          1           0      -10.663744    0.394766    0.175639
    120          1           0      -12.334072   -0.392979    1.051447
    121          1           0      -12.665660   -1.445906   -0.344893
    122          1           0      -14.488522   -0.493679   -0.678402
    123          1           0      -13.670409    0.859851   -1.430121
    124          1           0      -14.100043    0.922440    1.621779
    125          1           0      -16.214951    2.360226    0.582634
    126          1           0      -16.379550    0.710150    1.115344
    127          1           0      -16.144668    1.045456   -0.653662
    128          1           0      -14.185160    3.358190   -0.227646
    129          1           0      -12.746187    2.487240   -0.250952
    130          1           0      -13.157973    2.648537    2.509754
    131          1           0      -14.092816    3.998513    1.851052
    132          1           0      -12.284280    5.132505    1.986417
    133          1           0      -11.860780    4.390442    0.406642
    134          1           0      -10.837924    2.426306    2.132569
    135          1           0       -9.006914    2.781158    0.986355
    136          1           0       -8.798575    4.358744    1.770454
    137          1           0       -9.642665    4.207800    0.239923
    138          1           0      -11.461162    4.232276    3.956943
    139          1           0       -9.917526    4.881807    3.513828
    140          1           0      -10.104544    3.132193    4.112132
 ---------------------------------------------------------------------

 SCF Done:  E(RZINDO/S) =  -474.477460181     A.U. after   19 cycles

 Excitation energies and oscillator strengths:

 Excited State   1:      Singlet-A      1.3005 eV  953.32 nm  f=0.5521  <S**2>=0.000
     175 ->178         0.16353
     176 ->177         0.67134
 This state for optimization and/or second-order correction.
 Total Energy, E(CIS/TDA) =  -474.429665923
 Copying the excited state density for this state as the 1-particle RhoCI density.

 Excited State   2:      Singlet-A      1.9243 eV  644.30 nm  f=0.0895  <S**2>=0.000
     175 ->177         0.57534
     176 ->178        -0.37173

 Excited State   3:      Singlet-A      2.8383 eV  436.83 nm  f=0.0010  <S**2>=0.000
     167 ->177         0.18824
     167 ->179        -0.28711
     167 ->185         0.11414
     168 ->177         0.25929
     168 ->178        -0.12320
     168 ->179        -0.37690
     168 ->180         0.10785
     168 ->181        -0.10616
     168 ->185         0.15012
     169 ->177         0.11112
     169 ->179        -0.14056

 Excited State   4:      Singlet-A      3.0265 eV  409.66 nm  f=0.9569  <S**2>=0.000
     175 ->177         0.34242
     176 ->178         0.54903
     176 ->179        -0.13984

 Excited State   5:      Singlet-A      3.0610 eV  405.04 nm  f=0.0217  <S**2>=0.000
     171 ->177         0.29520
     171 ->178        -0.12159
     171 ->179         0.23704
     171 ->180         0.23366
     171 ->181        -0.29897
     171 ->182         0.17180
     171 ->184        -0.12142
     171 ->185        -0.20473
     171 ->187         0.16625
     171 ->188         0.11578
     171 ->203        -0.13577

 The electronic state is 1-A.
 Alpha  occ. eigenvalues --   -1.84005  -1.82596  -1.80145  -1.76941  -1.74285
 Alpha  occ. eigenvalues --   -1.71395  -1.65658  -1.59957  -1.59568  -1.59421
 Alpha  occ. eigenvalues --   -1.55776  -1.50560  -1.48336  -1.47793  -1.46049
 Alpha  occ. eigenvalues --   -1.44305  -1.43489  -1.40425  -1.39402  -1.38475
 Alpha  occ. eigenvalues --   -1.36576  -1.35087  -1.32282  -1.31830  -1.29576
 Alpha  occ. eigenvalues --   -1.28324  -1.24160  -1.22691  -1.21191  -1.18307
 Alpha  occ. eigenvalues --   -1.17356  -1.16086  -1.15117  -1.14061  -1.12995
 Alpha  occ. eigenvalues --   -1.12651  -1.11072  -1.10678  -1.04157  -1.03671
 Alpha  occ. eigenvalues --   -1.03147  -1.01014  -0.99092  -0.98017  -0.97336
 Alpha  occ. eigenvalues --   -0.95851  -0.94603  -0.93206  -0.92809  -0.92285
 Alpha  occ. eigenvalues --   -0.90097  -0.89331  -0.88329  -0.87755  -0.87407
 Alpha  occ. eigenvalues --   -0.85994  -0.83879  -0.83026  -0.82092  -0.81053
 Alpha  occ. eigenvalues --   -0.79986  -0.79490  -0.77632  -0.76977  -0.75616
 Alpha  occ. eigenvalues --   -0.75341  -0.75037  -0.74768  -0.74283  -0.74079
 Alpha  occ. eigenvalues --   -0.73823  -0.72859  -0.71958  -0.71853  -0.70942
 Alpha  occ. eigenvalues --   -0.70372  -0.69902  -0.69400  -0.69254  -0.68315
 Alpha  occ. eigenvalues --   -0.67634  -0.67391  -0.66786  -0.66314  -0.66037
 Alpha  occ. eigenvalues --   -0.64986  -0.64909  -0.64111  -0.63429  -0.63163
 Alpha  occ. eigenvalues --   -0.63084  -0.62625  -0.62438  -0.61992  -0.61669
 Alpha  occ. eigenvalues --   -0.61635  -0.61321  -0.61017  -0.60381  -0.59220
 Alpha  occ. eigenvalues --   -0.59022  -0.58686  -0.58574  -0.58194  -0.58063
 Alpha  occ. eigenvalues --   -0.57925  -0.57739  -0.57567  -0.56932  -0.56808
 Alpha  occ. eigenvalues --   -0.56156  -0.55937  -0.55777  -0.55414  -0.55172
 Alpha  occ. eigenvalues --   -0.54656  -0.54430  -0.53892  -0.53246  -0.52615
 Alpha  occ. eigenvalues --   -0.52376  -0.52262  -0.51650  -0.51378  -0.50979
 Alpha  occ. eigenvalues --   -0.50515  -0.50418  -0.50084  -0.49952  -0.49725
 Alpha  occ. eigenvalues --   -0.49686  -0.49545  -0.49344  -0.49040  -0.48932
 Alpha  occ. eigenvalues --   -0.48808  -0.48527  -0.48446  -0.48256  -0.48122
 Alpha  occ. eigenvalues --   -0.47634  -0.47493  -0.47187  -0.47002  -0.46730
 Alpha  occ. eigenvalues --   -0.46695  -0.46407  -0.46320  -0.46099  -0.45366
 Alpha  occ. eigenvalues --   -0.45330  -0.45289  -0.44585  -0.44344  -0.44007
 Alpha  occ. eigenvalues --   -0.43336  -0.42795  -0.42599  -0.42551  -0.41870
 Alpha  occ. eigenvalues --   -0.41503  -0.41326  -0.40857  -0.39027  -0.38535
 Alpha  occ. eigenvalues --   -0.37980  -0.36968  -0.36609  -0.35523  -0.34567
 Alpha  occ. eigenvalues --   -0.33864  -0.32527  -0.31393  -0.31056  -0.26793
 Alpha  occ. eigenvalues --   -0.22225
 Alpha virt. eigenvalues --   -0.08771  -0.01966  -0.00967   0.01260   0.01402
 Alpha virt. eigenvalues --    0.01559   0.02873   0.03196   0.04505   0.05061
 Alpha virt. eigenvalues --    0.06331   0.06702   0.07428   0.07727   0.07952

 Mulliken charges:
               1
     1  Mg   0.433996
     2  C   -0.014483
     3  C   -0.090030
     4  C   -0.078750
     5  C   -0.048344
     6  N   -0.261730
     7  C    0.085480
     8  C   -0.001693
     9  C   -0.000199
    10  C    0.163494
    11  C   -0.057092
    12  C   -0.039248
    13  C    0.000142
    14  C    0.481007
    15  O   -0.527432
    16  O   -0.255664
    17  N   -0.340765
    18  C    0.136893
    19  C    0.036571
    20  C   -0.012801
    21  C    0.155035
    22  C   -0.048273
    23  C    0.326304
    24  O   -0.518412
    25  C   -0.033121
    26  N   -0.280215
    27  C    0.182992
    28  C    0.005295
    29  C    0.001192
    30  C    0.080895
    31  C   -0.057990
    32  C   -0.029523
    33  C   -0.061316
    34  N   -0.311926
    35  C    0.056869
    36  C    0.005800
    37  C   -0.064806
    38  C    0.090305
    39  C   -0.039704
    40  C    0.341552
    41  O   -0.523445
    42  C    0.068337
    43  C    0.498860
    44  O   -0.521952
    45  O   -0.275604
    46  C    0.071276
    47  C    0.119556
    48  C   -0.075521
    49  C   -0.025401
    50  C   -0.042387
    51  C   -0.015012
    52  C   -0.028805
    53  C   -0.033977
    54  C   -0.022785
    55  C   -0.056902
    56  C   -0.054269
    57  C   -0.036594
    58  C   -0.027996
    59  C   -0.023361
    60  C   -0.063273
    61  C   -0.038059
    62  C   -0.038856
    63  C   -0.036215
    64  C   -0.007578
    65  C   -0.063095
    66  C   -0.051607
    67  H    0.020819
    68  H    0.037307
    69  H    0.022265
    70  H    0.039363
    71  H    0.034447
    72  H    0.033114
    73  H    0.016134
    74  H    0.018588
    75  H    0.030228
    76  H    0.021295
    77  H    0.030272
    78  H    0.037080
    79  H    0.032802
    80  H    0.020288
    81  H    0.030524
    82  H    0.038164
    83  H    0.034473
    84  H    0.048550
    85  H    0.034172
    86  H    0.023868
    87  H    0.031903
    88  H    0.011556
    89  H    0.039128
    90  H    0.017867
    91  H    0.020277
    92  H    0.016052
    93  H    0.029632
    94  H    0.024948
    95  H    0.033105
    96  H    0.022726
    97  H    0.030262
    98  H    0.051362
    99  H    0.045848
   100  H    0.039301
   101  H    0.044473
   102  H    0.052936
   103  H    0.031052
   104  H    0.032859
   105  H    0.028607
   106  H    0.022786
   107  H    0.023366
   108  H    0.017958
   109  H    0.026219
   110  H    0.023661
   111  H    0.015152
   112  H    0.022475
   113  H    0.024691
   114  H    0.024866
   115  H    0.011564
   116  H    0.027704
   117  H    0.008627
   118  H    0.023608
   119  H    0.012234
   120  H    0.025651
   121  H    0.010586
   122  H    0.006783
   123  H    0.028197
   124  H    0.033204
   125  H    0.014672
   126  H    0.017228
   127  H    0.029499
   128  H    0.017833
   129  H    0.013645
   130  H    0.025692
   131  H    0.009026
   132  H    0.019898
   133  H    0.024057
   134  H    0.021108
   135  H    0.013959
   136  H    0.014567
   137  H    0.019359
   138  H    0.009909
   139  H    0.024369
   140  H    0.022555
 Sum of Mulliken charges =  -0.00000

 Dipole moment (field-independent basis, Debye):
    X=             -4.1666    Y=             10.2130    Z=             -1.9496  Tot=             11.2012
 N-N= 4.273378880078D+03 E-N= 0.000000000000D+00  KE=-9.221231810771D+03
 Leave Link  601 at Sat Apr 30 00:53:00 2022, MaxMem=  6710886400 cpu:               0.8 elap:               0.0
 (Enter /sw/apps/gaussian-16.0/g16/l9999.exe)
 1\1\GINC-BP1-COMPUTE102\SP\RZINDO CIS\STO-3G\C55H74Mg1N4O6\OF15641\30-
 Apr-2022\0\\#p ZINDO=(nstates=5)\\step_51_chromophore_16 ZINDO\\0,1\Mg
 ,0,40.645,41.258,27.253\C,0,40.193,43.457,30.027\C,0,41.71,38.917,29.4
 58\C,0,41.846,39.535,24.689\C,0,39.9,43.973,25.083\N,0,40.989,41.279,2
 9.501\C,0,40.48,42.158,30.397\C,0,40.521,41.599,31.795\C,0,41.132,40.1
 65,31.563\C,0,41.385,40.148,30.056\C,0,42.378,39.951,32.543\C,0,39.059
 ,41.646,32.528\C,0,38.948,41.008,33.997\C,0,38.442,41.907,35.093\O,0,3

 Normal termination of Gaussian 16 at Sat Apr 30 00:53:00 2022.
