 Gaussian 16, Revision A.03,
 Gaussian 16:  ES64L-G16RevA.03 25-Dec-2016

 ------------------------------
 #p blyp/Def2SVP td=(nstates=5)
 ------------------------------

 --------------------------------------------------
 step_1101_chromophore_7 TDDFT with blyp functional
 --------------------------------------------------
 Symbolic Z-matrix:
 Charge =  0 Multiplicity = 1

                         Standard orientation:
 ---------------------------------------------------------------------
 Center     Atomic      Atomic             Coordinates (Angstroms)
 Number     Number       Type             X           Y           Z
 ---------------------------------------------------------------------
      1         12           0        6.380148    0.387115    0.144967
      2          6           0        3.815126   -1.960599    0.089365
      3          6           0        4.191952    2.620467   -1.134643
      4          6           0        8.912032    2.724680    0.464036
      5          6           0        8.576477   -1.969557    1.373126
      6          7           0        4.276065    0.273052   -0.506627
      7          6           0        3.358099   -0.735170   -0.318272
      8          6           0        1.912399   -0.373580   -0.746218
      9          6           0        2.166002    1.052486   -1.417506
     10          6           0        3.603463    1.354622   -0.992648
     11          6           0        1.859267    1.154886   -2.934740
     12          6           0        0.802648   -0.466653    0.388767
     13          6           0       -0.414840   -1.367853    0.094187
     14          6           0       -1.507176   -0.780225   -0.850272
     15          8           0       -1.247315   -0.069556   -1.833427
     16          8           0       -2.766211   -1.124328   -0.373755
     17          7           0        6.498098    2.375776   -0.339679
     18          6           0        5.506793    3.119242   -0.916338
     19          6           0        6.046775    4.418426   -1.188297
     20          6           0        7.430077    4.484701   -0.697231
     21          6           0        7.668179    3.167777   -0.106987
     22          6           0        5.196055    5.561561   -1.892052
     23          6           0        8.489175    5.614472   -0.750691
     24          8           0        9.626385    5.507232   -0.249148
     25          6           0        8.035580    6.867416   -1.423512
     26          7           0        8.567592    0.302499    0.561854
     27          6           0        9.346200    1.396017    0.726680
     28          6           0       10.749935    1.091788    1.320002
     29          6           0       10.585655   -0.460398    1.626669
     30          6           0        9.112003   -0.716765    1.205862
     31          6           0       11.907461    1.551203    0.449608
     32          6           0       10.808436   -0.912436    3.112885
     33          6           0       11.609161   -2.228614    3.345770
     34          7           0        6.263053   -1.583182    0.612438
     35          6           0        7.257004   -2.434987    1.125500
     36          6           0        6.708825   -3.794278    1.171162
     37          6           0        5.355353   -3.660513    0.794860
     38          6           0        5.111272   -2.310128    0.415980
     39          6           0        7.468167   -4.997750    1.582750
     40          6           0        4.140388   -4.425583    0.635011
     41          8           0        3.934369   -5.604264    0.814379
     42          6           0        3.028725   -3.330452    0.315759
     43          6           0        2.329692   -3.825981   -0.909339
     44          8           0        2.563177   -3.454612   -2.058636
     45          8           0        1.381233   -4.740390   -0.627729
     46          6           0        0.521532   -5.065869   -1.728091
     47          6           0       -3.824931   -0.744500   -1.362777
     48          6           0       -5.224823   -0.562345   -0.831009
     49          6           0       -6.405472   -0.742433   -1.517043
     50          6           0       -6.584670   -1.054040   -3.047489
     51          6           0       -7.688565   -0.728327   -0.579777
     52          6           0       -9.032659   -1.157480   -1.086478
     53          6           0       -9.954009    0.072325   -1.445085
     54          6           0      -11.036079   -0.430152   -2.487327
     55          6           0      -10.599556   -0.029612   -3.926717
     56          6           0      -12.432557    0.253272   -2.331347
     57          6           0      -13.448733   -0.741320   -1.596920
     58          6           0      -14.555221    0.024836   -0.872562
     59          6           0      -14.431906   -0.029490    0.648513
     60          6           0      -15.057227   -1.375812    1.185862
     61          6           0      -15.163168    1.187410    1.271258
     62          6           0      -14.836719    1.278753    2.742549
     63          6           0      -14.074433    2.572381    3.065967
     64          6           0      -12.949954    2.447558    4.118059
     65          6           0      -13.605008    2.317465    5.541421
     66          6           0      -11.927582    3.649469    4.066834
     67          1           0        3.348673    3.200816   -1.515559
     68          1           0        9.605567    3.550104    0.634207
     69          1           0        9.371229   -2.632039    1.722669
     70          1           0        1.560975   -0.968871   -1.588844
     71          1           0        1.554067    1.866700   -1.026775
     72          1           0        1.486452    0.246870   -3.409489
     73          1           0        2.691027    1.487849   -3.554546
     74          1           0        1.018410    1.841608   -3.027545
     75          1           0        0.434148    0.525091    0.653480
     76          1           0        1.308548   -0.814131    1.288546
     77          1           0       -0.959905   -1.692020    0.980401
     78          1           0       -0.075864   -2.207709   -0.512044
     79          1           0        4.177941    5.237433   -2.108310
     80          1           0        5.590357    5.703592   -2.897492
     81          1           0        5.234487    6.509156   -1.354088
     82          1           0        7.384354    7.485553   -0.805572
     83          1           0        7.541655    6.526926   -2.333594
     84          1           0        8.941798    7.412643   -1.686957
     85          1           0       10.947168    1.643474    2.239033
     86          1           0       11.127374   -1.060835    0.897082
     87          1           0       12.794068    1.777509    1.042094
     88          1           0       11.569074    2.542682    0.147241
     89          1           0       12.151956    0.921866   -0.405620
     90          1           0        9.816969   -1.072204    3.536953
     91          1           0       11.262070   -0.137646    3.729489
     92          1           0       12.105920   -2.492587    2.412790
     93          1           0       10.845082   -2.967596    3.586297
     94          1           0       12.340681   -2.072310    4.138290
     95          1           0        6.698943   -5.762183    1.689148
     96          1           0        8.130225   -4.730458    2.406699
     97          1           0        8.002760   -5.345998    0.699008
     98          1           0        2.279028   -3.283483    1.104842
     99          1           0        0.012419   -4.103314   -1.752932
    100          1           0       -0.110612   -5.897452   -1.417915
    101          1           0        0.947256   -5.084488   -2.732040
    102          1           0       -3.920464   -1.458182   -2.180094
    103          1           0       -3.566656    0.144150   -1.937966
    104          1           0       -5.348050   -0.392189    0.238071
    105          1           0       -5.578871   -1.092793   -3.465415
    106          1           0       -7.054531   -0.167067   -3.473034
    107          1           0       -7.044970   -2.001231   -3.326747
    108          1           0       -7.769747    0.269309   -0.150009
    109          1           0       -7.509209   -1.467442    0.201545
    110          1           0       -9.620430   -1.715743   -0.357555
    111          1           0       -8.942496   -1.887334   -1.891052
    112          1           0       -9.341419    0.862149   -1.880764
    113          1           0      -10.458981    0.457683   -0.559255
    114          1           0      -11.130313   -1.513988   -2.543089
    115          1           0      -11.414125   -0.204421   -4.630269
    116          1           0       -9.664148   -0.458089   -4.287138
    117          1           0      -10.552766    1.049241   -4.082012
    118          1           0      -12.870137    0.491930   -3.300699
    119          1           0      -12.329281    1.160894   -1.736537
    120          1           0      -12.991425   -1.510162   -0.974141
    121          1           0      -13.916751   -1.295733   -2.409565
    122          1           0      -15.531377   -0.388571   -1.128391
    123          1           0      -14.450632    1.074384   -1.147835
    124          1           0      -13.372251   -0.113780    0.889814
    125          1           0      -14.325749   -2.108849    1.525633
    126          1           0      -15.651567   -1.845847    0.401715
    127          1           0      -15.728402   -1.207488    2.027390
    128          1           0      -16.236612    1.218779    1.083307
    129          1           0      -14.795699    2.023723    0.675882
    130          1           0      -14.133064    0.479875    2.976302
    131          1           0      -15.769758    1.191016    3.297893
    132          1           0      -14.805105    3.256391    3.497469
    133          1           0      -13.589304    3.074832    2.229114
    134          1           0      -12.343121    1.565925    3.911279
    135          1           0      -14.664132    2.109801    5.389189
    136          1           0      -13.385095    3.166758    6.188781
    137          1           0      -13.053754    1.457973    5.923491
    138          1           0      -12.104183    4.239314    3.167677
    139          1           0      -10.898635    3.290267    4.034153
    140          1           0      -12.127350    4.333044    4.892505
 ---------------------------------------------------------------------

 SCF Done:  E(RB-LYP) =  -3007.39181568     A.U. after   21 cycles

 Excitation energies and oscillator strengths:

 Excited State   1:      Singlet-A      1.8075 eV  685.94 nm  f=0.3002  <S**2>=0.000
     245 -> 248       -0.17073
     246 -> 247        0.68710
     246 <- 247       -0.14949
 This state for optimization and/or second-order correction.
 Total Energy, E(TD-HF/TD-DFT) =  -3007.32539075
 Copying the excited state density for this state as the 1-particle RhoCI density.

 Excited State   2:      Singlet-A      1.9620 eV  631.93 nm  f=0.0873  <S**2>=0.000
     244 -> 247       -0.23316
     245 -> 247        0.62348
     246 -> 248        0.17862

 Excited State   3:      Singlet-A      2.0862 eV  594.29 nm  f=0.0126  <S**2>=0.000
     244 -> 247        0.66171
     245 -> 247        0.21085

 Excited State   4:      Singlet-A      2.1052 eV  588.95 nm  f=0.0018  <S**2>=0.000
     243 -> 247        0.70489

 Excited State   5:      Singlet-A      2.2441 eV  552.48 nm  f=0.0001  <S**2>=0.000
     242 -> 247        0.70677

 The electronic state is 1-A.
 Alpha  occ. eigenvalues --  -46.26354 -18.84030 -18.82088 -18.78239 -18.76208
 Alpha  occ. eigenvalues --  -18.76068 -18.76013 -14.02919 -14.02818 -14.00836
 Alpha  occ. eigenvalues --  -14.00778 -10.05337 -10.03411 -10.00290  -9.99878
 Alpha  occ. eigenvalues --   -9.98418  -9.97459  -9.96390  -9.96221  -9.95975
 Alpha  occ. eigenvalues --   -9.95882  -9.95796  -9.95737  -9.95618  -9.94600
 Alpha  occ. eigenvalues --   -9.94499  -9.94425  -9.94260  -9.94250  -9.94212
 Alpha  occ. eigenvalues --   -9.94069  -9.93709  -9.93658  -9.93641  -9.93558
 Alpha  occ. eigenvalues --   -9.93420  -9.93327  -9.93092  -9.92835  -9.92661
 Alpha  occ. eigenvalues --   -9.92591  -9.92429  -9.92341  -9.92310  -9.92228
 Alpha  occ. eigenvalues --   -9.92132  -9.92116  -9.91950  -9.91944  -9.91898
 Alpha  occ. eigenvalues --   -9.91785  -9.91762  -9.91758  -9.91631  -9.91514
 Alpha  occ. eigenvalues --   -9.91398  -9.91128  -9.91104  -9.90976  -9.90833
 Alpha  occ. eigenvalues --   -9.90786  -9.90758  -9.90696  -9.90690  -9.90683
 Alpha  occ. eigenvalues --   -9.90447  -2.91023  -1.71460  -1.70928  -1.70713
 Alpha  occ. eigenvalues --   -0.98911  -0.97831  -0.92269  -0.90522  -0.90405
 Alpha  occ. eigenvalues --   -0.89395  -0.86713  -0.85703  -0.84350  -0.83495
 Alpha  occ. eigenvalues --   -0.74861  -0.73390  -0.72996  -0.72204  -0.71762
 Alpha  occ. eigenvalues --   -0.71639  -0.71202  -0.70765  -0.70688  -0.69837
 Alpha  occ. eigenvalues --   -0.69018  -0.68804  -0.68201  -0.67577  -0.67159
 Alpha  occ. eigenvalues --   -0.66718  -0.65833  -0.65302  -0.64789  -0.64300
 Alpha  occ. eigenvalues --   -0.63690  -0.62494  -0.61997  -0.61411  -0.60895
 Alpha  occ. eigenvalues --   -0.60607  -0.59855  -0.59571  -0.59256  -0.58629
 Alpha  occ. eigenvalues --   -0.58220  -0.57419  -0.56410  -0.56028  -0.54088
 Alpha  occ. eigenvalues --   -0.53895  -0.53635  -0.52311  -0.51801  -0.51386
 Alpha  occ. eigenvalues --   -0.51175  -0.50571  -0.50537  -0.50375  -0.49982
 Alpha  occ. eigenvalues --   -0.49834  -0.49313  -0.48444  -0.48427  -0.46250
 Alpha  occ. eigenvalues --   -0.45744  -0.45708  -0.45485  -0.44621  -0.44278
 Alpha  occ. eigenvalues --   -0.43724  -0.43226  -0.42829  -0.42502  -0.42333
 Alpha  occ. eigenvalues --   -0.42163  -0.41859  -0.41712  -0.41469  -0.41236
 Alpha  occ. eigenvalues --   -0.41029  -0.40836  -0.40255  -0.40158  -0.40094
 Alpha  occ. eigenvalues --   -0.39775  -0.39706  -0.39473  -0.39279  -0.39092
 Alpha  occ. eigenvalues --   -0.38805  -0.38589  -0.38444  -0.38350  -0.38081
 Alpha  occ. eigenvalues --   -0.37816  -0.37763  -0.37549  -0.37452  -0.37299
 Alpha  occ. eigenvalues --   -0.37099  -0.36913  -0.36820  -0.36597  -0.36346
 Alpha  occ. eigenvalues --   -0.36124  -0.35998  -0.35931  -0.35853  -0.35543
 Alpha  occ. eigenvalues --   -0.35283  -0.35156  -0.35019  -0.34590  -0.34540
 Alpha  occ. eigenvalues --   -0.34198  -0.34102  -0.34035  -0.33659  -0.33369
 Alpha  occ. eigenvalues --   -0.33336  -0.33254  -0.33089  -0.33002  -0.32892
 Alpha  occ. eigenvalues --   -0.32824  -0.32720  -0.32546  -0.32302  -0.32118
 Alpha  occ. eigenvalues --   -0.31822  -0.31768  -0.31438  -0.31417  -0.31310
 Alpha  occ. eigenvalues --   -0.31175  -0.31076  -0.30905  -0.30808  -0.30615
 Alpha  occ. eigenvalues --   -0.30539  -0.30383  -0.30173  -0.30145  -0.30083
 Alpha  occ. eigenvalues --   -0.29905  -0.29782  -0.29571  -0.29530  -0.29256
 Alpha  occ. eigenvalues --   -0.28956  -0.28457  -0.28088  -0.27982  -0.27967
 Alpha  occ. eigenvalues --   -0.27681  -0.27491  -0.27316  -0.27041  -0.26463
 Alpha  occ. eigenvalues --   -0.26183  -0.26147  -0.25756  -0.25607  -0.25448
 Alpha  occ. eigenvalues --   -0.25170  -0.24591  -0.24314  -0.23654  -0.23617
 Alpha  occ. eigenvalues --   -0.23336  -0.22887  -0.21959  -0.21531  -0.20480
 Alpha  occ. eigenvalues --   -0.19923  -0.19776  -0.19160  -0.19030  -0.16999
 Alpha  occ. eigenvalues --   -0.15798
 Alpha virt. eigenvalues --   -0.11529  -0.06802  -0.06115  -0.04635  -0.04002
 Alpha virt. eigenvalues --   -0.02838  -0.02042  -0.01549  -0.00769   0.00193
 Alpha virt. eigenvalues --    0.01227   0.01337   0.01681   0.02766   0.02856

 Mulliken charges:
               1
     1  Mg   0.686853
     2  C    0.057664
     3  C   -0.031467
     4  C   -0.039544
     5  C   -0.058679
     6  N   -0.213905
     7  C   -0.075059
     8  C    0.042350
     9  C   -0.001771
    10  C   -0.057996
    11  C    0.124133
    12  C    0.150657
    13  C    0.102456
    14  C    0.081575
    15  O   -0.205418
    16  O   -0.269431
    17  N   -0.339855
    18  C    0.217399
    19  C   -0.143752
    20  C    0.001945
    21  C    0.082120
    22  C    0.149603
    23  C   -0.048746
    24  O   -0.181760
    25  C    0.135325
    26  N   -0.159868
    27  C    0.016497
    28  C    0.015798
    29  C    0.059570
    30  C   -0.049142
    31  C    0.134853
    32  C    0.056655
    33  C    0.071865
    34  N   -0.319145
    35  C    0.155438
    36  C   -0.199638
    37  C    0.094579
    38  C    0.089510
    39  C    0.208019
    40  C   -0.047635
    41  O   -0.109840
    42  C    0.015697
    43  C    0.072645
    44  O   -0.202200
    45  O   -0.237321
    46  C    0.256074
    47  C    0.313109
    48  C   -0.079598
    49  C   -0.178661
    50  C    0.141847
    51  C    0.107201
    52  C    0.047006
    53  C    0.109574
    54  C   -0.054857
    55  C    0.070841
    56  C    0.090632
    57  C    0.063004
    58  C    0.120293
    59  C   -0.118255
    60  C    0.100905
    61  C    0.099152
    62  C    0.125220
    63  C    0.084253
    64  C   -0.142334
    65  C    0.113634
    66  C    0.103482
    67  H   -0.076908
    68  H   -0.026506
    69  H   -0.080943
    70  H   -0.004443
    71  H   -0.025686
    72  H   -0.000318
    73  H   -0.008113
    74  H   -0.009654
    75  H   -0.018666
    76  H   -0.021582
    77  H   -0.001222
    78  H    0.026218
    79  H   -0.018422
    80  H    0.003499
    81  H    0.008534
    82  H    0.028378
    83  H    0.001942
    84  H   -0.009312
    85  H   -0.024753
    86  H   -0.017748
    87  H   -0.016724
    88  H   -0.008583
    89  H   -0.008501
    90  H   -0.016286
    91  H   -0.021984
    92  H   -0.008348
    93  H    0.005798
    94  H   -0.003249
    95  H    0.001302
    96  H    0.012992
    97  H   -0.002481
    98  H    0.006280
    99  H   -0.039105
   100  H    0.025344
   101  H    0.018952
   102  H   -0.003365
   103  H    0.010517
   104  H   -0.033074
   105  H   -0.031843
   106  H    0.017502
   107  H    0.020392
   108  H   -0.007417
   109  H   -0.014644
   110  H   -0.031466
   111  H   -0.033057
   112  H   -0.024743
   113  H   -0.023157
   114  H   -0.025056
   115  H   -0.027785
   116  H   -0.019532
   117  H   -0.030184
   118  H   -0.028434
   119  H   -0.026174
   120  H   -0.028332
   121  H   -0.041974
   122  H   -0.036924
   123  H   -0.037131
   124  H   -0.036727
   125  H   -0.017984
   126  H   -0.024250
   127  H   -0.018079
   128  H   -0.038053
   129  H   -0.040431
   130  H   -0.025674
   131  H   -0.021659
   132  H   -0.037429
   133  H   -0.033879
   134  H   -0.034181
   135  H   -0.006609
   136  H   -0.009704
   137  H   -0.017762
   138  H   -0.028747
   139  H   -0.008242
   140  H   -0.017970
 Sum of Mulliken charges =  -0.00000

 Dipole moment (field-independent basis, Debye):
    X=             -3.6844    Y=              1.3557    Z=              0.4560  Tot=              3.9523
 Quadrupole moment (field-independent basis, Debye-Ang):
   XX=           -385.2041   YY=           -422.6330   ZZ=           -403.7686
   XY=             -2.5080   XZ=             17.8958   YZ=             -1.4811

 Normal termination of Gaussian 16 at Wed May  4 00:15:28 2022.
