 Gaussian 16, Revision A.03,
 Gaussian 16:  ES64L-G16RevA.03 25-Dec-2016

 -----------------------------------
 #p cam-b3lyp/Def2SVP td=(nstates=5)
 -----------------------------------

 -------------------------------------------------------
 step_1101_chromophore_7 TDDFT with cam-b3lyp functional
 -------------------------------------------------------
 Symbolic Z-matrix:
 Charge =  0 Multiplicity = 1

                         Standard orientation:
 ---------------------------------------------------------------------
 Center     Atomic      Atomic             Coordinates (Angstroms)
 Number     Number       Type             X           Y           Z
 ---------------------------------------------------------------------
      1         12           0        6.380148    0.387115    0.144967
      2          6           0        3.815126   -1.960599    0.089365
      3          6           0        4.191952    2.620467   -1.134643
      4          6           0        8.912032    2.724680    0.464036
      5          6           0        8.576477   -1.969557    1.373126
      6          7           0        4.276065    0.273052   -0.506627
      7          6           0        3.358099   -0.735170   -0.318272
      8          6           0        1.912399   -0.373580   -0.746218
      9          6           0        2.166002    1.052486   -1.417506
     10          6           0        3.603463    1.354622   -0.992648
     11          6           0        1.859267    1.154886   -2.934740
     12          6           0        0.802648   -0.466653    0.388767
     13          6           0       -0.414840   -1.367853    0.094187
     14          6           0       -1.507176   -0.780225   -0.850272
     15          8           0       -1.247315   -0.069556   -1.833427
     16          8           0       -2.766211   -1.124328   -0.373755
     17          7           0        6.498098    2.375776   -0.339679
     18          6           0        5.506793    3.119242   -0.916338
     19          6           0        6.046775    4.418426   -1.188297
     20          6           0        7.430077    4.484701   -0.697231
     21          6           0        7.668179    3.167777   -0.106987
     22          6           0        5.196055    5.561561   -1.892052
     23          6           0        8.489175    5.614472   -0.750691
     24          8           0        9.626385    5.507232   -0.249148
     25          6           0        8.035580    6.867416   -1.423512
     26          7           0        8.567592    0.302499    0.561854
     27          6           0        9.346200    1.396017    0.726680
     28          6           0       10.749935    1.091788    1.320002
     29          6           0       10.585655   -0.460398    1.626669
     30          6           0        9.112003   -0.716765    1.205862
     31          6           0       11.907461    1.551203    0.449608
     32          6           0       10.808436   -0.912436    3.112885
     33          6           0       11.609161   -2.228614    3.345770
     34          7           0        6.263053   -1.583182    0.612438
     35          6           0        7.257004   -2.434987    1.125500
     36          6           0        6.708825   -3.794278    1.171162
     37          6           0        5.355353   -3.660513    0.794860
     38          6           0        5.111272   -2.310128    0.415980
     39          6           0        7.468167   -4.997750    1.582750
     40          6           0        4.140388   -4.425583    0.635011
     41          8           0        3.934369   -5.604264    0.814379
     42          6           0        3.028725   -3.330452    0.315759
     43          6           0        2.329692   -3.825981   -0.909339
     44          8           0        2.563177   -3.454612   -2.058636
     45          8           0        1.381233   -4.740390   -0.627729
     46          6           0        0.521532   -5.065869   -1.728091
     47          6           0       -3.824931   -0.744500   -1.362777
     48          6           0       -5.224823   -0.562345   -0.831009
     49          6           0       -6.405472   -0.742433   -1.517043
     50          6           0       -6.584670   -1.054040   -3.047489
     51          6           0       -7.688565   -0.728327   -0.579777
     52          6           0       -9.032659   -1.157480   -1.086478
     53          6           0       -9.954009    0.072325   -1.445085
     54          6           0      -11.036079   -0.430152   -2.487327
     55          6           0      -10.599556   -0.029612   -3.926717
     56          6           0      -12.432557    0.253272   -2.331347
     57          6           0      -13.448733   -0.741320   -1.596920
     58          6           0      -14.555221    0.024836   -0.872562
     59          6           0      -14.431906   -0.029490    0.648513
     60          6           0      -15.057227   -1.375812    1.185862
     61          6           0      -15.163168    1.187410    1.271258
     62          6           0      -14.836719    1.278753    2.742549
     63          6           0      -14.074433    2.572381    3.065967
     64          6           0      -12.949954    2.447558    4.118059
     65          6           0      -13.605008    2.317465    5.541421
     66          6           0      -11.927582    3.649469    4.066834
     67          1           0        3.348673    3.200816   -1.515559
     68          1           0        9.605567    3.550104    0.634207
     69          1           0        9.371229   -2.632039    1.722669
     70          1           0        1.560975   -0.968871   -1.588844
     71          1           0        1.554067    1.866700   -1.026775
     72          1           0        1.486452    0.246870   -3.409489
     73          1           0        2.691027    1.487849   -3.554546
     74          1           0        1.018410    1.841608   -3.027545
     75          1           0        0.434148    0.525091    0.653480
     76          1           0        1.308548   -0.814131    1.288546
     77          1           0       -0.959905   -1.692020    0.980401
     78          1           0       -0.075864   -2.207709   -0.512044
     79          1           0        4.177941    5.237433   -2.108310
     80          1           0        5.590357    5.703592   -2.897492
     81          1           0        5.234487    6.509156   -1.354088
     82          1           0        7.384354    7.485553   -0.805572
     83          1           0        7.541655    6.526926   -2.333594
     84          1           0        8.941798    7.412643   -1.686957
     85          1           0       10.947168    1.643474    2.239033
     86          1           0       11.127374   -1.060835    0.897082
     87          1           0       12.794068    1.777509    1.042094
     88          1           0       11.569074    2.542682    0.147241
     89          1           0       12.151956    0.921866   -0.405620
     90          1           0        9.816969   -1.072204    3.536953
     91          1           0       11.262070   -0.137646    3.729489
     92          1           0       12.105920   -2.492587    2.412790
     93          1           0       10.845082   -2.967596    3.586297
     94          1           0       12.340681   -2.072310    4.138290
     95          1           0        6.698943   -5.762183    1.689148
     96          1           0        8.130225   -4.730458    2.406699
     97          1           0        8.002760   -5.345998    0.699008
     98          1           0        2.279028   -3.283483    1.104842
     99          1           0        0.012419   -4.103314   -1.752932
    100          1           0       -0.110612   -5.897452   -1.417915
    101          1           0        0.947256   -5.084488   -2.732040
    102          1           0       -3.920464   -1.458182   -2.180094
    103          1           0       -3.566656    0.144150   -1.937966
    104          1           0       -5.348050   -0.392189    0.238071
    105          1           0       -5.578871   -1.092793   -3.465415
    106          1           0       -7.054531   -0.167067   -3.473034
    107          1           0       -7.044970   -2.001231   -3.326747
    108          1           0       -7.769747    0.269309   -0.150009
    109          1           0       -7.509209   -1.467442    0.201545
    110          1           0       -9.620430   -1.715743   -0.357555
    111          1           0       -8.942496   -1.887334   -1.891052
    112          1           0       -9.341419    0.862149   -1.880764
    113          1           0      -10.458981    0.457683   -0.559255
    114          1           0      -11.130313   -1.513988   -2.543089
    115          1           0      -11.414125   -0.204421   -4.630269
    116          1           0       -9.664148   -0.458089   -4.287138
    117          1           0      -10.552766    1.049241   -4.082012
    118          1           0      -12.870137    0.491930   -3.300699
    119          1           0      -12.329281    1.160894   -1.736537
    120          1           0      -12.991425   -1.510162   -0.974141
    121          1           0      -13.916751   -1.295733   -2.409565
    122          1           0      -15.531377   -0.388571   -1.128391
    123          1           0      -14.450632    1.074384   -1.147835
    124          1           0      -13.372251   -0.113780    0.889814
    125          1           0      -14.325749   -2.108849    1.525633
    126          1           0      -15.651567   -1.845847    0.401715
    127          1           0      -15.728402   -1.207488    2.027390
    128          1           0      -16.236612    1.218779    1.083307
    129          1           0      -14.795699    2.023723    0.675882
    130          1           0      -14.133064    0.479875    2.976302
    131          1           0      -15.769758    1.191016    3.297893
    132          1           0      -14.805105    3.256391    3.497469
    133          1           0      -13.589304    3.074832    2.229114
    134          1           0      -12.343121    1.565925    3.911279
    135          1           0      -14.664132    2.109801    5.389189
    136          1           0      -13.385095    3.166758    6.188781
    137          1           0      -13.053754    1.457973    5.923491
    138          1           0      -12.104183    4.239314    3.167677
    139          1           0      -10.898635    3.290267    4.034153
    140          1           0      -12.127350    4.333044    4.892505
 ---------------------------------------------------------------------

 SCF Done:  E(RCAM-B3LYP) =  -3007.17410565     A.U. after   19 cycles

 Excitation energies and oscillator strengths:

 Excited State   1:      Singlet-A      1.6889 eV  734.11 nm  f=0.3875  <S**2>=0.000
     245 -> 248       -0.18121
     246 -> 247        0.68479
     245 <- 248       -0.10848
 This state for optimization and/or second-order correction.
 Total Energy, E(TD-HF/TD-DFT) =  -3007.11203913
 Copying the excited state density for this state as the 1-particle RhoCI density.

 Excited State   2:      Singlet-A      2.1871 eV  566.90 nm  f=0.1442  <S**2>=0.000
     245 -> 247        0.65103
     246 -> 248        0.26012

 Excited State   3:      Singlet-A      3.2532 eV  381.11 nm  f=0.0011  <S**2>=0.000
     244 -> 247        0.68490

 Excited State   4:      Singlet-A      3.4528 eV  359.08 nm  f=0.0288  <S**2>=0.000
     242 -> 247        0.62753
     246 -> 248       -0.29686

 Excited State   5:      Singlet-A      3.6096 eV  343.49 nm  f=0.5884  <S**2>=0.000
     239 -> 247        0.17959
     240 -> 247        0.10284
     241 -> 247        0.13951
     242 -> 247        0.25041
     245 -> 247       -0.23874
     246 -> 248        0.50980

 The electronic state is 1-A.
 Alpha  occ. eigenvalues --  -46.87792 -19.26974 -19.25108 -19.21235 -19.19515
 Alpha  occ. eigenvalues --  -19.19283 -19.19206 -14.41775 -14.41656 -14.39213
 Alpha  occ. eigenvalues --  -14.39182 -10.40770 -10.38972 -10.35572 -10.35341
 Alpha  occ. eigenvalues --  -10.32555 -10.31468 -10.30958 -10.30609 -10.30327
 Alpha  occ. eigenvalues --  -10.30242 -10.30177 -10.29978 -10.29887 -10.28962
 Alpha  occ. eigenvalues --  -10.28905 -10.28746 -10.28677 -10.28596 -10.28335
 Alpha  occ. eigenvalues --  -10.28262 -10.28041 -10.27647 -10.27589 -10.27574
 Alpha  occ. eigenvalues --  -10.27524 -10.27186 -10.27160 -10.26969 -10.26737
 Alpha  occ. eigenvalues --  -10.26587 -10.26440 -10.26208 -10.26184 -10.26118
 Alpha  occ. eigenvalues --  -10.25990 -10.25930 -10.25884 -10.25703 -10.25603
 Alpha  occ. eigenvalues --  -10.25538 -10.25493 -10.25491 -10.25289 -10.25282
 Alpha  occ. eigenvalues --  -10.25230 -10.25003 -10.24834 -10.24617 -10.24466
 Alpha  occ. eigenvalues --  -10.24451 -10.24409 -10.24340 -10.24317 -10.24292
 Alpha  occ. eigenvalues --  -10.24113  -3.16371  -1.91284  -1.90837  -1.90668
 Alpha  occ. eigenvalues --   -1.17572  -1.16265  -1.10810  -1.08857  -1.08263
 Alpha  occ. eigenvalues --   -1.07476  -1.04415  -1.03391  -1.01909  -1.00835
 Alpha  occ. eigenvalues --   -0.92019  -0.90265  -0.89841  -0.88951  -0.88420
 Alpha  occ. eigenvalues --   -0.88345  -0.87807  -0.87366  -0.87297  -0.86363
 Alpha  occ. eigenvalues --   -0.85476  -0.85272  -0.84499  -0.83780  -0.83315
 Alpha  occ. eigenvalues --   -0.82834  -0.81837  -0.81373  -0.80563  -0.80156
 Alpha  occ. eigenvalues --   -0.79488  -0.78157  -0.77550  -0.76954  -0.76326
 Alpha  occ. eigenvalues --   -0.76069  -0.75210  -0.74820  -0.74544  -0.73845
 Alpha  occ. eigenvalues --   -0.73306  -0.72429  -0.71270  -0.70836  -0.68748
 Alpha  occ. eigenvalues --   -0.68460  -0.68297  -0.66732  -0.66037  -0.65571
 Alpha  occ. eigenvalues --   -0.65206  -0.64685  -0.64655  -0.64288  -0.64010
 Alpha  occ. eigenvalues --   -0.63744  -0.63294  -0.62331  -0.62220  -0.59717
 Alpha  occ. eigenvalues --   -0.59397  -0.59332  -0.58948  -0.58262  -0.57664
 Alpha  occ. eigenvalues --   -0.57147  -0.56648  -0.56292  -0.55760  -0.55510
 Alpha  occ. eigenvalues --   -0.55324  -0.54922  -0.54709  -0.54620  -0.54004
 Alpha  occ. eigenvalues --   -0.53810  -0.53608  -0.53061  -0.52874  -0.52683
 Alpha  occ. eigenvalues --   -0.52477  -0.52298  -0.52178  -0.51948  -0.51778
 Alpha  occ. eigenvalues --   -0.51318  -0.51092  -0.50945  -0.50774  -0.50674
 Alpha  occ. eigenvalues --   -0.50297  -0.50146  -0.50067  -0.49767  -0.49659
 Alpha  occ. eigenvalues --   -0.49423  -0.49172  -0.49007  -0.48959  -0.48902
 Alpha  occ. eigenvalues --   -0.48606  -0.48309  -0.48195  -0.47917  -0.47520
 Alpha  occ. eigenvalues --   -0.47416  -0.47098  -0.46984  -0.46680  -0.46526
 Alpha  occ. eigenvalues --   -0.46130  -0.46090  -0.45725  -0.45391  -0.45274
 Alpha  occ. eigenvalues --   -0.45143  -0.44970  -0.44862  -0.44620  -0.44573
 Alpha  occ. eigenvalues --   -0.44488  -0.44450  -0.44433  -0.44158  -0.43709
 Alpha  occ. eigenvalues --   -0.43439  -0.43307  -0.43223  -0.43117  -0.42888
 Alpha  occ. eigenvalues --   -0.42722  -0.42507  -0.42440  -0.42268  -0.42153
 Alpha  occ. eigenvalues --   -0.41820  -0.41786  -0.41765  -0.41511  -0.41351
 Alpha  occ. eigenvalues --   -0.41165  -0.40930  -0.40782  -0.40722  -0.40462
 Alpha  occ. eigenvalues --   -0.39997  -0.39640  -0.39014  -0.38996  -0.38885
 Alpha  occ. eigenvalues --   -0.38694  -0.38338  -0.38259  -0.37894  -0.37655
 Alpha  occ. eigenvalues --   -0.37103  -0.36829  -0.36743  -0.36514  -0.36135
 Alpha  occ. eigenvalues --   -0.35874  -0.35778  -0.35104  -0.34839  -0.34283
 Alpha  occ. eigenvalues --   -0.34083  -0.34006  -0.32915  -0.31285  -0.31089
 Alpha  occ. eigenvalues --   -0.30994  -0.29810  -0.29481  -0.29093  -0.23674
 Alpha  occ. eigenvalues --   -0.21108
 Alpha virt. eigenvalues --   -0.08696  -0.01415   0.00296   0.02246   0.03876
 Alpha virt. eigenvalues --    0.04070   0.04652   0.05466   0.05594   0.06792
 Alpha virt. eigenvalues --    0.07689   0.07832   0.08452   0.08910   0.09076

 Mulliken charges:
               1
     1  Mg   0.819950
     2  C    0.027106
     3  C   -0.049796
     4  C   -0.056767
     5  C   -0.069589
     6  N   -0.284456
     7  C   -0.037014
     8  C   -0.003586
     9  C   -0.049327
    10  C   -0.034181
    11  C    0.065077
    12  C    0.095721
    13  C    0.039362
    14  C    0.165786
    15  O   -0.248241
    16  O   -0.334614
    17  N   -0.428458
    18  C    0.221990
    19  C   -0.151497
    20  C   -0.069633
    21  C    0.106896
    22  C    0.097974
    23  C    0.035788
    24  O   -0.224826
    25  C    0.051281
    26  N   -0.229956
    27  C    0.030778
    28  C   -0.033335
    29  C   -0.001640
    30  C   -0.023385
    31  C    0.079602
    32  C   -0.000774
    33  C    0.009841
    34  N   -0.409731
    35  C    0.162320
    36  C   -0.188353
    37  C    0.009765
    38  C    0.128455
    39  C    0.151403
    40  C    0.051863
    41  O   -0.147203
    42  C   -0.052487
    43  C    0.158164
    44  O   -0.238228
    45  O   -0.298000
    46  C    0.210135
    47  C    0.279901
    48  C   -0.105570
    49  C   -0.196282
    50  C    0.082162
    51  C    0.048841
    52  C   -0.006088
    53  C    0.059480
    54  C   -0.114168
    55  C    0.016186
    56  C    0.040707
    57  C    0.010855
    58  C    0.064595
    59  C   -0.170017
    60  C    0.041369
    61  C    0.046935
    62  C    0.064891
    63  C    0.030029
    64  C   -0.196851
    65  C    0.054025
    66  C    0.046331
    67  H   -0.042818
    68  H    0.014014
    69  H   -0.045255
    70  H    0.030086
    71  H    0.008802
    72  H    0.024651
    73  H    0.018099
    74  H    0.014681
    75  H    0.012724
    76  H    0.010613
    77  H    0.035731
    78  H    0.042659
    79  H    0.009696
    80  H    0.028371
    81  H    0.031954
    82  H    0.055932
    83  H    0.028106
    84  H    0.025796
    85  H    0.010224
    86  H    0.016291
    87  H    0.008854
    88  H    0.015211
    89  H    0.015932
    90  H    0.015154
    91  H    0.007257
    92  H    0.014444
    93  H    0.025262
    94  H    0.022138
    95  H    0.030222
    96  H    0.035335
    97  H    0.026621
    98  H    0.046603
    99  H   -0.018945
   100  H    0.050442
   101  H    0.047847
   102  H    0.021513
   103  H    0.042800
   104  H    0.003111
   105  H   -0.007201
   106  H    0.039274
   107  H    0.043484
   108  H    0.020489
   109  H    0.015235
   110  H   -0.001375
   111  H   -0.006203
   112  H    0.001873
   113  H    0.004238
   114  H    0.005616
   115  H   -0.002511
   116  H    0.003189
   117  H   -0.005331
   118  H    0.001044
   119  H   -0.000343
   120  H   -0.002464
   121  H   -0.011745
   122  H   -0.007547
   123  H   -0.008863
   124  H   -0.007346
   125  H    0.006207
   126  H    0.000094
   127  H    0.006161
   128  H   -0.007587
   129  H   -0.011851
   130  H    0.001906
   131  H    0.006280
   132  H   -0.008281
   133  H   -0.006119
   134  H   -0.003975
   135  H    0.015294
   136  H    0.013826
   137  H    0.006435
   138  H   -0.004195
   139  H    0.015521
   140  H    0.005099
 Sum of Mulliken charges =  -0.00000

 Dipole moment (field-independent basis, Debye):
    X=             -3.8753    Y=              1.5490    Z=              0.3611  Tot=              4.1890
 Quadrupole moment (field-independent basis, Debye-Ang):
   XX=           -383.1396   YY=           -419.1035   ZZ=           -403.2070
   XY=             -1.2935   XZ=             19.3229   YZ=             -2.4693

 Normal termination of Gaussian 16 at Tue May  3 23:14:40 2022.
