 Gaussian 16, Revision A.03,
 Gaussian 16:  ES64L-G16RevA.03 25-Dec-2016

 ---------------------------------
 #p PBE1PBE/Def2SVP td=(nstates=5)
 ---------------------------------

 -----------------------------------------------------
 step_1101_chromophore_7 TDDFT with PBE1PBE functional
 -----------------------------------------------------
 Symbolic Z-matrix:
 Charge =  0 Multiplicity = 1

                         Standard orientation:
 ---------------------------------------------------------------------
 Center     Atomic      Atomic             Coordinates (Angstroms)
 Number     Number       Type             X           Y           Z
 ---------------------------------------------------------------------
      1         12           0        6.380148    0.387115    0.144967
      2          6           0        3.815126   -1.960599    0.089365
      3          6           0        4.191952    2.620467   -1.134643
      4          6           0        8.912032    2.724680    0.464036
      5          6           0        8.576477   -1.969557    1.373126
      6          7           0        4.276065    0.273052   -0.506627
      7          6           0        3.358099   -0.735170   -0.318272
      8          6           0        1.912399   -0.373580   -0.746218
      9          6           0        2.166002    1.052486   -1.417506
     10          6           0        3.603463    1.354622   -0.992648
     11          6           0        1.859267    1.154886   -2.934740
     12          6           0        0.802648   -0.466653    0.388767
     13          6           0       -0.414840   -1.367853    0.094187
     14          6           0       -1.507176   -0.780225   -0.850272
     15          8           0       -1.247315   -0.069556   -1.833427
     16          8           0       -2.766211   -1.124328   -0.373755
     17          7           0        6.498098    2.375776   -0.339679
     18          6           0        5.506793    3.119242   -0.916338
     19          6           0        6.046775    4.418426   -1.188297
     20          6           0        7.430077    4.484701   -0.697231
     21          6           0        7.668179    3.167777   -0.106987
     22          6           0        5.196055    5.561561   -1.892052
     23          6           0        8.489175    5.614472   -0.750691
     24          8           0        9.626385    5.507232   -0.249148
     25          6           0        8.035580    6.867416   -1.423512
     26          7           0        8.567592    0.302499    0.561854
     27          6           0        9.346200    1.396017    0.726680
     28          6           0       10.749935    1.091788    1.320002
     29          6           0       10.585655   -0.460398    1.626669
     30          6           0        9.112003   -0.716765    1.205862
     31          6           0       11.907461    1.551203    0.449608
     32          6           0       10.808436   -0.912436    3.112885
     33          6           0       11.609161   -2.228614    3.345770
     34          7           0        6.263053   -1.583182    0.612438
     35          6           0        7.257004   -2.434987    1.125500
     36          6           0        6.708825   -3.794278    1.171162
     37          6           0        5.355353   -3.660513    0.794860
     38          6           0        5.111272   -2.310128    0.415980
     39          6           0        7.468167   -4.997750    1.582750
     40          6           0        4.140388   -4.425583    0.635011
     41          8           0        3.934369   -5.604264    0.814379
     42          6           0        3.028725   -3.330452    0.315759
     43          6           0        2.329692   -3.825981   -0.909339
     44          8           0        2.563177   -3.454612   -2.058636
     45          8           0        1.381233   -4.740390   -0.627729
     46          6           0        0.521532   -5.065869   -1.728091
     47          6           0       -3.824931   -0.744500   -1.362777
     48          6           0       -5.224823   -0.562345   -0.831009
     49          6           0       -6.405472   -0.742433   -1.517043
     50          6           0       -6.584670   -1.054040   -3.047489
     51          6           0       -7.688565   -0.728327   -0.579777
     52          6           0       -9.032659   -1.157480   -1.086478
     53          6           0       -9.954009    0.072325   -1.445085
     54          6           0      -11.036079   -0.430152   -2.487327
     55          6           0      -10.599556   -0.029612   -3.926717
     56          6           0      -12.432557    0.253272   -2.331347
     57          6           0      -13.448733   -0.741320   -1.596920
     58          6           0      -14.555221    0.024836   -0.872562
     59          6           0      -14.431906   -0.029490    0.648513
     60          6           0      -15.057227   -1.375812    1.185862
     61          6           0      -15.163168    1.187410    1.271258
     62          6           0      -14.836719    1.278753    2.742549
     63          6           0      -14.074433    2.572381    3.065967
     64          6           0      -12.949954    2.447558    4.118059
     65          6           0      -13.605008    2.317465    5.541421
     66          6           0      -11.927582    3.649469    4.066834
     67          1           0        3.348673    3.200816   -1.515559
     68          1           0        9.605567    3.550104    0.634207
     69          1           0        9.371229   -2.632039    1.722669
     70          1           0        1.560975   -0.968871   -1.588844
     71          1           0        1.554067    1.866700   -1.026775
     72          1           0        1.486452    0.246870   -3.409489
     73          1           0        2.691027    1.487849   -3.554546
     74          1           0        1.018410    1.841608   -3.027545
     75          1           0        0.434148    0.525091    0.653480
     76          1           0        1.308548   -0.814131    1.288546
     77          1           0       -0.959905   -1.692020    0.980401
     78          1           0       -0.075864   -2.207709   -0.512044
     79          1           0        4.177941    5.237433   -2.108310
     80          1           0        5.590357    5.703592   -2.897492
     81          1           0        5.234487    6.509156   -1.354088
     82          1           0        7.384354    7.485553   -0.805572
     83          1           0        7.541655    6.526926   -2.333594
     84          1           0        8.941798    7.412643   -1.686957
     85          1           0       10.947168    1.643474    2.239033
     86          1           0       11.127374   -1.060835    0.897082
     87          1           0       12.794068    1.777509    1.042094
     88          1           0       11.569074    2.542682    0.147241
     89          1           0       12.151956    0.921866   -0.405620
     90          1           0        9.816969   -1.072204    3.536953
     91          1           0       11.262070   -0.137646    3.729489
     92          1           0       12.105920   -2.492587    2.412790
     93          1           0       10.845082   -2.967596    3.586297
     94          1           0       12.340681   -2.072310    4.138290
     95          1           0        6.698943   -5.762183    1.689148
     96          1           0        8.130225   -4.730458    2.406699
     97          1           0        8.002760   -5.345998    0.699008
     98          1           0        2.279028   -3.283483    1.104842
     99          1           0        0.012419   -4.103314   -1.752932
    100          1           0       -0.110612   -5.897452   -1.417915
    101          1           0        0.947256   -5.084488   -2.732040
    102          1           0       -3.920464   -1.458182   -2.180094
    103          1           0       -3.566656    0.144150   -1.937966
    104          1           0       -5.348050   -0.392189    0.238071
    105          1           0       -5.578871   -1.092793   -3.465415
    106          1           0       -7.054531   -0.167067   -3.473034
    107          1           0       -7.044970   -2.001231   -3.326747
    108          1           0       -7.769747    0.269309   -0.150009
    109          1           0       -7.509209   -1.467442    0.201545
    110          1           0       -9.620430   -1.715743   -0.357555
    111          1           0       -8.942496   -1.887334   -1.891052
    112          1           0       -9.341419    0.862149   -1.880764
    113          1           0      -10.458981    0.457683   -0.559255
    114          1           0      -11.130313   -1.513988   -2.543089
    115          1           0      -11.414125   -0.204421   -4.630269
    116          1           0       -9.664148   -0.458089   -4.287138
    117          1           0      -10.552766    1.049241   -4.082012
    118          1           0      -12.870137    0.491930   -3.300699
    119          1           0      -12.329281    1.160894   -1.736537
    120          1           0      -12.991425   -1.510162   -0.974141
    121          1           0      -13.916751   -1.295733   -2.409565
    122          1           0      -15.531377   -0.388571   -1.128391
    123          1           0      -14.450632    1.074384   -1.147835
    124          1           0      -13.372251   -0.113780    0.889814
    125          1           0      -14.325749   -2.108849    1.525633
    126          1           0      -15.651567   -1.845847    0.401715
    127          1           0      -15.728402   -1.207488    2.027390
    128          1           0      -16.236612    1.218779    1.083307
    129          1           0      -14.795699    2.023723    0.675882
    130          1           0      -14.133064    0.479875    2.976302
    131          1           0      -15.769758    1.191016    3.297893
    132          1           0      -14.805105    3.256391    3.497469
    133          1           0      -13.589304    3.074832    2.229114
    134          1           0      -12.343121    1.565925    3.911279
    135          1           0      -14.664132    2.109801    5.389189
    136          1           0      -13.385095    3.166758    6.188781
    137          1           0      -13.053754    1.457973    5.923491
    138          1           0      -12.104183    4.239314    3.167677
    139          1           0      -10.898635    3.290267    4.034153
    140          1           0      -12.127350    4.333044    4.892505
 ---------------------------------------------------------------------

 SCF Done:  E(RPBE1PBE) =  -3005.36188236     A.U. after   15 cycles

 Excitation energies and oscillator strengths:

 Excited State   1:      Singlet-A      1.8542 eV  668.68 nm  f=0.3756  <S**2>=0.000
     245 -> 248       -0.16917
     246 -> 247        0.69234
     246 <- 247       -0.10777
 This state for optimization and/or second-order correction.
 Total Energy, E(TD-HF/TD-DFT) =  -3005.29374342
 Copying the excited state density for this state as the 1-particle RhoCI density.

 Excited State   2:      Singlet-A      2.1944 eV  565.00 nm  f=0.1343  <S**2>=0.000
     245 -> 247        0.66044
     246 -> 248        0.23171

 Excited State   3:      Singlet-A      2.9310 eV  423.00 nm  f=0.0026  <S**2>=0.000
     243 -> 247        0.69447

 Excited State   4:      Singlet-A      3.1192 eV  397.49 nm  f=0.0013  <S**2>=0.000
     240 -> 247        0.14548
     241 -> 247        0.49582
     241 -> 249       -0.12967
     242 -> 247        0.44347

 Excited State   5:      Singlet-A      3.1341 eV  395.59 nm  f=0.0054  <S**2>=0.000
     241 -> 247       -0.45429
     242 -> 247        0.50988

 The electronic state is 1-A.
 Alpha  occ. eigenvalues --  -46.91227 -19.27698 -19.25692 -19.21539 -19.19664
 Alpha  occ. eigenvalues --  -19.19486 -19.19477 -14.41326 -14.41114 -14.38949
 Alpha  occ. eigenvalues --  -14.38911 -10.37845 -10.35920 -10.32743 -10.32423
 Alpha  occ. eigenvalues --  -10.29984 -10.28665 -10.28656 -10.28405 -10.28108
 Alpha  occ. eigenvalues --  -10.28063 -10.27883 -10.27674 -10.27664 -10.26581
 Alpha  occ. eigenvalues --  -10.26567 -10.26552 -10.26311 -10.26182 -10.26177
 Alpha  occ. eigenvalues --  -10.25858 -10.25661 -10.25505 -10.25402 -10.25397
 Alpha  occ. eigenvalues --  -10.25376 -10.25001 -10.24585 -10.24476 -10.24315
 Alpha  occ. eigenvalues --  -10.24294 -10.24047 -10.23926 -10.23843 -10.23832
 Alpha  occ. eigenvalues --  -10.23443 -10.23374 -10.23267 -10.23229 -10.23226
 Alpha  occ. eigenvalues --  -10.23199 -10.23047 -10.23030 -10.22979 -10.22875
 Alpha  occ. eigenvalues --  -10.22731 -10.22534 -10.22387 -10.22149 -10.21975
 Alpha  occ. eigenvalues --  -10.21903 -10.21876 -10.21865 -10.21724 -10.21688
 Alpha  occ. eigenvalues --  -10.21676  -3.13386  -1.86242  -1.85771  -1.85607
 Alpha  occ. eigenvalues --   -1.12313  -1.11084  -1.05502  -1.03606  -1.03141
 Alpha  occ. eigenvalues --   -1.02227  -0.99049  -0.98008  -0.96552  -0.95572
 Alpha  occ. eigenvalues --   -0.86339  -0.84348  -0.83951  -0.83132  -0.82694
 Alpha  occ. eigenvalues --   -0.82471  -0.82147  -0.81682  -0.81430  -0.80677
 Alpha  occ. eigenvalues --   -0.79719  -0.79511  -0.78709  -0.78038  -0.77593
 Alpha  occ. eigenvalues --   -0.77006  -0.76120  -0.75642  -0.74811  -0.74534
 Alpha  occ. eigenvalues --   -0.73626  -0.72461  -0.71864  -0.71275  -0.70507
 Alpha  occ. eigenvalues --   -0.70356  -0.69293  -0.69217  -0.68658  -0.68028
 Alpha  occ. eigenvalues --   -0.67627  -0.66864  -0.65668  -0.65246  -0.62951
 Alpha  occ. eigenvalues --   -0.62821  -0.62734  -0.61202  -0.60357  -0.60069
 Alpha  occ. eigenvalues --   -0.59631  -0.59188  -0.58943  -0.58696  -0.58305
 Alpha  occ. eigenvalues --   -0.58237  -0.57423  -0.56786  -0.56510  -0.54127
 Alpha  occ. eigenvalues --   -0.53888  -0.53875  -0.53564  -0.52616  -0.52308
 Alpha  occ. eigenvalues --   -0.51729  -0.51099  -0.50873  -0.50241  -0.50090
 Alpha  occ. eigenvalues --   -0.49810  -0.49493  -0.49250  -0.49045  -0.48465
 Alpha  occ. eigenvalues --   -0.48301  -0.48058  -0.47721  -0.47407  -0.47145
 Alpha  occ. eigenvalues --   -0.46994  -0.46860  -0.46548  -0.46493  -0.46321
 Alpha  occ. eigenvalues --   -0.45977  -0.45669  -0.45503  -0.45314  -0.45191
 Alpha  occ. eigenvalues --   -0.44873  -0.44746  -0.44599  -0.44369  -0.44222
 Alpha  occ. eigenvalues --   -0.43996  -0.43721  -0.43615  -0.43536  -0.43471
 Alpha  occ. eigenvalues --   -0.43266  -0.42991  -0.42803  -0.42560  -0.42199
 Alpha  occ. eigenvalues --   -0.42118  -0.41776  -0.41653  -0.41351  -0.41200
 Alpha  occ. eigenvalues --   -0.40832  -0.40771  -0.40301  -0.40063  -0.39976
 Alpha  occ. eigenvalues --   -0.39860  -0.39697  -0.39631  -0.39384  -0.39307
 Alpha  occ. eigenvalues --   -0.39252  -0.39220  -0.39116  -0.38952  -0.38483
 Alpha  occ. eigenvalues --   -0.38275  -0.38082  -0.37990  -0.37891  -0.37710
 Alpha  occ. eigenvalues --   -0.37489  -0.37376  -0.37182  -0.37095  -0.36824
 Alpha  occ. eigenvalues --   -0.36740  -0.36674  -0.36539  -0.36392  -0.36119
 Alpha  occ. eigenvalues --   -0.36071  -0.35807  -0.35643  -0.35453  -0.35384
 Alpha  occ. eigenvalues --   -0.34751  -0.34532  -0.33975  -0.33792  -0.33689
 Alpha  occ. eigenvalues --   -0.33594  -0.33300  -0.33132  -0.32767  -0.32562
 Alpha  occ. eigenvalues --   -0.32130  -0.31849  -0.31682  -0.31598  -0.30964
 Alpha  occ. eigenvalues --   -0.30732  -0.30665  -0.30045  -0.29742  -0.29396
 Alpha  occ. eigenvalues --   -0.29044  -0.28823  -0.28501  -0.26850  -0.26014
 Alpha  occ. eigenvalues --   -0.25939  -0.25426  -0.24780  -0.24745  -0.20663
 Alpha  occ. eigenvalues --   -0.18749
 Alpha virt. eigenvalues --   -0.11145  -0.05000  -0.03911  -0.02127  -0.00765
 Alpha virt. eigenvalues --    0.00138   0.00946   0.01270   0.01477   0.03110
 Alpha virt. eigenvalues --    0.03852   0.04363   0.04533   0.05642   0.05834

 Mulliken charges:
               1
     1  Mg   0.974156
     2  C    0.010103
     3  C   -0.051957
     4  C   -0.050358
     5  C   -0.065054
     6  N   -0.386530
     7  C    0.022062
     8  C   -0.061777
     9  C   -0.122979
    10  C    0.009489
    11  C    0.010867
    12  C    0.048250
    13  C   -0.059279
    14  C    0.234792
    15  O   -0.279124
    16  O   -0.364496
    17  N   -0.543355
    18  C    0.245403
    19  C   -0.177990
    20  C   -0.115534
    21  C    0.140920
    22  C    0.038312
    23  C    0.082926
    24  O   -0.263035
    25  C   -0.021806
    26  N   -0.335179
    27  C    0.060305
    28  C   -0.103555
    29  C   -0.076968
    30  C    0.012778
    31  C    0.020207
    32  C   -0.059422
    33  C   -0.064993
    34  N   -0.534186
    35  C    0.189743
    36  C   -0.208608
    37  C   -0.043248
    38  C    0.181479
    39  C    0.092169
    40  C    0.146946
    41  O   -0.193432
    42  C   -0.150723
    43  C    0.245767
    44  O   -0.271765
    45  O   -0.331156
    46  C    0.149209
    47  C    0.238578
    48  C   -0.122981
    49  C   -0.229988
    50  C    0.013869
    51  C   -0.013760
    52  C   -0.067888
    53  C    0.006781
    54  C   -0.201734
    55  C   -0.045463
    56  C   -0.012957
    57  C   -0.048796
    58  C    0.006199
    59  C   -0.258901
    60  C   -0.013242
    61  C   -0.002483
    62  C   -0.003570
    63  C   -0.027604
    64  C   -0.284622
    65  C   -0.007608
    66  C   -0.012666
    67  H   -0.008496
    68  H    0.045243
    69  H   -0.008054
    70  H    0.068069
    71  H    0.045104
    72  H    0.051045
    73  H    0.045349
    74  H    0.041375
    75  H    0.044869
    76  H    0.044038
    77  H    0.067031
    78  H    0.089619
    79  H    0.038128
    80  H    0.056435
    81  H    0.059873
    82  H    0.081811
    83  H    0.055582
    84  H    0.053777
    85  H    0.046845
    86  H    0.053324
    87  H    0.037470
    88  H    0.045042
    89  H    0.043292
    90  H    0.049648
    91  H    0.039536
    92  H    0.042337
    93  H    0.051601
    94  H    0.050185
    95  H    0.059139
    96  H    0.061078
    97  H    0.056052
    98  H    0.082026
    99  H    0.007246
   100  H    0.072069
   101  H    0.069902
   102  H    0.048769
   103  H    0.069245
   104  H    0.032869
   105  H    0.021453
   106  H    0.067858
   107  H    0.068422
   108  H    0.052434
   109  H    0.047774
   110  H    0.032445
   111  H    0.026162
   112  H    0.034325
   113  H    0.036733
   114  H    0.041720
   115  H    0.026582
   116  H    0.032500
   117  H    0.023256
   118  H    0.032699
   119  H    0.031682
   120  H    0.028659
   121  H    0.022709
   122  H    0.025086
   123  H    0.023893
   124  H    0.031272
   125  H    0.033181
   126  H    0.027270
   127  H    0.033967
   128  H    0.024418
   129  H    0.020351
   130  H    0.036117
   131  H    0.037268
   132  H    0.026871
   133  H    0.025332
   134  H    0.033208
   135  H    0.042868
   136  H    0.040411
   137  H    0.034386
   138  H    0.022930
   139  H    0.042625
   140  H    0.032110
 Sum of Mulliken charges =  -0.00000

 Dipole moment (field-independent basis, Debye):
    X=             -3.8105    Y=              1.6617    Z=              0.3195  Tot=              4.1693
 Quadrupole moment (field-independent basis, Debye-Ang):
   XX=           -377.2280   YY=           -416.6661   ZZ=           -400.3597
   XY=             -1.1902   XZ=             20.2159   YZ=             -2.8628

 Normal termination of Gaussian 16 at Tue May  3 23:33:44 2022.
