 Gaussian 16, Revision A.03,
 Gaussian 16:  ES64L-G16RevA.03 25-Dec-2016

 --------------------------------
 #p wB97XD/Def2SVP td=(nstates=5)
 --------------------------------

 ----------------------------------------------------
 step_1101_chromophore_7 TDDFT with wB97XD functional
 ----------------------------------------------------
 Symbolic Z-matrix:
 Charge =  0 Multiplicity = 1

                         Standard orientation:
 ---------------------------------------------------------------------
 Center     Atomic      Atomic             Coordinates (Angstroms)
 Number     Number       Type             X           Y           Z
 ---------------------------------------------------------------------
      1         12           0        6.380148    0.387115    0.144967
      2          6           0        3.815126   -1.960599    0.089365
      3          6           0        4.191952    2.620467   -1.134643
      4          6           0        8.912032    2.724680    0.464036
      5          6           0        8.576477   -1.969557    1.373126
      6          7           0        4.276065    0.273052   -0.506627
      7          6           0        3.358099   -0.735170   -0.318272
      8          6           0        1.912399   -0.373580   -0.746218
      9          6           0        2.166002    1.052486   -1.417506
     10          6           0        3.603463    1.354622   -0.992648
     11          6           0        1.859267    1.154886   -2.934740
     12          6           0        0.802648   -0.466653    0.388767
     13          6           0       -0.414840   -1.367853    0.094187
     14          6           0       -1.507176   -0.780225   -0.850272
     15          8           0       -1.247315   -0.069556   -1.833427
     16          8           0       -2.766211   -1.124328   -0.373755
     17          7           0        6.498098    2.375776   -0.339679
     18          6           0        5.506793    3.119242   -0.916338
     19          6           0        6.046775    4.418426   -1.188297
     20          6           0        7.430077    4.484701   -0.697231
     21          6           0        7.668179    3.167777   -0.106987
     22          6           0        5.196055    5.561561   -1.892052
     23          6           0        8.489175    5.614472   -0.750691
     24          8           0        9.626385    5.507232   -0.249148
     25          6           0        8.035580    6.867416   -1.423512
     26          7           0        8.567592    0.302499    0.561854
     27          6           0        9.346200    1.396017    0.726680
     28          6           0       10.749935    1.091788    1.320002
     29          6           0       10.585655   -0.460398    1.626669
     30          6           0        9.112003   -0.716765    1.205862
     31          6           0       11.907461    1.551203    0.449608
     32          6           0       10.808436   -0.912436    3.112885
     33          6           0       11.609161   -2.228614    3.345770
     34          7           0        6.263053   -1.583182    0.612438
     35          6           0        7.257004   -2.434987    1.125500
     36          6           0        6.708825   -3.794278    1.171162
     37          6           0        5.355353   -3.660513    0.794860
     38          6           0        5.111272   -2.310128    0.415980
     39          6           0        7.468167   -4.997750    1.582750
     40          6           0        4.140388   -4.425583    0.635011
     41          8           0        3.934369   -5.604264    0.814379
     42          6           0        3.028725   -3.330452    0.315759
     43          6           0        2.329692   -3.825981   -0.909339
     44          8           0        2.563177   -3.454612   -2.058636
     45          8           0        1.381233   -4.740390   -0.627729
     46          6           0        0.521532   -5.065869   -1.728091
     47          6           0       -3.824931   -0.744500   -1.362777
     48          6           0       -5.224823   -0.562345   -0.831009
     49          6           0       -6.405472   -0.742433   -1.517043
     50          6           0       -6.584670   -1.054040   -3.047489
     51          6           0       -7.688565   -0.728327   -0.579777
     52          6           0       -9.032659   -1.157480   -1.086478
     53          6           0       -9.954009    0.072325   -1.445085
     54          6           0      -11.036079   -0.430152   -2.487327
     55          6           0      -10.599556   -0.029612   -3.926717
     56          6           0      -12.432557    0.253272   -2.331347
     57          6           0      -13.448733   -0.741320   -1.596920
     58          6           0      -14.555221    0.024836   -0.872562
     59          6           0      -14.431906   -0.029490    0.648513
     60          6           0      -15.057227   -1.375812    1.185862
     61          6           0      -15.163168    1.187410    1.271258
     62          6           0      -14.836719    1.278753    2.742549
     63          6           0      -14.074433    2.572381    3.065967
     64          6           0      -12.949954    2.447558    4.118059
     65          6           0      -13.605008    2.317465    5.541421
     66          6           0      -11.927582    3.649469    4.066834
     67          1           0        3.348673    3.200816   -1.515559
     68          1           0        9.605567    3.550104    0.634207
     69          1           0        9.371229   -2.632039    1.722669
     70          1           0        1.560975   -0.968871   -1.588844
     71          1           0        1.554067    1.866700   -1.026775
     72          1           0        1.486452    0.246870   -3.409489
     73          1           0        2.691027    1.487849   -3.554546
     74          1           0        1.018410    1.841608   -3.027545
     75          1           0        0.434148    0.525091    0.653480
     76          1           0        1.308548   -0.814131    1.288546
     77          1           0       -0.959905   -1.692020    0.980401
     78          1           0       -0.075864   -2.207709   -0.512044
     79          1           0        4.177941    5.237433   -2.108310
     80          1           0        5.590357    5.703592   -2.897492
     81          1           0        5.234487    6.509156   -1.354088
     82          1           0        7.384354    7.485553   -0.805572
     83          1           0        7.541655    6.526926   -2.333594
     84          1           0        8.941798    7.412643   -1.686957
     85          1           0       10.947168    1.643474    2.239033
     86          1           0       11.127374   -1.060835    0.897082
     87          1           0       12.794068    1.777509    1.042094
     88          1           0       11.569074    2.542682    0.147241
     89          1           0       12.151956    0.921866   -0.405620
     90          1           0        9.816969   -1.072204    3.536953
     91          1           0       11.262070   -0.137646    3.729489
     92          1           0       12.105920   -2.492587    2.412790
     93          1           0       10.845082   -2.967596    3.586297
     94          1           0       12.340681   -2.072310    4.138290
     95          1           0        6.698943   -5.762183    1.689148
     96          1           0        8.130225   -4.730458    2.406699
     97          1           0        8.002760   -5.345998    0.699008
     98          1           0        2.279028   -3.283483    1.104842
     99          1           0        0.012419   -4.103314   -1.752932
    100          1           0       -0.110612   -5.897452   -1.417915
    101          1           0        0.947256   -5.084488   -2.732040
    102          1           0       -3.920464   -1.458182   -2.180094
    103          1           0       -3.566656    0.144150   -1.937966
    104          1           0       -5.348050   -0.392189    0.238071
    105          1           0       -5.578871   -1.092793   -3.465415
    106          1           0       -7.054531   -0.167067   -3.473034
    107          1           0       -7.044970   -2.001231   -3.326747
    108          1           0       -7.769747    0.269309   -0.150009
    109          1           0       -7.509209   -1.467442    0.201545
    110          1           0       -9.620430   -1.715743   -0.357555
    111          1           0       -8.942496   -1.887334   -1.891052
    112          1           0       -9.341419    0.862149   -1.880764
    113          1           0      -10.458981    0.457683   -0.559255
    114          1           0      -11.130313   -1.513988   -2.543089
    115          1           0      -11.414125   -0.204421   -4.630269
    116          1           0       -9.664148   -0.458089   -4.287138
    117          1           0      -10.552766    1.049241   -4.082012
    118          1           0      -12.870137    0.491930   -3.300699
    119          1           0      -12.329281    1.160894   -1.736537
    120          1           0      -12.991425   -1.510162   -0.974141
    121          1           0      -13.916751   -1.295733   -2.409565
    122          1           0      -15.531377   -0.388571   -1.128391
    123          1           0      -14.450632    1.074384   -1.147835
    124          1           0      -13.372251   -0.113780    0.889814
    125          1           0      -14.325749   -2.108849    1.525633
    126          1           0      -15.651567   -1.845847    0.401715
    127          1           0      -15.728402   -1.207488    2.027390
    128          1           0      -16.236612    1.218779    1.083307
    129          1           0      -14.795699    2.023723    0.675882
    130          1           0      -14.133064    0.479875    2.976302
    131          1           0      -15.769758    1.191016    3.297893
    132          1           0      -14.805105    3.256391    3.497469
    133          1           0      -13.589304    3.074832    2.229114
    134          1           0      -12.343121    1.565925    3.911279
    135          1           0      -14.664132    2.109801    5.389189
    136          1           0      -13.385095    3.166758    6.188781
    137          1           0      -13.053754    1.457973    5.923491
    138          1           0      -12.104183    4.239314    3.167677
    139          1           0      -10.898635    3.290267    4.034153
    140          1           0      -12.127350    4.333044    4.892505
 ---------------------------------------------------------------------

 SCF Done:  E(RwB97XD) =  -3007.87018403     A.U. after   19 cycles

 Excitation energies and oscillator strengths:

 Excited State   1:      Singlet-A      1.6276 eV  761.75 nm  f=0.3864  <S**2>=0.000
     245 -> 248       -0.18742
     246 -> 247        0.68264
     245 <- 248       -0.11846
 This state for optimization and/or second-order correction.
 Total Energy, E(TD-HF/TD-DFT) =  -3007.81036962
 Copying the excited state density for this state as the 1-particle RhoCI density.

 Excited State   2:      Singlet-A      2.1297 eV  582.17 nm  f=0.1399  <S**2>=0.000
     245 -> 247        0.64873
     246 -> 248        0.26339

 Excited State   3:      Singlet-A      3.2722 eV  378.90 nm  f=0.0011  <S**2>=0.000
     242 -> 247       -0.11933
     244 -> 247        0.67528

 Excited State   4:      Singlet-A      3.4693 eV  357.37 nm  f=0.0470  <S**2>=0.000
     242 -> 247        0.60363
     246 -> 248       -0.33177

 Excited State   5:      Singlet-A      3.6393 eV  340.68 nm  f=0.5532  <S**2>=0.000
     240 -> 247        0.11795
     241 -> 247        0.23123
     241 -> 249        0.13939
     241 -> 250        0.10818
     242 -> 247        0.26716
     245 -> 247       -0.23092
     246 -> 248        0.46598

 The electronic state is 1-A.
 Alpha  occ. eigenvalues --  -46.94139 -19.32249 -19.30323 -19.26182 -19.24577
 Alpha  occ. eigenvalues --  -19.24237 -19.24232 -14.46394 -14.46243 -14.43852
 Alpha  occ. eigenvalues --  -14.43803 -10.44609 -10.42812 -10.39540 -10.39374
 Alpha  occ. eigenvalues --  -10.36486 -10.35210 -10.35004 -10.34630 -10.34344
 Alpha  occ. eigenvalues --  -10.34303 -10.34253 -10.33966 -10.33908 -10.33033
 Alpha  occ. eigenvalues --  -10.32936 -10.32909 -10.32664 -10.32613 -10.32446
 Alpha  occ. eigenvalues --  -10.32426 -10.32035 -10.31712 -10.31705 -10.31608
 Alpha  occ. eigenvalues --  -10.31584 -10.31261 -10.31053 -10.30910 -10.30706
 Alpha  occ. eigenvalues --  -10.30647 -10.30497 -10.30288 -10.30133 -10.30127
 Alpha  occ. eigenvalues --  -10.29893 -10.29836 -10.29783 -10.29646 -10.29483
 Alpha  occ. eigenvalues --  -10.29466 -10.29445 -10.29428 -10.29369 -10.29240
 Alpha  occ. eigenvalues --  -10.29078 -10.28860 -10.28760 -10.28534 -10.28337
 Alpha  occ. eigenvalues --  -10.28308 -10.28282 -10.28260 -10.28151 -10.28104
 Alpha  occ. eigenvalues --  -10.28040  -3.20148  -1.93754  -1.93283  -1.93117
 Alpha  occ. eigenvalues --   -1.19755  -1.18465  -1.13069  -1.11061  -1.10479
 Alpha  occ. eigenvalues --   -1.09659  -1.06420  -1.05403  -1.03961  -1.02870
 Alpha  occ. eigenvalues --   -0.94009  -0.92028  -0.91642  -0.90793  -0.90293
 Alpha  occ. eigenvalues --   -0.90147  -0.89719  -0.89286  -0.89099  -0.88325
 Alpha  occ. eigenvalues --   -0.87383  -0.87158  -0.86363  -0.85706  -0.85208
 Alpha  occ. eigenvalues --   -0.84668  -0.83776  -0.83310  -0.82461  -0.82135
 Alpha  occ. eigenvalues --   -0.81305  -0.80100  -0.79473  -0.78890  -0.78193
 Alpha  occ. eigenvalues --   -0.78007  -0.76996  -0.76781  -0.76348  -0.75693
 Alpha  occ. eigenvalues --   -0.75229  -0.74420  -0.73218  -0.72810  -0.70606
 Alpha  occ. eigenvalues --   -0.70402  -0.70296  -0.68726  -0.67949  -0.67560
 Alpha  occ. eigenvalues --   -0.67123  -0.66644  -0.66558  -0.66219  -0.65889
 Alpha  occ. eigenvalues --   -0.65749  -0.65101  -0.64206  -0.64158  -0.61652
 Alpha  occ. eigenvalues --   -0.61362  -0.61331  -0.60943  -0.60203  -0.59682
 Alpha  occ. eigenvalues --   -0.59142  -0.58573  -0.58274  -0.57685  -0.57466
 Alpha  occ. eigenvalues --   -0.57259  -0.56892  -0.56617  -0.56544  -0.55897
 Alpha  occ. eigenvalues --   -0.55709  -0.55500  -0.55026  -0.54787  -0.54562
 Alpha  occ. eigenvalues --   -0.54391  -0.54221  -0.54088  -0.53862  -0.53696
 Alpha  occ. eigenvalues --   -0.53262  -0.53000  -0.52935  -0.52651  -0.52556
 Alpha  occ. eigenvalues --   -0.52228  -0.52053  -0.51951  -0.51693  -0.51556
 Alpha  occ. eigenvalues --   -0.51366  -0.51044  -0.50964  -0.50881  -0.50779
 Alpha  occ. eigenvalues --   -0.50514  -0.50231  -0.50127  -0.49814  -0.49439
 Alpha  occ. eigenvalues --   -0.49350  -0.49030  -0.48886  -0.48643  -0.48452
 Alpha  occ. eigenvalues --   -0.48077  -0.48026  -0.47557  -0.47320  -0.47226
 Alpha  occ. eigenvalues --   -0.47102  -0.46842  -0.46787  -0.46579  -0.46443
 Alpha  occ. eigenvalues --   -0.46434  -0.46375  -0.46319  -0.46126  -0.45624
 Alpha  occ. eigenvalues --   -0.45400  -0.45223  -0.45126  -0.45027  -0.44804
 Alpha  occ. eigenvalues --   -0.44632  -0.44469  -0.44307  -0.44188  -0.43998
 Alpha  occ. eigenvalues --   -0.43784  -0.43724  -0.43639  -0.43484  -0.43202
 Alpha  occ. eigenvalues --   -0.43076  -0.42850  -0.42674  -0.42595  -0.42383
 Alpha  occ. eigenvalues --   -0.41842  -0.41522  -0.40903  -0.40851  -0.40746
 Alpha  occ. eigenvalues --   -0.40644  -0.40170  -0.40167  -0.39783  -0.39561
 Alpha  occ. eigenvalues --   -0.39034  -0.38877  -0.38672  -0.38492  -0.37976
 Alpha  occ. eigenvalues --   -0.37872  -0.37640  -0.36968  -0.36745  -0.36251
 Alpha  occ. eigenvalues --   -0.35941  -0.35912  -0.35188  -0.33426  -0.33091
 Alpha  occ. eigenvalues --   -0.33036  -0.32006  -0.31532  -0.31266  -0.25600
 Alpha  occ. eigenvalues --   -0.22917
 Alpha virt. eigenvalues --   -0.07066   0.00514   0.02340   0.04342   0.06096
 Alpha virt. eigenvalues --    0.06833   0.07080   0.07745   0.08003   0.09514
 Alpha virt. eigenvalues --    0.10382   0.11136   0.11214   0.12368   0.12589

 Mulliken charges:
               1
     1  Mg   0.963141
     2  C    0.009916
     3  C   -0.064443
     4  C   -0.064869
     5  C   -0.078204
     6  N   -0.354601
     7  C   -0.002439
     8  C   -0.039995
     9  C   -0.096528
    10  C   -0.006367
    11  C    0.017420
    12  C    0.054999
    13  C   -0.020536
    14  C    0.221533
    15  O   -0.276763
    16  O   -0.364759
    17  N   -0.512595
    18  C    0.238117
    19  C   -0.171689
    20  C   -0.109652
    21  C    0.129504
    22  C    0.053212
    23  C    0.080208
    24  O   -0.256949
    25  C   -0.009747
    26  N   -0.300342
    27  C    0.050598
    28  C   -0.082147
    29  C   -0.054412
    30  C    0.005792
    31  C    0.031036
    32  C   -0.043896
    33  C   -0.048371
    34  N   -0.500292
    35  C    0.178492
    36  C   -0.200766
    37  C   -0.037673
    38  C    0.165515
    39  C    0.103853
    40  C    0.127256
    41  O   -0.182968
    42  C   -0.115586
    43  C    0.222388
    44  O   -0.265530
    45  O   -0.329335
    46  C    0.167611
    47  C    0.254776
    48  C   -0.129289
    49  C   -0.223432
    50  C    0.030503
    51  C    0.004225
    52  C   -0.049242
    53  C    0.018869
    54  C   -0.172627
    55  C   -0.028617
    56  C    0.002794
    57  C   -0.034639
    58  C    0.026428
    59  C   -0.224019
    60  C   -0.006484
    61  C    0.010999
    62  C    0.014095
    63  C   -0.007134
    64  C   -0.258288
    65  C    0.005082
    66  C    0.000345
    67  H   -0.017975
    68  H    0.039113
    69  H   -0.021135
    70  H    0.051333
    71  H    0.034881
    72  H    0.046725
    73  H    0.039903
    74  H    0.036935
    75  H    0.038394
    76  H    0.036053
    77  H    0.063743
    78  H    0.062843
    79  H    0.033393
    80  H    0.050232
    81  H    0.053654
    82  H    0.078242
    83  H    0.047416
    84  H    0.052188
    85  H    0.037663
    86  H    0.041499
    87  H    0.032192
    88  H    0.036864
    89  H    0.038641
    90  H    0.038841
    91  H    0.032367
    92  H    0.035593
    93  H    0.044857
    94  H    0.046049
    95  H    0.054950
    96  H    0.056467
    97  H    0.051433
    98  H    0.075814
    99  H   -0.000692
   100  H    0.070269
   101  H    0.066453
   102  H    0.041007
   103  H    0.064222
   104  H    0.031239
   105  H    0.015169
   106  H    0.060955
   107  H    0.064436
   108  H    0.044160
   109  H    0.040247
   110  H    0.024746
   111  H    0.013840
   112  H    0.024102
   113  H    0.028638
   114  H    0.029811
   115  H    0.018754
   116  H    0.025315
   117  H    0.015259
   118  H    0.024444
   119  H    0.020929
   120  H    0.018521
   121  H    0.014993
   122  H    0.015995
   123  H    0.012117
   124  H    0.016057
   125  H    0.028411
   126  H    0.020655
   127  H    0.027478
   128  H    0.017928
   129  H    0.008625
   130  H    0.021926
   131  H    0.031010
   132  H    0.016530
   133  H    0.014231
   134  H    0.021776
   135  H    0.035318
   136  H    0.034693
   137  H    0.028646
   138  H    0.016280
   139  H    0.037765
   140  H    0.025088
 Sum of Mulliken charges =  -0.00000

 Dipole moment (field-independent basis, Debye):
    X=             -3.8835    Y=              1.5485    Z=              0.3356  Tot=              4.1943
 Quadrupole moment (field-independent basis, Debye-Ang):
   XX=           -377.8533   YY=           -414.9167   ZZ=           -399.9393
   XY=             -1.4130   XZ=             20.0366   YZ=             -3.0028

 Normal termination of Gaussian 16 at Wed May  4 00:04:48 2022.
