 Gaussian 16, Revision A.03,
 Gaussian 16:  ES64L-G16RevA.03 25-Dec-2016

 --------------------
 #p ZINDO=(nstates=5)
 --------------------

 -----------------------------
 step_1101_chromophore_7 ZINDO
 -----------------------------
 Symbolic Z-matrix:
 Charge =  0 Multiplicity = 1

                         Standard orientation:
 ---------------------------------------------------------------------
 Center     Atomic      Atomic             Coordinates (Angstroms)
 Number     Number       Type             X           Y           Z
 ---------------------------------------------------------------------
      1         12           0        6.380148    0.387115    0.144967
      2          6           0        3.815126   -1.960599    0.089365
      3          6           0        4.191952    2.620467   -1.134643
      4          6           0        8.912032    2.724680    0.464036
      5          6           0        8.576477   -1.969557    1.373126
      6          7           0        4.276065    0.273052   -0.506627
      7          6           0        3.358099   -0.735170   -0.318272
      8          6           0        1.912399   -0.373580   -0.746218
      9          6           0        2.166002    1.052486   -1.417506
     10          6           0        3.603463    1.354622   -0.992648
     11          6           0        1.859267    1.154886   -2.934740
     12          6           0        0.802648   -0.466653    0.388767
     13          6           0       -0.414840   -1.367853    0.094187
     14          6           0       -1.507176   -0.780225   -0.850272
     15          8           0       -1.247315   -0.069556   -1.833427
     16          8           0       -2.766211   -1.124328   -0.373755
     17          7           0        6.498098    2.375776   -0.339679
     18          6           0        5.506793    3.119242   -0.916338
     19          6           0        6.046775    4.418426   -1.188297
     20          6           0        7.430077    4.484701   -0.697231
     21          6           0        7.668179    3.167777   -0.106987
     22          6           0        5.196055    5.561561   -1.892052
     23          6           0        8.489175    5.614472   -0.750691
     24          8           0        9.626385    5.507232   -0.249148
     25          6           0        8.035580    6.867416   -1.423512
     26          7           0        8.567592    0.302499    0.561854
     27          6           0        9.346200    1.396017    0.726680
     28          6           0       10.749935    1.091788    1.320002
     29          6           0       10.585655   -0.460398    1.626669
     30          6           0        9.112003   -0.716765    1.205862
     31          6           0       11.907461    1.551203    0.449608
     32          6           0       10.808436   -0.912436    3.112885
     33          6           0       11.609161   -2.228614    3.345770
     34          7           0        6.263053   -1.583182    0.612438
     35          6           0        7.257004   -2.434987    1.125500
     36          6           0        6.708825   -3.794278    1.171162
     37          6           0        5.355353   -3.660513    0.794860
     38          6           0        5.111272   -2.310128    0.415980
     39          6           0        7.468167   -4.997750    1.582750
     40          6           0        4.140388   -4.425583    0.635011
     41          8           0        3.934369   -5.604264    0.814379
     42          6           0        3.028725   -3.330452    0.315759
     43          6           0        2.329692   -3.825981   -0.909339
     44          8           0        2.563177   -3.454612   -2.058636
     45          8           0        1.381233   -4.740390   -0.627729
     46          6           0        0.521532   -5.065869   -1.728091
     47          6           0       -3.824931   -0.744500   -1.362777
     48          6           0       -5.224823   -0.562345   -0.831009
     49          6           0       -6.405472   -0.742433   -1.517043
     50          6           0       -6.584670   -1.054040   -3.047489
     51          6           0       -7.688565   -0.728327   -0.579777
     52          6           0       -9.032659   -1.157480   -1.086478
     53          6           0       -9.954009    0.072325   -1.445085
     54          6           0      -11.036079   -0.430152   -2.487327
     55          6           0      -10.599556   -0.029612   -3.926717
     56          6           0      -12.432557    0.253272   -2.331347
     57          6           0      -13.448733   -0.741320   -1.596920
     58          6           0      -14.555221    0.024836   -0.872562
     59          6           0      -14.431906   -0.029490    0.648513
     60          6           0      -15.057227   -1.375812    1.185862
     61          6           0      -15.163168    1.187410    1.271258
     62          6           0      -14.836719    1.278753    2.742549
     63          6           0      -14.074433    2.572381    3.065967
     64          6           0      -12.949954    2.447558    4.118059
     65          6           0      -13.605008    2.317465    5.541421
     66          6           0      -11.927582    3.649469    4.066834
     67          1           0        3.348673    3.200816   -1.515559
     68          1           0        9.605567    3.550104    0.634207
     69          1           0        9.371229   -2.632039    1.722669
     70          1           0        1.560975   -0.968871   -1.588844
     71          1           0        1.554067    1.866700   -1.026775
     72          1           0        1.486452    0.246870   -3.409489
     73          1           0        2.691027    1.487849   -3.554546
     74          1           0        1.018410    1.841608   -3.027545
     75          1           0        0.434148    0.525091    0.653480
     76          1           0        1.308548   -0.814131    1.288546
     77          1           0       -0.959905   -1.692020    0.980401
     78          1           0       -0.075864   -2.207709   -0.512044
     79          1           0        4.177941    5.237433   -2.108310
     80          1           0        5.590357    5.703592   -2.897492
     81          1           0        5.234487    6.509156   -1.354088
     82          1           0        7.384354    7.485553   -0.805572
     83          1           0        7.541655    6.526926   -2.333594
     84          1           0        8.941798    7.412643   -1.686957
     85          1           0       10.947168    1.643474    2.239033
     86          1           0       11.127374   -1.060835    0.897082
     87          1           0       12.794068    1.777509    1.042094
     88          1           0       11.569074    2.542682    0.147241
     89          1           0       12.151956    0.921866   -0.405620
     90          1           0        9.816969   -1.072204    3.536953
     91          1           0       11.262070   -0.137646    3.729489
     92          1           0       12.105920   -2.492587    2.412790
     93          1           0       10.845082   -2.967596    3.586297
     94          1           0       12.340681   -2.072310    4.138290
     95          1           0        6.698943   -5.762183    1.689148
     96          1           0        8.130225   -4.730458    2.406699
     97          1           0        8.002760   -5.345998    0.699008
     98          1           0        2.279028   -3.283483    1.104842
     99          1           0        0.012419   -4.103314   -1.752932
    100          1           0       -0.110612   -5.897452   -1.417915
    101          1           0        0.947256   -5.084488   -2.732040
    102          1           0       -3.920464   -1.458182   -2.180094
    103          1           0       -3.566656    0.144150   -1.937966
    104          1           0       -5.348050   -0.392189    0.238071
    105          1           0       -5.578871   -1.092793   -3.465415
    106          1           0       -7.054531   -0.167067   -3.473034
    107          1           0       -7.044970   -2.001231   -3.326747
    108          1           0       -7.769747    0.269309   -0.150009
    109          1           0       -7.509209   -1.467442    0.201545
    110          1           0       -9.620430   -1.715743   -0.357555
    111          1           0       -8.942496   -1.887334   -1.891052
    112          1           0       -9.341419    0.862149   -1.880764
    113          1           0      -10.458981    0.457683   -0.559255
    114          1           0      -11.130313   -1.513988   -2.543089
    115          1           0      -11.414125   -0.204421   -4.630269
    116          1           0       -9.664148   -0.458089   -4.287138
    117          1           0      -10.552766    1.049241   -4.082012
    118          1           0      -12.870137    0.491930   -3.300699
    119          1           0      -12.329281    1.160894   -1.736537
    120          1           0      -12.991425   -1.510162   -0.974141
    121          1           0      -13.916751   -1.295733   -2.409565
    122          1           0      -15.531377   -0.388571   -1.128391
    123          1           0      -14.450632    1.074384   -1.147835
    124          1           0      -13.372251   -0.113780    0.889814
    125          1           0      -14.325749   -2.108849    1.525633
    126          1           0      -15.651567   -1.845847    0.401715
    127          1           0      -15.728402   -1.207488    2.027390
    128          1           0      -16.236612    1.218779    1.083307
    129          1           0      -14.795699    2.023723    0.675882
    130          1           0      -14.133064    0.479875    2.976302
    131          1           0      -15.769758    1.191016    3.297893
    132          1           0      -14.805105    3.256391    3.497469
    133          1           0      -13.589304    3.074832    2.229114
    134          1           0      -12.343121    1.565925    3.911279
    135          1           0      -14.664132    2.109801    5.389189
    136          1           0      -13.385095    3.166758    6.188781
    137          1           0      -13.053754    1.457973    5.923491
    138          1           0      -12.104183    4.239314    3.167677
    139          1           0      -10.898635    3.290267    4.034153
    140          1           0      -12.127350    4.333044    4.892505
 ---------------------------------------------------------------------

 SCF Done:  E(RZINDO/S) =  -473.927135613     A.U. after   20 cycles

 Excitation energies and oscillator strengths:

 Excited State   1:      Singlet-A      1.2272 eV 1010.27 nm  f=0.5924  <S**2>=0.000
     175 ->178         0.19584
     176 ->177         0.66035
 This state for optimization and/or second-order correction.
 Total Energy, E(CIS/TDA) =  -473.882035359
 Copying the excited state density for this state as the 1-particle RhoCI density.

 Excited State   2:      Singlet-A      1.9023 eV  651.77 nm  f=0.0741  <S**2>=0.000
     175 ->177         0.56593
     176 ->178        -0.39503

 Excited State   3:      Singlet-A      3.0074 eV  412.27 nm  f=0.6201  <S**2>=0.000
     169 ->177        -0.15228
     169 ->179        -0.13877
     169 ->181        -0.19001
     169 ->186        -0.10192
     170 ->179        -0.12765
     175 ->177         0.27504
     176 ->178         0.43904
     176 ->179         0.18013

 Excited State   4:      Singlet-A      3.0290 eV  409.32 nm  f=0.0497  <S**2>=0.000
     168 ->179         0.17300
     169 ->177         0.15328
     169 ->179         0.15985
     169 ->181         0.20406
     169 ->186         0.11487
     170 ->177         0.12924
     170 ->181         0.16729
     176 ->178         0.16958
     176 ->179         0.43328

 Excited State   5:      Singlet-A      3.0441 eV  407.30 nm  f=0.0272  <S**2>=0.000
     168 ->177         0.32998
     168 ->178        -0.17723
     168 ->179        -0.36332
     168 ->181         0.24461
     168 ->182         0.10823
     168 ->186        -0.14379
     168 ->187         0.13716
     169 ->179         0.17016

 The electronic state is 1-A.
 Alpha  occ. eigenvalues --   -1.82827  -1.79854  -1.77280  -1.75537  -1.70687
 Alpha  occ. eigenvalues --   -1.68349  -1.65827  -1.60377  -1.58616  -1.56476
 Alpha  occ. eigenvalues --   -1.55009  -1.50676  -1.49403  -1.47905  -1.46793
 Alpha  occ. eigenvalues --   -1.43443  -1.41236  -1.40876  -1.38982  -1.37206
 Alpha  occ. eigenvalues --   -1.35742  -1.34124  -1.33928  -1.31201  -1.27983
 Alpha  occ. eigenvalues --   -1.25683  -1.24220  -1.21558  -1.19857  -1.17907
 Alpha  occ. eigenvalues --   -1.17722  -1.16383  -1.15800  -1.14345  -1.12671
 Alpha  occ. eigenvalues --   -1.12307  -1.09835  -1.09485  -1.04476  -1.03110
 Alpha  occ. eigenvalues --   -1.02347  -0.99940  -0.99662  -0.97832  -0.97200
 Alpha  occ. eigenvalues --   -0.96015  -0.93754  -0.93377  -0.91784  -0.91561
 Alpha  occ. eigenvalues --   -0.90217  -0.87942  -0.87614  -0.87509  -0.86456
 Alpha  occ. eigenvalues --   -0.85530  -0.84509  -0.83134  -0.80869  -0.80289
 Alpha  occ. eigenvalues --   -0.79641  -0.79290  -0.77455  -0.75910  -0.75688
 Alpha  occ. eigenvalues --   -0.75631  -0.74683  -0.74556  -0.73778  -0.72967
 Alpha  occ. eigenvalues --   -0.72360  -0.72131  -0.71482  -0.71452  -0.70442
 Alpha  occ. eigenvalues --   -0.70393  -0.69410  -0.68323  -0.68131  -0.67755
 Alpha  occ. eigenvalues --   -0.67457  -0.67346  -0.66558  -0.66231  -0.65656
 Alpha  occ. eigenvalues --   -0.65397  -0.65026  -0.64145  -0.63975  -0.63642
 Alpha  occ. eigenvalues --   -0.63123  -0.62704  -0.62169  -0.62057  -0.61536
 Alpha  occ. eigenvalues --   -0.61481  -0.60593  -0.60107  -0.59981  -0.59855
 Alpha  occ. eigenvalues --   -0.59270  -0.58908  -0.58674  -0.58410  -0.58062
 Alpha  occ. eigenvalues --   -0.57830  -0.57452  -0.57063  -0.56997  -0.56838
 Alpha  occ. eigenvalues --   -0.56194  -0.55455  -0.55225  -0.55035  -0.54810
 Alpha  occ. eigenvalues --   -0.54166  -0.53571  -0.53356  -0.52330  -0.52098
 Alpha  occ. eigenvalues --   -0.51860  -0.51695  -0.51582  -0.51191  -0.51133
 Alpha  occ. eigenvalues --   -0.51001  -0.50911  -0.50558  -0.50303  -0.50123
 Alpha  occ. eigenvalues --   -0.49815  -0.49575  -0.49403  -0.49049  -0.49004
 Alpha  occ. eigenvalues --   -0.48937  -0.48774  -0.48555  -0.48120  -0.47877
 Alpha  occ. eigenvalues --   -0.47572  -0.47449  -0.47116  -0.47081  -0.47066
 Alpha  occ. eigenvalues --   -0.46365  -0.46245  -0.45945  -0.45745  -0.45622
 Alpha  occ. eigenvalues --   -0.45114  -0.45046  -0.44731  -0.44159  -0.44156
 Alpha  occ. eigenvalues --   -0.43853  -0.43394  -0.43008  -0.42909  -0.42707
 Alpha  occ. eigenvalues --   -0.41857  -0.41414  -0.41056  -0.39268  -0.38631
 Alpha  occ. eigenvalues --   -0.38263  -0.37129  -0.35424  -0.35183  -0.34396
 Alpha  occ. eigenvalues --   -0.33081  -0.32443  -0.31863  -0.31834  -0.26222
 Alpha  occ. eigenvalues --   -0.21683
 Alpha virt. eigenvalues --   -0.08492  -0.01823  -0.00500   0.01137   0.01313
 Alpha virt. eigenvalues --    0.02912   0.03177   0.03768   0.03850   0.05068
 Alpha virt. eigenvalues --    0.06528   0.06614   0.07358   0.07581   0.07839

 Mulliken charges:
               1
     1  Mg   0.421015
     2  C   -0.045163
     3  C   -0.084289
     4  C   -0.059536
     5  C   -0.069201
     6  N   -0.286517
     7  C    0.146543
     8  C    0.002132
     9  C    0.007311
    10  C    0.128702
    11  C   -0.047300
    12  C   -0.015659
    13  C    0.005148
    14  C    0.461576
    15  O   -0.521167
    16  O   -0.258299
    17  N   -0.332345
    18  C    0.123539
    19  C   -0.016229
    20  C   -0.057777
    21  C    0.111309
    22  C   -0.052065
    23  C    0.334224
    24  O   -0.530634
    25  C   -0.031275
    26  N   -0.248580
    27  C    0.123250
    28  C    0.004164
    29  C   -0.006300
    30  C    0.140816
    31  C   -0.051838
    32  C   -0.034823
    33  C   -0.060433
    34  N   -0.336195
    35  C    0.090706
    36  C    0.045931
    37  C   -0.057212
    38  C    0.126293
    39  C   -0.040771
    40  C    0.337203
    41  O   -0.510313
    42  C    0.043021
    43  C    0.484645
    44  O   -0.541426
    45  O   -0.258546
    46  C    0.068249
    47  C    0.100044
    48  C   -0.080557
    49  C   -0.029873
    50  C   -0.042793
    51  C   -0.024244
    52  C   -0.035980
    53  C   -0.034426
    54  C   -0.019182
    55  C   -0.065947
    56  C   -0.037775
    57  C   -0.046858
    58  C   -0.037423
    59  C   -0.014237
    60  C   -0.065263
    61  C   -0.031946
    62  C   -0.031465
    63  C   -0.034721
    64  C   -0.024254
    65  C   -0.065549
    66  C   -0.064787
    67  H    0.021491
    68  H    0.058245
    69  H    0.024995
    70  H    0.050110
    71  H    0.029085
    72  H    0.027943
    73  H    0.024484
    74  H    0.019266
    75  H    0.028045
    76  H    0.017909
    77  H    0.039295
    78  H    0.050702
    79  H    0.024128
    80  H    0.024423
    81  H    0.031204
    82  H    0.049483
    83  H    0.036447
    84  H    0.033740
    85  H    0.033504
    86  H    0.038726
    87  H    0.017635
    88  H    0.026486
    89  H    0.028442
    90  H    0.018877
    91  H    0.019484
    92  H    0.021743
    93  H    0.023800
    94  H    0.026347
    95  H    0.040793
    96  H    0.040601
    97  H    0.036754
    98  H    0.057397
    99  H    0.027208
   100  H    0.041664
   101  H    0.062538
   102  H    0.043467
   103  H    0.057357
   104  H    0.034581
   105  H    0.015449
   106  H    0.034487
   107  H    0.040164
   108  H    0.028871
   109  H    0.019469
   110  H    0.013363
   111  H    0.022406
   112  H    0.024999
   113  H    0.023847
   114  H    0.030054
   115  H    0.010894
   116  H    0.015600
   117  H    0.011871
   118  H    0.026397
   119  H    0.022614
   120  H    0.026107
   121  H    0.007588
   122  H    0.021339
   123  H    0.016824
   124  H    0.026262
   125  H    0.016353
   126  H    0.016884
   127  H    0.015486
   128  H    0.021324
   129  H    0.011204
   130  H    0.022549
   131  H    0.024801
   132  H    0.013411
   133  H    0.019865
   134  H    0.018630
   135  H    0.027929
   136  H    0.027878
   137  H    0.014856
   138  H    0.013933
   139  H    0.022171
   140  H    0.021074
 Sum of Mulliken charges =  -0.00000

 Dipole moment (field-independent basis, Debye):
    X=             -4.3994    Y=              1.6259    Z=              1.7758  Tot=              5.0151
 N-N= 4.160164106008D+03 E-N= 0.000000000000D+00  KE=-8.994782642059D+03
 Leave Link  601 at Wed May  4 00:15:36 2022, MaxMem=  6710886400 cpu:               0.8 elap:               0.1
 (Enter /sw/apps/gaussian-16.0/g16/l9999.exe)
 1\1\GINC-BP1-COMPUTE097\SP\RZINDO CIS\STO-3G\C55H74Mg1N4O6\OF15641\04-
 May-2022\0\\#p ZINDO=(nstates=5)\\step_1101_chromophore_7 ZINDO\\0,1\M
 g,0,25.529,0.087,29.271\C,0,27.289,-0.124,32.263\C,0,22.686,0.149,31.0
 95\C,0,23.869,0.544,26.269\C,0,28.468,-0.064,27.475\N,0,25.086,-0.055,
 31.427\C,0,25.946,0.006,32.5\C,0,25.244,0.069,33.881\C,0,23.726,-0.144
 ,33.435\C,0,23.815,0.007,31.916\C,0,23.036,-1.43,33.961\C,0,25.577,1.3
 39,34.778\C,0,26.119,1.062,36.196\C,0,25.074,0.642,37.274\O,0,24.102,-

 Normal termination of Gaussian 16 at Wed May  4 00:15:36 2022.
