 Gaussian 16, Revision A.03,
 Gaussian 16:  ES64L-G16RevA.03 25-Dec-2016

 ------------------------------
 #p blyp/Def2SVP td=(nstates=5)
 ------------------------------

 --------------------------------------------------
 step_351_chromophore_12 TDDFT with blyp functional
 --------------------------------------------------
 Symbolic Z-matrix:
 Charge =  0 Multiplicity = 1

                         Standard orientation:
 ---------------------------------------------------------------------
 Center     Atomic      Atomic             Coordinates (Angstroms)
 Number     Number       Type             X           Y           Z
 ---------------------------------------------------------------------
      1         12           0       -4.008410    0.260447   -0.452091
      2          6           0       -2.865992   -2.913881    0.541424
      3          6           0       -0.784241    1.405233   -0.012816
      4          6           0       -5.122622    3.259758   -1.206907
      5          6           0       -7.299744   -0.772124    0.386045
      6          7           0       -2.011062   -0.703930    0.111926
      7          6           0       -1.783118   -2.021139    0.313721
      8          6           0       -0.236852   -2.296503    0.291647
      9          6           0        0.342174   -0.825855    0.488391
     10          6           0       -0.917743    0.066910    0.318994
     11          6           0        1.007179   -0.598614    1.875610
     12          6           0        0.005722   -2.993516   -1.092127
     13          6           0        1.104576   -3.949356   -1.054325
     14          6           0        2.207163   -3.665053   -2.126754
     15          8           0        2.002698   -3.378530   -3.276110
     16          8           0        3.445985   -3.964530   -1.508988
     17          7           0       -3.066165    2.057320   -0.810433
     18          6           0       -1.763552    2.304598   -0.544768
     19          6           0       -1.556194    3.768165   -0.754622
     20          6           0       -2.739852    4.292182   -1.301760
     21          6           0       -3.713933    3.187003   -1.091241
     22          6           0       -0.259283    4.473484   -0.520580
     23          6           0       -2.995318    5.696414   -1.821942
     24          8           0       -4.060972    6.011851   -2.279136
     25          6           0       -1.944034    6.723867   -1.801813
     26          7           0       -5.966784    1.106273   -0.363109
     27          6           0       -6.147500    2.338806   -0.854973
     28          6           0       -7.677979    2.766885   -0.869269
     29          6           0       -8.369623    1.397172   -0.579939
     30          6           0       -7.171253    0.477307   -0.139283
     31          6           0       -7.981639    3.845155    0.199782
     32          6           0       -9.116017    0.755376   -1.825307
     33          6           0      -10.640302    1.103503   -2.020609
     34          7           0       -4.965570   -1.426542    0.343353
     35          6           0       -6.251776   -1.710273    0.626301
     36          6           0       -6.404660   -3.096537    1.078858
     37          6           0       -5.059752   -3.598728    1.080990
     38          6           0       -4.255377   -2.554016    0.658033
     39          6           0       -7.633032   -3.802865    1.476873
     40          6           0       -4.290666   -4.788016    1.235393
     41          8           0       -4.594676   -5.915186    1.522042
     42          6           0       -2.796821   -4.386391    0.908209
     43          6           0       -2.017463   -4.522780    2.064702
     44          8           0       -2.211254   -4.004535    3.170211
     45          8           0       -0.918469   -5.332142    1.757868
     46          6           0        0.070648   -5.424617    2.835883
     47          6           0        4.513628   -3.863782   -2.499462
     48          6           0        5.869398   -4.052610   -1.798056
     49          6           0        7.125748   -3.575140   -1.999027
     50          6           0        7.400912   -2.755808   -3.223282
     51          6           0        8.260060   -3.771094   -0.961283
     52          6           0        8.576919   -2.427533   -0.157613
     53          6           0        9.837443   -1.836356   -0.723783
     54          6           0        9.571457   -0.310495   -0.899518
     55          6           0       10.881193    0.344937   -1.542242
     56          6           0        9.273844    0.418115    0.424413
     57          6           0        8.517349    1.710458    0.004071
     58          6           0        8.757628    2.843289    1.019132
     59          6           0        7.540501    3.907340    0.997069
     60          6           0        8.164232    5.273398    1.290927
     61          6           0        6.509265    3.613859    2.066905
     62          6           0        5.076852    3.552865    1.454375
     63          6           0        4.124114    4.765680    1.866685
     64          6           0        3.102658    4.353507    2.933120
     65          6           0        2.119045    3.278970    2.205781
     66          6           0        2.239879    5.522077    3.403978
     67          1           0        0.081406    1.836560    0.494137
     68          1           0       -5.463883    4.254567   -1.500959
     69          1           0       -8.316352   -1.154633    0.501883
     70          1           0        0.110249   -2.965387    1.080282
     71          1           0        1.139600   -0.752419   -0.250085
     72          1           0        0.666901    0.349345    2.291362
     73          1           0        2.090514   -0.478946    1.881094
     74          1           0        0.764077   -1.451137    2.509808
     75          1           0        0.182807   -2.227694   -1.846553
     76          1           0       -0.893754   -3.530374   -1.395075
     77          1           0        0.593393   -4.868468   -1.339986
     78          1           0        1.546476   -4.048186   -0.063643
     79          1           0        0.210847    4.718113   -1.473659
     80          1           0        0.408890    3.902661    0.123376
     81          1           0       -0.415676    5.422122   -0.007916
     82          1           0       -1.699644    6.824890   -0.745151
     83          1           0       -2.333761    7.692942   -2.112802
     84          1           0       -1.113077    6.327657   -2.387107
     85          1           0       -7.940475    3.059542   -1.885917
     86          1           0       -9.046929    1.589156    0.252484
     87          1           0       -7.200660    4.558252    0.465109
     88          1           0       -8.265007    3.317167    1.109890
     89          1           0       -8.883203    4.380870   -0.099138
     90          1           0       -9.146445   -0.314385   -1.620232
     91          1           0       -8.600630    0.974288   -2.760180
     92          1           0      -10.875493    1.530671   -2.995327
     93          1           0      -10.824352    1.940257   -1.346492
     94          1           0      -11.361765    0.327753   -1.762248
     95          1           0       -8.484295   -3.136953    1.616147
     96          1           0       -7.365457   -4.307289    2.405213
     97          1           0       -7.828246   -4.510085    0.670851
     98          1           0       -2.385663   -4.924963    0.055358
     99          1           0        1.034385   -5.211153    2.374091
    100          1           0        0.158369   -6.429383    3.249096
    101          1           0       -0.094709   -4.764719    3.687078
    102          1           0        4.471084   -2.876289   -2.959735
    103          1           0        4.537794   -4.534196   -3.359367
    104          1           0        5.759549   -4.520804   -0.820072
    105          1           0        6.495868   -2.482130   -3.765702
    106          1           0        8.096098   -3.289009   -3.871485
    107          1           0        7.888161   -1.868821   -2.819142
    108          1           0        9.147719   -4.191298   -1.433549
    109          1           0        8.057712   -4.454744   -0.136960
    110          1           0        8.740807   -2.633370    0.900419
    111          1           0        7.771355   -1.693562   -0.137144
    112          1           0       10.011236   -2.134920   -1.757255
    113          1           0       10.613674   -2.002873    0.023599
    114          1           0        8.801340   -0.124447   -1.647307
    115          1           0       11.477050   -0.456366   -1.978113
    116          1           0       11.396484    1.099860   -0.948730
    117          1           0       10.483770    0.891273   -2.397507
    118          1           0       10.225910    0.524310    0.946560
    119          1           0        8.631542   -0.178769    1.071780
    120          1           0        7.488122    1.358663   -0.057619
    121          1           0        8.788311    2.006974   -1.008486
    122          1           0        9.700081    3.320368    0.747800
    123          1           0        8.857888    2.466202    2.036225
    124          1           0        7.073182    3.932295    0.013117
    125          1           0        8.645468    5.763706    0.444099
    126          1           0        8.843741    5.114907    2.127827
    127          1           0        7.379653    5.949876    1.629245
    128          1           0        6.521802    4.307447    2.907194
    129          1           0        6.625483    2.651472    2.565867
    130          1           0        4.627428    2.662176    1.892595
    131          1           0        5.095667    3.504579    0.366092
    132          1           0        3.639981    5.130645    0.961217
    133          1           0        4.638149    5.633089    2.281604
    134          1           0        3.598490    3.673702    3.625853
    135          1           0        2.448024    2.272343    2.463247
    136          1           0        2.115116    3.320311    1.116190
    137          1           0        1.126610    3.235862    2.654762
    138          1           0        2.030763    5.298440    4.449668
    139          1           0        1.304285    5.668934    2.864754
    140          1           0        2.838178    6.431515    3.455405
 ---------------------------------------------------------------------

 SCF Done:  E(RB-LYP) =  -3007.37086043     A.U. after   22 cycles

 Excitation energies and oscillator strengths:

 Excited State   1:      Singlet-A      1.8655 eV  664.62 nm  f=0.3005  <S**2>=0.000
     245 -> 248       -0.21113
     246 -> 247        0.68535
     246 <- 247       -0.14029
 This state for optimization and/or second-order correction.
 Total Energy, E(TD-HF/TD-DFT) =  -3007.30230517
 Copying the excited state density for this state as the 1-particle RhoCI density.

 Excited State   2:      Singlet-A      2.0454 eV  606.15 nm  f=0.0427  <S**2>=0.000
     244 -> 247        0.51421
     245 -> 247       -0.44948
     246 -> 248       -0.17121

 Excited State   3:      Singlet-A      2.0652 eV  600.34 nm  f=0.0474  <S**2>=0.000
     244 -> 247        0.48410
     245 -> 247        0.47027
     246 -> 248        0.19369

 Excited State   4:      Singlet-A      2.0926 eV  592.49 nm  f=0.0023  <S**2>=0.000
     243 -> 247        0.70302

 Excited State   5:      Singlet-A      2.3594 eV  525.49 nm  f=0.0000  <S**2>=0.000
     242 -> 247        0.70709

 The electronic state is 1-A.
 Alpha  occ. eigenvalues --  -46.27805 -18.83072 -18.82060 -18.78786 -18.76382
 Alpha  occ. eigenvalues --  -18.75606 -18.75500 -14.03114 -14.02989 -14.01660
 Alpha  occ. eigenvalues --  -14.00744 -10.04884 -10.03299  -9.99733  -9.99311
 Alpha  occ. eigenvalues --   -9.98208  -9.97127  -9.96634  -9.96586  -9.96324
 Alpha  occ. eigenvalues --   -9.96272  -9.96187  -9.95971  -9.95163  -9.94402
 Alpha  occ. eigenvalues --   -9.94256  -9.94244  -9.94150  -9.94016  -9.93956
 Alpha  occ. eigenvalues --   -9.93891  -9.93375  -9.93144  -9.93100  -9.93099
 Alpha  occ. eigenvalues --   -9.93036  -9.92965  -9.92935  -9.92929  -9.92762
 Alpha  occ. eigenvalues --   -9.92608  -9.92577  -9.92275  -9.92274  -9.92230
 Alpha  occ. eigenvalues --   -9.92223  -9.92120  -9.92116  -9.92002  -9.91989
 Alpha  occ. eigenvalues --   -9.91963  -9.91889  -9.91724  -9.91653  -9.91649
 Alpha  occ. eigenvalues --   -9.91561  -9.91547  -9.91502  -9.91494  -9.91492
 Alpha  occ. eigenvalues --   -9.91192  -9.91154  -9.91104  -9.90848  -9.90746
 Alpha  occ. eigenvalues --   -9.90539  -2.92367  -1.72791  -1.72252  -1.72074
 Alpha  occ. eigenvalues --   -0.98277  -0.96848  -0.92951  -0.92266  -0.91796
 Alpha  occ. eigenvalues --   -0.89038  -0.86999  -0.86264  -0.85770  -0.85087
 Alpha  occ. eigenvalues --   -0.75943  -0.73888  -0.73426  -0.73023  -0.72068
 Alpha  occ. eigenvalues --   -0.71865  -0.71393  -0.71172  -0.70982  -0.70693
 Alpha  occ. eigenvalues --   -0.69899  -0.69191  -0.68385  -0.67671  -0.66900
 Alpha  occ. eigenvalues --   -0.66236  -0.66139  -0.65735  -0.65071  -0.64276
 Alpha  occ. eigenvalues --   -0.64077  -0.62797  -0.62029  -0.61518  -0.60789
 Alpha  occ. eigenvalues --   -0.60706  -0.60492  -0.59793  -0.59582  -0.59147
 Alpha  occ. eigenvalues --   -0.57642  -0.57314  -0.56398  -0.54961  -0.54317
 Alpha  occ. eigenvalues --   -0.54058  -0.53414  -0.52888  -0.52570  -0.51901
 Alpha  occ. eigenvalues --   -0.51361  -0.51084  -0.51023  -0.50531  -0.50228
 Alpha  occ. eigenvalues --   -0.50153  -0.49462  -0.48919  -0.48371  -0.46834
 Alpha  occ. eigenvalues --   -0.46399  -0.46116  -0.45773  -0.45345  -0.45057
 Alpha  occ. eigenvalues --   -0.44278  -0.43825  -0.43017  -0.42672  -0.42474
 Alpha  occ. eigenvalues --   -0.41966  -0.41872  -0.41604  -0.41203  -0.41049
 Alpha  occ. eigenvalues --   -0.41014  -0.40718  -0.40645  -0.40463  -0.40404
 Alpha  occ. eigenvalues --   -0.40193  -0.40014  -0.39901  -0.39742  -0.39309
 Alpha  occ. eigenvalues --   -0.39070  -0.38700  -0.38616  -0.38526  -0.38313
 Alpha  occ. eigenvalues --   -0.38186  -0.38060  -0.37825  -0.37658  -0.37384
 Alpha  occ. eigenvalues --   -0.37053  -0.37023  -0.36899  -0.36810  -0.36570
 Alpha  occ. eigenvalues --   -0.36434  -0.36346  -0.35992  -0.35956  -0.35792
 Alpha  occ. eigenvalues --   -0.35675  -0.35477  -0.35206  -0.35006  -0.34869
 Alpha  occ. eigenvalues --   -0.34667  -0.34538  -0.34250  -0.34110  -0.34039
 Alpha  occ. eigenvalues --   -0.33820  -0.33614  -0.33450  -0.33321  -0.33215
 Alpha  occ. eigenvalues --   -0.33152  -0.32855  -0.32815  -0.32734  -0.32508
 Alpha  occ. eigenvalues --   -0.32217  -0.32164  -0.31945  -0.31883  -0.31658
 Alpha  occ. eigenvalues --   -0.31616  -0.31473  -0.31276  -0.31077  -0.30804
 Alpha  occ. eigenvalues --   -0.30675  -0.30592  -0.30425  -0.30229  -0.30124
 Alpha  occ. eigenvalues --   -0.29764  -0.29510  -0.29431  -0.29242  -0.29198
 Alpha  occ. eigenvalues --   -0.28980  -0.28893  -0.28469  -0.28380  -0.28124
 Alpha  occ. eigenvalues --   -0.27899  -0.27588  -0.27288  -0.27173  -0.26644
 Alpha  occ. eigenvalues --   -0.26416  -0.26338  -0.26293  -0.26212  -0.25374
 Alpha  occ. eigenvalues --   -0.25240  -0.24694  -0.24481  -0.23745  -0.23470
 Alpha  occ. eigenvalues --   -0.23224  -0.22919  -0.22183  -0.21837  -0.21164
 Alpha  occ. eigenvalues --   -0.20221  -0.19949  -0.18874  -0.18751  -0.17038
 Alpha  occ. eigenvalues --   -0.15804
 Alpha virt. eigenvalues --   -0.11278  -0.06568  -0.05969  -0.04467  -0.03690
 Alpha virt. eigenvalues --   -0.02978  -0.02560  -0.01303  -0.01157   0.00425
 Alpha virt. eigenvalues --    0.01240   0.01570   0.02031   0.02460   0.02676

 Mulliken charges:
               1
     1  Mg   0.704821
     2  C   -0.058011
     3  C   -0.066607
     4  C   -0.034413
     5  C   -0.079592
     6  N   -0.187651
     7  C   -0.074188
     8  C   -0.016096
     9  C   -0.008360
    10  C    0.033951
    11  C    0.103699
    12  C    0.109674
    13  C    0.163051
    14  C    0.070684
    15  O   -0.154519
    16  O   -0.280195
    17  N   -0.257768
    18  C    0.136580
    19  C   -0.174476
    20  C    0.042956
    21  C    0.070518
    22  C    0.200743
    23  C   -0.116353
    24  O   -0.141918
    25  C    0.174494
    26  N   -0.215953
    27  C    0.009713
    28  C    0.022914
    29  C    0.031489
    30  C    0.027660
    31  C    0.127627
    32  C    0.086497
    33  C    0.053232
    34  N   -0.231945
    35  C    0.100439
    36  C   -0.197719
    37  C    0.095201
    38  C    0.097785
    39  C    0.188955
    40  C   -0.081841
    41  O   -0.103461
    42  C    0.122179
    43  C    0.109044
    44  O   -0.188582
    45  O   -0.291275
    46  C    0.203416
    47  C    0.315956
    48  C   -0.114951
    49  C   -0.155448
    50  C    0.160731
    51  C    0.151646
    52  C    0.032110
    53  C    0.151473
    54  C   -0.189188
    55  C    0.115939
    56  C    0.096671
    57  C    0.060967
    58  C    0.115803
    59  C   -0.060322
    60  C    0.101809
    61  C    0.137401
    62  C    0.049513
    63  C    0.073006
    64  C   -0.079132
    65  C    0.013540
    66  C    0.141053
    67  H   -0.046687
    68  H   -0.047130
    69  H   -0.065581
    70  H   -0.022216
    71  H   -0.022766
    72  H   -0.001098
    73  H   -0.008726
    74  H   -0.002570
    75  H   -0.012622
    76  H   -0.022444
    77  H    0.008496
    78  H   -0.006115
    79  H    0.004291
    80  H   -0.033991
    81  H   -0.014482
    82  H   -0.000204
    83  H   -0.008018
    84  H    0.011932
    85  H   -0.022612
    86  H   -0.031490
    87  H    0.006961
    88  H   -0.014857
    89  H   -0.006502
    90  H   -0.020650
    91  H   -0.012423
    92  H   -0.008119
    93  H   -0.023360
    94  H    0.002696
    95  H   -0.014024
    96  H    0.020178
    97  H    0.011519
    98  H   -0.016420
    99  H    0.004019
   100  H    0.013658
   101  H    0.025670
   102  H   -0.006827
   103  H    0.009391
   104  H   -0.041694
   105  H   -0.016058
   106  H   -0.001619
   107  H   -0.017266
   108  H   -0.019739
   109  H   -0.042082
   110  H   -0.029062
   111  H   -0.011926
   112  H   -0.021193
   113  H   -0.030304
   114  H   -0.016475
   115  H   -0.022912
   116  H   -0.005286
   117  H   -0.031422
   118  H   -0.030545
   119  H   -0.035419
   120  H   -0.031717
   121  H   -0.024037
   122  H   -0.032421
   123  H   -0.028216
   124  H   -0.034284
   125  H   -0.016117
   126  H   -0.015495
   127  H   -0.028225
   128  H   -0.038165
   129  H   -0.047228
   130  H   -0.037320
   131  H   -0.024280
   132  H   -0.038004
   133  H   -0.030289
   134  H   -0.028859
   135  H   -0.027803
   136  H    0.029447
   137  H   -0.008689
   138  H   -0.018123
   139  H    0.003500
   140  H   -0.022529
 Sum of Mulliken charges =  -0.00000

 Dipole moment (field-independent basis, Debye):
    X=              3.6432    Y=              3.1550    Z=             -0.3435  Tot=              4.8317
 Quadrupole moment (field-independent basis, Debye-Ang):
   XX=           -373.1747   YY=           -433.4252   ZZ=           -416.5870
   XY=            -13.6465   XZ=              9.8690   YZ=             14.6349

 Normal termination of Gaussian 16 at Fri Apr 29 14:57:13 2022.
