 Gaussian 16, Revision A.03,
 Gaussian 16:  ES64L-G16RevA.03 25-Dec-2016

 -----------------------------------
 #p cam-b3lyp/Def2SVP td=(nstates=5)
 -----------------------------------

 -------------------------------------------------------
 step_351_chromophore_12 TDDFT with cam-b3lyp functional
 -------------------------------------------------------
 Symbolic Z-matrix:
 Charge =  0 Multiplicity = 1

                         Standard orientation:
 ---------------------------------------------------------------------
 Center     Atomic      Atomic             Coordinates (Angstroms)
 Number     Number       Type             X           Y           Z
 ---------------------------------------------------------------------
      1         12           0       -4.008410    0.260447   -0.452091
      2          6           0       -2.865992   -2.913881    0.541424
      3          6           0       -0.784241    1.405233   -0.012816
      4          6           0       -5.122622    3.259758   -1.206907
      5          6           0       -7.299744   -0.772124    0.386045
      6          7           0       -2.011062   -0.703930    0.111926
      7          6           0       -1.783118   -2.021139    0.313721
      8          6           0       -0.236852   -2.296503    0.291647
      9          6           0        0.342174   -0.825855    0.488391
     10          6           0       -0.917743    0.066910    0.318994
     11          6           0        1.007179   -0.598614    1.875610
     12          6           0        0.005722   -2.993516   -1.092127
     13          6           0        1.104576   -3.949356   -1.054325
     14          6           0        2.207163   -3.665053   -2.126754
     15          8           0        2.002698   -3.378530   -3.276110
     16          8           0        3.445985   -3.964530   -1.508988
     17          7           0       -3.066165    2.057320   -0.810433
     18          6           0       -1.763552    2.304598   -0.544768
     19          6           0       -1.556194    3.768165   -0.754622
     20          6           0       -2.739852    4.292182   -1.301760
     21          6           0       -3.713933    3.187003   -1.091241
     22          6           0       -0.259283    4.473484   -0.520580
     23          6           0       -2.995318    5.696414   -1.821942
     24          8           0       -4.060972    6.011851   -2.279136
     25          6           0       -1.944034    6.723867   -1.801813
     26          7           0       -5.966784    1.106273   -0.363109
     27          6           0       -6.147500    2.338806   -0.854973
     28          6           0       -7.677979    2.766885   -0.869269
     29          6           0       -8.369623    1.397172   -0.579939
     30          6           0       -7.171253    0.477307   -0.139283
     31          6           0       -7.981639    3.845155    0.199782
     32          6           0       -9.116017    0.755376   -1.825307
     33          6           0      -10.640302    1.103503   -2.020609
     34          7           0       -4.965570   -1.426542    0.343353
     35          6           0       -6.251776   -1.710273    0.626301
     36          6           0       -6.404660   -3.096537    1.078858
     37          6           0       -5.059752   -3.598728    1.080990
     38          6           0       -4.255377   -2.554016    0.658033
     39          6           0       -7.633032   -3.802865    1.476873
     40          6           0       -4.290666   -4.788016    1.235393
     41          8           0       -4.594676   -5.915186    1.522042
     42          6           0       -2.796821   -4.386391    0.908209
     43          6           0       -2.017463   -4.522780    2.064702
     44          8           0       -2.211254   -4.004535    3.170211
     45          8           0       -0.918469   -5.332142    1.757868
     46          6           0        0.070648   -5.424617    2.835883
     47          6           0        4.513628   -3.863782   -2.499462
     48          6           0        5.869398   -4.052610   -1.798056
     49          6           0        7.125748   -3.575140   -1.999027
     50          6           0        7.400912   -2.755808   -3.223282
     51          6           0        8.260060   -3.771094   -0.961283
     52          6           0        8.576919   -2.427533   -0.157613
     53          6           0        9.837443   -1.836356   -0.723783
     54          6           0        9.571457   -0.310495   -0.899518
     55          6           0       10.881193    0.344937   -1.542242
     56          6           0        9.273844    0.418115    0.424413
     57          6           0        8.517349    1.710458    0.004071
     58          6           0        8.757628    2.843289    1.019132
     59          6           0        7.540501    3.907340    0.997069
     60          6           0        8.164232    5.273398    1.290927
     61          6           0        6.509265    3.613859    2.066905
     62          6           0        5.076852    3.552865    1.454375
     63          6           0        4.124114    4.765680    1.866685
     64          6           0        3.102658    4.353507    2.933120
     65          6           0        2.119045    3.278970    2.205781
     66          6           0        2.239879    5.522077    3.403978
     67          1           0        0.081406    1.836560    0.494137
     68          1           0       -5.463883    4.254567   -1.500959
     69          1           0       -8.316352   -1.154633    0.501883
     70          1           0        0.110249   -2.965387    1.080282
     71          1           0        1.139600   -0.752419   -0.250085
     72          1           0        0.666901    0.349345    2.291362
     73          1           0        2.090514   -0.478946    1.881094
     74          1           0        0.764077   -1.451137    2.509808
     75          1           0        0.182807   -2.227694   -1.846553
     76          1           0       -0.893754   -3.530374   -1.395075
     77          1           0        0.593393   -4.868468   -1.339986
     78          1           0        1.546476   -4.048186   -0.063643
     79          1           0        0.210847    4.718113   -1.473659
     80          1           0        0.408890    3.902661    0.123376
     81          1           0       -0.415676    5.422122   -0.007916
     82          1           0       -1.699644    6.824890   -0.745151
     83          1           0       -2.333761    7.692942   -2.112802
     84          1           0       -1.113077    6.327657   -2.387107
     85          1           0       -7.940475    3.059542   -1.885917
     86          1           0       -9.046929    1.589156    0.252484
     87          1           0       -7.200660    4.558252    0.465109
     88          1           0       -8.265007    3.317167    1.109890
     89          1           0       -8.883203    4.380870   -0.099138
     90          1           0       -9.146445   -0.314385   -1.620232
     91          1           0       -8.600630    0.974288   -2.760180
     92          1           0      -10.875493    1.530671   -2.995327
     93          1           0      -10.824352    1.940257   -1.346492
     94          1           0      -11.361765    0.327753   -1.762248
     95          1           0       -8.484295   -3.136953    1.616147
     96          1           0       -7.365457   -4.307289    2.405213
     97          1           0       -7.828246   -4.510085    0.670851
     98          1           0       -2.385663   -4.924963    0.055358
     99          1           0        1.034385   -5.211153    2.374091
    100          1           0        0.158369   -6.429383    3.249096
    101          1           0       -0.094709   -4.764719    3.687078
    102          1           0        4.471084   -2.876289   -2.959735
    103          1           0        4.537794   -4.534196   -3.359367
    104          1           0        5.759549   -4.520804   -0.820072
    105          1           0        6.495868   -2.482130   -3.765702
    106          1           0        8.096098   -3.289009   -3.871485
    107          1           0        7.888161   -1.868821   -2.819142
    108          1           0        9.147719   -4.191298   -1.433549
    109          1           0        8.057712   -4.454744   -0.136960
    110          1           0        8.740807   -2.633370    0.900419
    111          1           0        7.771355   -1.693562   -0.137144
    112          1           0       10.011236   -2.134920   -1.757255
    113          1           0       10.613674   -2.002873    0.023599
    114          1           0        8.801340   -0.124447   -1.647307
    115          1           0       11.477050   -0.456366   -1.978113
    116          1           0       11.396484    1.099860   -0.948730
    117          1           0       10.483770    0.891273   -2.397507
    118          1           0       10.225910    0.524310    0.946560
    119          1           0        8.631542   -0.178769    1.071780
    120          1           0        7.488122    1.358663   -0.057619
    121          1           0        8.788311    2.006974   -1.008486
    122          1           0        9.700081    3.320368    0.747800
    123          1           0        8.857888    2.466202    2.036225
    124          1           0        7.073182    3.932295    0.013117
    125          1           0        8.645468    5.763706    0.444099
    126          1           0        8.843741    5.114907    2.127827
    127          1           0        7.379653    5.949876    1.629245
    128          1           0        6.521802    4.307447    2.907194
    129          1           0        6.625483    2.651472    2.565867
    130          1           0        4.627428    2.662176    1.892595
    131          1           0        5.095667    3.504579    0.366092
    132          1           0        3.639981    5.130645    0.961217
    133          1           0        4.638149    5.633089    2.281604
    134          1           0        3.598490    3.673702    3.625853
    135          1           0        2.448024    2.272343    2.463247
    136          1           0        2.115116    3.320311    1.116190
    137          1           0        1.126610    3.235862    2.654762
    138          1           0        2.030763    5.298440    4.449668
    139          1           0        1.304285    5.668934    2.864754
    140          1           0        2.838178    6.431515    3.455405
 ---------------------------------------------------------------------

 SCF Done:  E(RCAM-B3LYP) =  -3007.16903014     A.U. after   18 cycles

 Excitation energies and oscillator strengths:

 Excited State   1:      Singlet-A      1.7950 eV  690.72 nm  f=0.3737  <S**2>=0.000
     245 -> 248       -0.18663
     246 -> 247        0.68413
     245 <- 248       -0.10631
 This state for optimization and/or second-order correction.
 Total Energy, E(TD-HF/TD-DFT) =  -3007.10306495
 Copying the excited state density for this state as the 1-particle RhoCI density.

 Excited State   2:      Singlet-A      2.2617 eV  548.20 nm  f=0.1300  <S**2>=0.000
     245 -> 247        0.64314
     246 -> 248        0.28528

 Excited State   3:      Singlet-A      3.5102 eV  353.21 nm  f=0.0131  <S**2>=0.000
     241 -> 247       -0.15067
     244 -> 247        0.67747

 Excited State   4:      Singlet-A      3.6147 eV  343.00 nm  f=0.6422  <S**2>=0.000
     240 -> 247       -0.13325
     241 -> 247       -0.19417
     245 -> 247       -0.25377
     246 -> 248        0.60370
     245 <- 247        0.10610

 Excited State   5:      Singlet-A      3.7346 eV  331.99 nm  f=0.0436  <S**2>=0.000
     240 -> 247        0.21371
     240 -> 249       -0.10464
     241 -> 247        0.18017
     242 -> 247        0.50957
     242 -> 249        0.21213
     242 -> 250       -0.12906
     242 -> 251        0.18363
     246 -> 248        0.10860

 The electronic state is 1-A.
 Alpha  occ. eigenvalues --  -46.89377 -19.25946 -19.25058 -19.21827 -19.19478
 Alpha  occ. eigenvalues --  -19.19046 -19.18436 -14.42060 -14.41773 -14.40350
 Alpha  occ. eigenvalues --  -14.38898 -10.40260 -10.38812 -10.35155 -10.34312
 Alpha  occ. eigenvalues --  -10.32263 -10.31415 -10.31275 -10.31152 -10.31097
 Alpha  occ. eigenvalues --  -10.31054 -10.30893 -10.30032 -10.29351 -10.28826
 Alpha  occ. eigenvalues --  -10.28390 -10.28351 -10.28286 -10.28257 -10.27943
 Alpha  occ. eigenvalues --  -10.27854 -10.27643 -10.27271 -10.27252 -10.27218
 Alpha  occ. eigenvalues --  -10.27205 -10.27080 -10.27047 -10.27022 -10.26704
 Alpha  occ. eigenvalues --  -10.26410 -10.26397 -10.26357 -10.26130 -10.26096
 Alpha  occ. eigenvalues --  -10.26086 -10.25950 -10.25942 -10.25807 -10.25797
 Alpha  occ. eigenvalues --  -10.25573 -10.25508 -10.25467 -10.25462 -10.25392
 Alpha  occ. eigenvalues --  -10.25384 -10.25369 -10.25342 -10.25286 -10.25282
 Alpha  occ. eigenvalues --  -10.24931 -10.24890 -10.24792 -10.24520 -10.24409
 Alpha  occ. eigenvalues --  -10.24118  -3.17838  -1.92740  -1.92287  -1.92139
 Alpha  occ. eigenvalues --   -1.16771  -1.15396  -1.11748  -1.10404  -1.09666
 Alpha  occ. eigenvalues --   -1.06967  -1.05015  -1.03794  -1.03411  -1.02467
 Alpha  occ. eigenvalues --   -0.92943  -0.90821  -0.90237  -0.89907  -0.88868
 Alpha  occ. eigenvalues --   -0.88829  -0.88057  -0.87936  -0.87863  -0.87222
 Alpha  occ. eigenvalues --   -0.86057  -0.85646  -0.84701  -0.83845  -0.83155
 Alpha  occ. eigenvalues --   -0.82627  -0.82196  -0.81655  -0.80921  -0.80142
 Alpha  occ. eigenvalues --   -0.79880  -0.78798  -0.77589  -0.76941  -0.76321
 Alpha  occ. eigenvalues --   -0.76078  -0.75893  -0.75093  -0.74977  -0.74456
 Alpha  occ. eigenvalues --   -0.72621  -0.72177  -0.71289  -0.69736  -0.68824
 Alpha  occ. eigenvalues --   -0.68491  -0.68030  -0.67710  -0.67012  -0.66266
 Alpha  occ. eigenvalues --   -0.65505  -0.65250  -0.64974  -0.64706  -0.64203
 Alpha  occ. eigenvalues --   -0.64037  -0.63525  -0.62867  -0.62102  -0.60716
 Alpha  occ. eigenvalues --   -0.60043  -0.59620  -0.59276  -0.58942  -0.58452
 Alpha  occ. eigenvalues --   -0.57572  -0.57127  -0.56387  -0.55902  -0.55572
 Alpha  occ. eigenvalues --   -0.55306  -0.55058  -0.55013  -0.54209  -0.54193
 Alpha  occ. eigenvalues --   -0.54050  -0.53413  -0.53340  -0.53248  -0.53145
 Alpha  occ. eigenvalues --   -0.53056  -0.52650  -0.52528  -0.52306  -0.52097
 Alpha  occ. eigenvalues --   -0.51781  -0.51286  -0.51118  -0.50862  -0.50836
 Alpha  occ. eigenvalues --   -0.50585  -0.50492  -0.50265  -0.50082  -0.49959
 Alpha  occ. eigenvalues --   -0.49551  -0.49419  -0.49221  -0.49061  -0.48953
 Alpha  occ. eigenvalues --   -0.48930  -0.48750  -0.48426  -0.48158  -0.47983
 Alpha  occ. eigenvalues --   -0.47809  -0.47671  -0.47181  -0.47027  -0.46866
 Alpha  occ. eigenvalues --   -0.46598  -0.46420  -0.46152  -0.45948  -0.45871
 Alpha  occ. eigenvalues --   -0.45675  -0.45436  -0.45310  -0.44939  -0.44916
 Alpha  occ. eigenvalues --   -0.44867  -0.44580  -0.44441  -0.44394  -0.44161
 Alpha  occ. eigenvalues --   -0.43969  -0.43840  -0.43714  -0.43505  -0.43233
 Alpha  occ. eigenvalues --   -0.43114  -0.42868  -0.42776  -0.42700  -0.42457
 Alpha  occ. eigenvalues --   -0.42393  -0.41981  -0.41903  -0.41693  -0.41399
 Alpha  occ. eigenvalues --   -0.41107  -0.40938  -0.40646  -0.40343  -0.40239
 Alpha  occ. eigenvalues --   -0.40111  -0.39933  -0.39506  -0.39361  -0.39107
 Alpha  occ. eigenvalues --   -0.38851  -0.38493  -0.38139  -0.38109  -0.37844
 Alpha  occ. eigenvalues --   -0.37815  -0.37235  -0.37066  -0.36951  -0.36343
 Alpha  occ. eigenvalues --   -0.36032  -0.36006  -0.35216  -0.35006  -0.34437
 Alpha  occ. eigenvalues --   -0.34145  -0.33217  -0.33022  -0.31701  -0.31200
 Alpha  occ. eigenvalues --   -0.30800  -0.30548  -0.29536  -0.29050  -0.23760
 Alpha  occ. eigenvalues --   -0.21211
 Alpha virt. eigenvalues --   -0.08295  -0.01418   0.00531   0.02032   0.02715
 Alpha virt. eigenvalues --    0.04143   0.05141   0.05879   0.06350   0.06586
 Alpha virt. eigenvalues --    0.07757   0.08222   0.08531   0.08672   0.08855

 Mulliken charges:
               1
     1  Mg   0.835382
     2  C   -0.078632
     3  C   -0.069599
     4  C   -0.059857
     5  C   -0.078932
     6  N   -0.254161
     7  C   -0.045776
     8  C   -0.051337
     9  C   -0.066119
    10  C    0.054505
    11  C    0.054341
    12  C    0.056172
    13  C    0.092177
    14  C    0.153101
    15  O   -0.195213
    16  O   -0.345251
    17  N   -0.350496
    18  C    0.151879
    19  C   -0.177664
    20  C   -0.022107
    21  C    0.103338
    22  C    0.146144
    23  C   -0.032598
    24  O   -0.180796
    25  C    0.086511
    26  N   -0.288467
    27  C    0.035190
    28  C   -0.029588
    29  C   -0.019447
    30  C    0.035624
    31  C    0.067967
    32  C    0.031269
    33  C   -0.004910
    34  N   -0.319673
    35  C    0.099005
    36  C   -0.193935
    37  C    0.013839
    38  C    0.132812
    39  C    0.136154
    40  C    0.016225
    41  O   -0.145323
    42  C    0.035309
    43  C    0.202196
    44  O   -0.225897
    45  O   -0.354012
    46  C    0.164670
    47  C    0.282592
    48  C   -0.132752
    49  C   -0.178661
    50  C    0.104216
    51  C    0.092645
    52  C   -0.025623
    53  C    0.094448
    54  C   -0.239827
    55  C    0.057862
    56  C    0.044215
    57  C    0.010932
    58  C    0.063313
    59  C   -0.119532
    60  C    0.046440
    61  C    0.084003
    62  C   -0.008392
    63  C    0.024651
    64  C   -0.132946
    65  C   -0.043540
    66  C    0.077411
    67  H   -0.020987
    68  H   -0.007431
    69  H   -0.031220
    70  H    0.006068
    71  H    0.012445
    72  H    0.019389
    73  H    0.015557
    74  H    0.022114
    75  H    0.019715
    76  H    0.009492
    77  H    0.041416
    78  H    0.026202
    79  H    0.033033
    80  H   -0.009954
    81  H    0.012723
    82  H    0.027052
    83  H    0.029952
    84  H    0.038399
    85  H    0.012424
    86  H    0.003994
    87  H    0.032240
    88  H    0.010284
    89  H    0.018551
    90  H    0.009061
    91  H    0.014518
    92  H    0.015493
    93  H   -0.002322
    94  H    0.025881
    95  H    0.008448
    96  H    0.043693
    97  H    0.035646
    98  H    0.029344
    99  H    0.022479
   100  H    0.036994
   101  H    0.052946
   102  H    0.020034
   103  H    0.036605
   104  H   -0.007942
   105  H    0.008702
   106  H    0.023099
   107  H   -0.000363
   108  H    0.010032
   109  H   -0.008433
   110  H    0.000983
   111  H    0.015416
   112  H    0.005375
   113  H    0.000387
   114  H    0.011917
   115  H    0.003444
   116  H    0.018107
   117  H   -0.007686
   118  H   -0.002180
   119  H   -0.006771
   120  H   -0.005376
   121  H    0.002468
   122  H   -0.003380
   123  H   -0.000677
   124  H   -0.003000
   125  H    0.009404
   126  H    0.007677
   127  H   -0.005095
   128  H   -0.008241
   129  H   -0.016556
   130  H   -0.008457
   131  H    0.003649
   132  H   -0.010307
   133  H   -0.004866
   134  H    0.003129
   135  H   -0.005999
   136  H    0.045359
   137  H    0.014893
   138  H    0.008402
   139  H    0.024465
   140  H    0.002669
 Sum of Mulliken charges =  -0.00000

 Dipole moment (field-independent basis, Debye):
    X=              4.3943    Y=              4.3605    Z=             -0.4790  Tot=              6.2091
 Quadrupole moment (field-independent basis, Debye-Ang):
   XX=           -375.2151   YY=           -430.0936   ZZ=           -416.9136
   XY=            -17.5723   XZ=             11.7558   YZ=             13.8937

 Normal termination of Gaussian 16 at Fri Apr 29 13:48:35 2022.
