 Gaussian 16, Revision A.03,
 Gaussian 16:  ES64L-G16RevA.03 25-Dec-2016

 ---------------------------------
 #p PBE1PBE/Def2SVP td=(nstates=5)
 ---------------------------------

 -----------------------------------------------------
 step_351_chromophore_12 TDDFT with PBE1PBE functional
 -----------------------------------------------------
 Symbolic Z-matrix:
 Charge =  0 Multiplicity = 1

                         Standard orientation:
 ---------------------------------------------------------------------
 Center     Atomic      Atomic             Coordinates (Angstroms)
 Number     Number       Type             X           Y           Z
 ---------------------------------------------------------------------
      1         12           0       -4.008410    0.260447   -0.452091
      2          6           0       -2.865992   -2.913881    0.541424
      3          6           0       -0.784241    1.405233   -0.012816
      4          6           0       -5.122622    3.259758   -1.206907
      5          6           0       -7.299744   -0.772124    0.386045
      6          7           0       -2.011062   -0.703930    0.111926
      7          6           0       -1.783118   -2.021139    0.313721
      8          6           0       -0.236852   -2.296503    0.291647
      9          6           0        0.342174   -0.825855    0.488391
     10          6           0       -0.917743    0.066910    0.318994
     11          6           0        1.007179   -0.598614    1.875610
     12          6           0        0.005722   -2.993516   -1.092127
     13          6           0        1.104576   -3.949356   -1.054325
     14          6           0        2.207163   -3.665053   -2.126754
     15          8           0        2.002698   -3.378530   -3.276110
     16          8           0        3.445985   -3.964530   -1.508988
     17          7           0       -3.066165    2.057320   -0.810433
     18          6           0       -1.763552    2.304598   -0.544768
     19          6           0       -1.556194    3.768165   -0.754622
     20          6           0       -2.739852    4.292182   -1.301760
     21          6           0       -3.713933    3.187003   -1.091241
     22          6           0       -0.259283    4.473484   -0.520580
     23          6           0       -2.995318    5.696414   -1.821942
     24          8           0       -4.060972    6.011851   -2.279136
     25          6           0       -1.944034    6.723867   -1.801813
     26          7           0       -5.966784    1.106273   -0.363109
     27          6           0       -6.147500    2.338806   -0.854973
     28          6           0       -7.677979    2.766885   -0.869269
     29          6           0       -8.369623    1.397172   -0.579939
     30          6           0       -7.171253    0.477307   -0.139283
     31          6           0       -7.981639    3.845155    0.199782
     32          6           0       -9.116017    0.755376   -1.825307
     33          6           0      -10.640302    1.103503   -2.020609
     34          7           0       -4.965570   -1.426542    0.343353
     35          6           0       -6.251776   -1.710273    0.626301
     36          6           0       -6.404660   -3.096537    1.078858
     37          6           0       -5.059752   -3.598728    1.080990
     38          6           0       -4.255377   -2.554016    0.658033
     39          6           0       -7.633032   -3.802865    1.476873
     40          6           0       -4.290666   -4.788016    1.235393
     41          8           0       -4.594676   -5.915186    1.522042
     42          6           0       -2.796821   -4.386391    0.908209
     43          6           0       -2.017463   -4.522780    2.064702
     44          8           0       -2.211254   -4.004535    3.170211
     45          8           0       -0.918469   -5.332142    1.757868
     46          6           0        0.070648   -5.424617    2.835883
     47          6           0        4.513628   -3.863782   -2.499462
     48          6           0        5.869398   -4.052610   -1.798056
     49          6           0        7.125748   -3.575140   -1.999027
     50          6           0        7.400912   -2.755808   -3.223282
     51          6           0        8.260060   -3.771094   -0.961283
     52          6           0        8.576919   -2.427533   -0.157613
     53          6           0        9.837443   -1.836356   -0.723783
     54          6           0        9.571457   -0.310495   -0.899518
     55          6           0       10.881193    0.344937   -1.542242
     56          6           0        9.273844    0.418115    0.424413
     57          6           0        8.517349    1.710458    0.004071
     58          6           0        8.757628    2.843289    1.019132
     59          6           0        7.540501    3.907340    0.997069
     60          6           0        8.164232    5.273398    1.290927
     61          6           0        6.509265    3.613859    2.066905
     62          6           0        5.076852    3.552865    1.454375
     63          6           0        4.124114    4.765680    1.866685
     64          6           0        3.102658    4.353507    2.933120
     65          6           0        2.119045    3.278970    2.205781
     66          6           0        2.239879    5.522077    3.403978
     67          1           0        0.081406    1.836560    0.494137
     68          1           0       -5.463883    4.254567   -1.500959
     69          1           0       -8.316352   -1.154633    0.501883
     70          1           0        0.110249   -2.965387    1.080282
     71          1           0        1.139600   -0.752419   -0.250085
     72          1           0        0.666901    0.349345    2.291362
     73          1           0        2.090514   -0.478946    1.881094
     74          1           0        0.764077   -1.451137    2.509808
     75          1           0        0.182807   -2.227694   -1.846553
     76          1           0       -0.893754   -3.530374   -1.395075
     77          1           0        0.593393   -4.868468   -1.339986
     78          1           0        1.546476   -4.048186   -0.063643
     79          1           0        0.210847    4.718113   -1.473659
     80          1           0        0.408890    3.902661    0.123376
     81          1           0       -0.415676    5.422122   -0.007916
     82          1           0       -1.699644    6.824890   -0.745151
     83          1           0       -2.333761    7.692942   -2.112802
     84          1           0       -1.113077    6.327657   -2.387107
     85          1           0       -7.940475    3.059542   -1.885917
     86          1           0       -9.046929    1.589156    0.252484
     87          1           0       -7.200660    4.558252    0.465109
     88          1           0       -8.265007    3.317167    1.109890
     89          1           0       -8.883203    4.380870   -0.099138
     90          1           0       -9.146445   -0.314385   -1.620232
     91          1           0       -8.600630    0.974288   -2.760180
     92          1           0      -10.875493    1.530671   -2.995327
     93          1           0      -10.824352    1.940257   -1.346492
     94          1           0      -11.361765    0.327753   -1.762248
     95          1           0       -8.484295   -3.136953    1.616147
     96          1           0       -7.365457   -4.307289    2.405213
     97          1           0       -7.828246   -4.510085    0.670851
     98          1           0       -2.385663   -4.924963    0.055358
     99          1           0        1.034385   -5.211153    2.374091
    100          1           0        0.158369   -6.429383    3.249096
    101          1           0       -0.094709   -4.764719    3.687078
    102          1           0        4.471084   -2.876289   -2.959735
    103          1           0        4.537794   -4.534196   -3.359367
    104          1           0        5.759549   -4.520804   -0.820072
    105          1           0        6.495868   -2.482130   -3.765702
    106          1           0        8.096098   -3.289009   -3.871485
    107          1           0        7.888161   -1.868821   -2.819142
    108          1           0        9.147719   -4.191298   -1.433549
    109          1           0        8.057712   -4.454744   -0.136960
    110          1           0        8.740807   -2.633370    0.900419
    111          1           0        7.771355   -1.693562   -0.137144
    112          1           0       10.011236   -2.134920   -1.757255
    113          1           0       10.613674   -2.002873    0.023599
    114          1           0        8.801340   -0.124447   -1.647307
    115          1           0       11.477050   -0.456366   -1.978113
    116          1           0       11.396484    1.099860   -0.948730
    117          1           0       10.483770    0.891273   -2.397507
    118          1           0       10.225910    0.524310    0.946560
    119          1           0        8.631542   -0.178769    1.071780
    120          1           0        7.488122    1.358663   -0.057619
    121          1           0        8.788311    2.006974   -1.008486
    122          1           0        9.700081    3.320368    0.747800
    123          1           0        8.857888    2.466202    2.036225
    124          1           0        7.073182    3.932295    0.013117
    125          1           0        8.645468    5.763706    0.444099
    126          1           0        8.843741    5.114907    2.127827
    127          1           0        7.379653    5.949876    1.629245
    128          1           0        6.521802    4.307447    2.907194
    129          1           0        6.625483    2.651472    2.565867
    130          1           0        4.627428    2.662176    1.892595
    131          1           0        5.095667    3.504579    0.366092
    132          1           0        3.639981    5.130645    0.961217
    133          1           0        4.638149    5.633089    2.281604
    134          1           0        3.598490    3.673702    3.625853
    135          1           0        2.448024    2.272343    2.463247
    136          1           0        2.115116    3.320311    1.116190
    137          1           0        1.126610    3.235862    2.654762
    138          1           0        2.030763    5.298440    4.449668
    139          1           0        1.304285    5.668934    2.864754
    140          1           0        2.838178    6.431515    3.455405
 ---------------------------------------------------------------------

 SCF Done:  E(RPBE1PBE) =  -3005.35784079     A.U. after   16 cycles

 Excitation energies and oscillator strengths:

 Excited State   1:      Singlet-A      1.9207 eV  645.51 nm  f=0.3637  <S**2>=0.000
     245 -> 248       -0.18599
     246 -> 247        0.68946
 This state for optimization and/or second-order correction.
 Total Energy, E(TD-HF/TD-DFT) =  -3005.28725566
 Copying the excited state density for this state as the 1-particle RhoCI density.

 Excited State   2:      Singlet-A      2.2665 eV  547.04 nm  f=0.1258  <S**2>=0.000
     245 -> 247        0.65340
     246 -> 248        0.26690

 Excited State   3:      Singlet-A      3.1266 eV  396.55 nm  f=0.0063  <S**2>=0.000
     242 -> 247        0.10616
     243 -> 247        0.68412

 Excited State   4:      Singlet-A      3.1751 eV  390.49 nm  f=0.0004  <S**2>=0.000
     242 -> 247        0.67080
     242 -> 249        0.14380
     242 -> 250        0.10404
     243 -> 247       -0.11108

 Excited State   5:      Singlet-A      3.2175 eV  385.35 nm  f=0.0005  <S**2>=0.000
     241 -> 247        0.67401
     241 -> 249       -0.16091

 The electronic state is 1-A.
 Alpha  occ. eigenvalues --  -46.92773 -19.26691 -19.25751 -19.22112 -19.19758
 Alpha  occ. eigenvalues --  -19.19028 -19.18908 -14.41504 -14.41314 -14.39829
 Alpha  occ. eigenvalues --  -14.38725 -10.37357 -10.35829 -10.32051 -10.31661
 Alpha  occ. eigenvalues --  -10.29684 -10.28928 -10.28855 -10.28601 -10.28539
 Alpha  occ. eigenvalues --  -10.28437 -10.28424 -10.27994 -10.26923 -10.26655
 Alpha  occ. eigenvalues --  -10.26292 -10.26232 -10.26174 -10.26121 -10.25758
 Alpha  occ. eigenvalues --  -10.25696 -10.25332 -10.25040 -10.24936 -10.24814
 Alpha  occ. eigenvalues --  -10.24782 -10.24660 -10.24573 -10.24421 -10.24413
 Alpha  occ. eigenvalues --  -10.24019 -10.24007 -10.23860 -10.23763 -10.23557
 Alpha  occ. eigenvalues --  -10.23510 -10.23482 -10.23467 -10.23382 -10.23301
 Alpha  occ. eigenvalues --  -10.23109 -10.23072 -10.23069 -10.22961 -10.22947
 Alpha  occ. eigenvalues --  -10.22883 -10.22862 -10.22832 -10.22800 -10.22716
 Alpha  occ. eigenvalues --  -10.22459 -10.22455 -10.22357 -10.22171 -10.21955
 Alpha  occ. eigenvalues --  -10.21761  -3.14815  -1.87656  -1.87183  -1.87039
 Alpha  occ. eigenvalues --   -1.11594  -1.10174  -1.06284  -1.05395  -1.04586
 Alpha  occ. eigenvalues --   -1.01811  -0.99471  -0.98534  -0.98036  -0.97242
 Alpha  occ. eigenvalues --   -0.87448  -0.84902  -0.84470  -0.83963  -0.82972
 Alpha  occ. eigenvalues --   -0.82945  -0.82280  -0.82090  -0.81945  -0.81592
 Alpha  occ. eigenvalues --   -0.80625  -0.79887  -0.78855  -0.78198  -0.77334
 Alpha  occ. eigenvalues --   -0.76676  -0.76365  -0.75997  -0.75147  -0.74439
 Alpha  occ. eigenvalues --   -0.74056  -0.72948  -0.71905  -0.71295  -0.70418
 Alpha  occ. eigenvalues --   -0.70354  -0.70045  -0.69429  -0.69071  -0.68587
 Alpha  occ. eigenvalues --   -0.67020  -0.66675  -0.65720  -0.64044  -0.63197
 Alpha  occ. eigenvalues --   -0.63121  -0.62226  -0.61955  -0.61238  -0.60398
 Alpha  occ. eigenvalues --   -0.59970  -0.59714  -0.59437  -0.58806  -0.58740
 Alpha  occ. eigenvalues --   -0.58531  -0.57654  -0.57030  -0.56726  -0.55100
 Alpha  occ. eigenvalues --   -0.54528  -0.54129  -0.53848  -0.53430  -0.53083
 Alpha  occ. eigenvalues --   -0.52300  -0.51622  -0.50839  -0.50351  -0.50077
 Alpha  occ. eigenvalues --   -0.49876  -0.49677  -0.49426  -0.48745  -0.48425
 Alpha  occ. eigenvalues --   -0.48281  -0.47970  -0.47940  -0.47727  -0.47645
 Alpha  occ. eigenvalues --   -0.47617  -0.47102  -0.47016  -0.46874  -0.46671
 Alpha  occ. eigenvalues --   -0.46408  -0.45826  -0.45637  -0.45493  -0.45350
 Alpha  occ. eigenvalues --   -0.45251  -0.44970  -0.44738  -0.44590  -0.44496
 Alpha  occ. eigenvalues --   -0.44091  -0.44012  -0.43826  -0.43673  -0.43535
 Alpha  occ. eigenvalues --   -0.43485  -0.43308  -0.43005  -0.42721  -0.42554
 Alpha  occ. eigenvalues --   -0.42412  -0.42321  -0.41873  -0.41745  -0.41561
 Alpha  occ. eigenvalues --   -0.41310  -0.41065  -0.40926  -0.40703  -0.40618
 Alpha  occ. eigenvalues --   -0.40361  -0.40133  -0.39949  -0.39789  -0.39704
 Alpha  occ. eigenvalues --   -0.39547  -0.39363  -0.39232  -0.39093  -0.38969
 Alpha  occ. eigenvalues --   -0.38675  -0.38569  -0.38464  -0.38334  -0.38070
 Alpha  occ. eigenvalues --   -0.37985  -0.37628  -0.37546  -0.37407  -0.37220
 Alpha  occ. eigenvalues --   -0.37147  -0.36808  -0.36625  -0.36587  -0.36145
 Alpha  occ. eigenvalues --   -0.35971  -0.35809  -0.35359  -0.35116  -0.35093
 Alpha  occ. eigenvalues --   -0.35021  -0.34657  -0.34486  -0.34120  -0.33939
 Alpha  occ. eigenvalues --   -0.33742  -0.33437  -0.33026  -0.32880  -0.32841
 Alpha  occ. eigenvalues --   -0.32701  -0.32127  -0.31991  -0.31844  -0.31358
 Alpha  occ. eigenvalues --   -0.31056  -0.30913  -0.30182  -0.29950  -0.29440
 Alpha  occ. eigenvalues --   -0.29189  -0.28647  -0.28237  -0.27029  -0.26323
 Alpha  occ. eigenvalues --   -0.25859  -0.25659  -0.24993  -0.24837  -0.20693
 Alpha  occ. eigenvalues --   -0.18777
 Alpha virt. eigenvalues --   -0.10826  -0.04934  -0.03653  -0.01878  -0.00662
 Alpha virt. eigenvalues --   -0.00408   0.00426   0.01503   0.01885   0.03321
 Alpha virt. eigenvalues --    0.03981   0.04553   0.04743   0.05401   0.05497

 Mulliken charges:
               1
     1  Mg   0.979594
     2  C   -0.093804
     3  C   -0.061406
     4  C   -0.047778
     5  C   -0.069390
     6  N   -0.355056
     7  C    0.020116
     8  C   -0.119712
     9  C   -0.144710
    10  C    0.086549
    11  C    0.000598
    12  C    0.012490
    13  C    0.009198
    14  C    0.218158
    15  O   -0.227439
    16  O   -0.374827
    17  N   -0.471751
    18  C    0.178955
    19  C   -0.210053
    20  C   -0.066049
    21  C    0.130335
    22  C    0.074510
    23  C    0.021381
    24  O   -0.220265
    25  C    0.007114
    26  N   -0.390634
    27  C    0.066303
    28  C   -0.100837
    29  C   -0.093070
    30  C    0.070912
    31  C    0.010100
    32  C   -0.029796
    33  C   -0.074592
    34  N   -0.446483
    35  C    0.125041
    36  C   -0.207096
    37  C   -0.032496
    38  C    0.190481
    39  C    0.078959
    40  C    0.111426
    41  O   -0.191966
    42  C   -0.079550
    43  C    0.297487
    44  O   -0.261044
    45  O   -0.384974
    46  C    0.107346
    47  C    0.239125
    48  C   -0.135294
    49  C   -0.230746
    50  C    0.034490
    51  C    0.030651
    52  C   -0.087915
    53  C    0.036418
    54  C   -0.332682
    55  C    0.001386
    56  C   -0.004700
    57  C   -0.050711
    58  C    0.007711
    59  C   -0.208577
    60  C   -0.017151
    61  C    0.038948
    62  C   -0.074534
    63  C   -0.026107
    64  C   -0.228795
    65  C   -0.104304
    66  C    0.013826
    67  H    0.015603
    68  H    0.024566
    69  H    0.000667
    70  H    0.049879
    71  H    0.048920
    72  H    0.047524
    73  H    0.042083
    74  H    0.048436
    75  H    0.052137
    76  H    0.043594
    77  H    0.074554
    78  H    0.059191
    79  H    0.060086
    80  H    0.026176
    81  H    0.040334
    82  H    0.055019
    83  H    0.056919
    84  H    0.065515
    85  H    0.048424
    86  H    0.040113
    87  H    0.059630
    88  H    0.037305
    89  H    0.046506
    90  H    0.043523
    91  H    0.046670
    92  H    0.043583
    93  H    0.026713
    94  H    0.052338
    95  H    0.037031
    96  H    0.072376
    97  H    0.065530
    98  H    0.066782
    99  H    0.044908
   100  H    0.059623
   101  H    0.073973
   102  H    0.047261
   103  H    0.063637
   104  H    0.023187
   105  H    0.036077
   106  H    0.051298
   107  H    0.035435
   108  H    0.042253
   109  H    0.023237
   110  H    0.033956
   111  H    0.048789
   112  H    0.038300
   113  H    0.033885
   114  H    0.050116
   115  H    0.031447
   116  H    0.044775
   117  H    0.020152
   118  H    0.029464
   119  H    0.026318
   120  H    0.028955
   121  H    0.034762
   122  H    0.029733
   123  H    0.030853
   124  H    0.033678
   125  H    0.037667
   126  H    0.035947
   127  H    0.025045
   128  H    0.023028
   129  H    0.015690
   130  H    0.024608
   131  H    0.034488
   132  H    0.022755
   133  H    0.027226
   134  H    0.040558
   135  H    0.023786
   136  H    0.069777
   137  H    0.043202
   138  H    0.037183
   139  H    0.051759
   140  H    0.030172
 Sum of Mulliken charges =  -0.00000

 Dipole moment (field-independent basis, Debye):
    X=              4.0227    Y=              3.8396    Z=             -0.3386  Tot=              5.5713
 Quadrupole moment (field-independent basis, Debye-Ang):
   XX=           -366.7366   YY=           -428.0227   ZZ=           -414.4114
   XY=            -15.5762   XZ=             11.5205   YZ=             13.8716

 Normal termination of Gaussian 16 at Fri Apr 29 14:07:22 2022.
