 Gaussian 16, Revision A.03,
 Gaussian 16:  ES64L-G16RevA.03 25-Dec-2016

 --------------------------------
 #p wB97XD/Def2SVP td=(nstates=5)
 --------------------------------

 ----------------------------------------------------
 step_351_chromophore_12 TDDFT with wB97XD functional
 ----------------------------------------------------
 Symbolic Z-matrix:
 Charge =  0 Multiplicity = 1

                         Standard orientation:
 ---------------------------------------------------------------------
 Center     Atomic      Atomic             Coordinates (Angstroms)
 Number     Number       Type             X           Y           Z
 ---------------------------------------------------------------------
      1         12           0       -4.008410    0.260447   -0.452091
      2          6           0       -2.865992   -2.913881    0.541424
      3          6           0       -0.784241    1.405233   -0.012816
      4          6           0       -5.122622    3.259758   -1.206907
      5          6           0       -7.299744   -0.772124    0.386045
      6          7           0       -2.011062   -0.703930    0.111926
      7          6           0       -1.783118   -2.021139    0.313721
      8          6           0       -0.236852   -2.296503    0.291647
      9          6           0        0.342174   -0.825855    0.488391
     10          6           0       -0.917743    0.066910    0.318994
     11          6           0        1.007179   -0.598614    1.875610
     12          6           0        0.005722   -2.993516   -1.092127
     13          6           0        1.104576   -3.949356   -1.054325
     14          6           0        2.207163   -3.665053   -2.126754
     15          8           0        2.002698   -3.378530   -3.276110
     16          8           0        3.445985   -3.964530   -1.508988
     17          7           0       -3.066165    2.057320   -0.810433
     18          6           0       -1.763552    2.304598   -0.544768
     19          6           0       -1.556194    3.768165   -0.754622
     20          6           0       -2.739852    4.292182   -1.301760
     21          6           0       -3.713933    3.187003   -1.091241
     22          6           0       -0.259283    4.473484   -0.520580
     23          6           0       -2.995318    5.696414   -1.821942
     24          8           0       -4.060972    6.011851   -2.279136
     25          6           0       -1.944034    6.723867   -1.801813
     26          7           0       -5.966784    1.106273   -0.363109
     27          6           0       -6.147500    2.338806   -0.854973
     28          6           0       -7.677979    2.766885   -0.869269
     29          6           0       -8.369623    1.397172   -0.579939
     30          6           0       -7.171253    0.477307   -0.139283
     31          6           0       -7.981639    3.845155    0.199782
     32          6           0       -9.116017    0.755376   -1.825307
     33          6           0      -10.640302    1.103503   -2.020609
     34          7           0       -4.965570   -1.426542    0.343353
     35          6           0       -6.251776   -1.710273    0.626301
     36          6           0       -6.404660   -3.096537    1.078858
     37          6           0       -5.059752   -3.598728    1.080990
     38          6           0       -4.255377   -2.554016    0.658033
     39          6           0       -7.633032   -3.802865    1.476873
     40          6           0       -4.290666   -4.788016    1.235393
     41          8           0       -4.594676   -5.915186    1.522042
     42          6           0       -2.796821   -4.386391    0.908209
     43          6           0       -2.017463   -4.522780    2.064702
     44          8           0       -2.211254   -4.004535    3.170211
     45          8           0       -0.918469   -5.332142    1.757868
     46          6           0        0.070648   -5.424617    2.835883
     47          6           0        4.513628   -3.863782   -2.499462
     48          6           0        5.869398   -4.052610   -1.798056
     49          6           0        7.125748   -3.575140   -1.999027
     50          6           0        7.400912   -2.755808   -3.223282
     51          6           0        8.260060   -3.771094   -0.961283
     52          6           0        8.576919   -2.427533   -0.157613
     53          6           0        9.837443   -1.836356   -0.723783
     54          6           0        9.571457   -0.310495   -0.899518
     55          6           0       10.881193    0.344937   -1.542242
     56          6           0        9.273844    0.418115    0.424413
     57          6           0        8.517349    1.710458    0.004071
     58          6           0        8.757628    2.843289    1.019132
     59          6           0        7.540501    3.907340    0.997069
     60          6           0        8.164232    5.273398    1.290927
     61          6           0        6.509265    3.613859    2.066905
     62          6           0        5.076852    3.552865    1.454375
     63          6           0        4.124114    4.765680    1.866685
     64          6           0        3.102658    4.353507    2.933120
     65          6           0        2.119045    3.278970    2.205781
     66          6           0        2.239879    5.522077    3.403978
     67          1           0        0.081406    1.836560    0.494137
     68          1           0       -5.463883    4.254567   -1.500959
     69          1           0       -8.316352   -1.154633    0.501883
     70          1           0        0.110249   -2.965387    1.080282
     71          1           0        1.139600   -0.752419   -0.250085
     72          1           0        0.666901    0.349345    2.291362
     73          1           0        2.090514   -0.478946    1.881094
     74          1           0        0.764077   -1.451137    2.509808
     75          1           0        0.182807   -2.227694   -1.846553
     76          1           0       -0.893754   -3.530374   -1.395075
     77          1           0        0.593393   -4.868468   -1.339986
     78          1           0        1.546476   -4.048186   -0.063643
     79          1           0        0.210847    4.718113   -1.473659
     80          1           0        0.408890    3.902661    0.123376
     81          1           0       -0.415676    5.422122   -0.007916
     82          1           0       -1.699644    6.824890   -0.745151
     83          1           0       -2.333761    7.692942   -2.112802
     84          1           0       -1.113077    6.327657   -2.387107
     85          1           0       -7.940475    3.059542   -1.885917
     86          1           0       -9.046929    1.589156    0.252484
     87          1           0       -7.200660    4.558252    0.465109
     88          1           0       -8.265007    3.317167    1.109890
     89          1           0       -8.883203    4.380870   -0.099138
     90          1           0       -9.146445   -0.314385   -1.620232
     91          1           0       -8.600630    0.974288   -2.760180
     92          1           0      -10.875493    1.530671   -2.995327
     93          1           0      -10.824352    1.940257   -1.346492
     94          1           0      -11.361765    0.327753   -1.762248
     95          1           0       -8.484295   -3.136953    1.616147
     96          1           0       -7.365457   -4.307289    2.405213
     97          1           0       -7.828246   -4.510085    0.670851
     98          1           0       -2.385663   -4.924963    0.055358
     99          1           0        1.034385   -5.211153    2.374091
    100          1           0        0.158369   -6.429383    3.249096
    101          1           0       -0.094709   -4.764719    3.687078
    102          1           0        4.471084   -2.876289   -2.959735
    103          1           0        4.537794   -4.534196   -3.359367
    104          1           0        5.759549   -4.520804   -0.820072
    105          1           0        6.495868   -2.482130   -3.765702
    106          1           0        8.096098   -3.289009   -3.871485
    107          1           0        7.888161   -1.868821   -2.819142
    108          1           0        9.147719   -4.191298   -1.433549
    109          1           0        8.057712   -4.454744   -0.136960
    110          1           0        8.740807   -2.633370    0.900419
    111          1           0        7.771355   -1.693562   -0.137144
    112          1           0       10.011236   -2.134920   -1.757255
    113          1           0       10.613674   -2.002873    0.023599
    114          1           0        8.801340   -0.124447   -1.647307
    115          1           0       11.477050   -0.456366   -1.978113
    116          1           0       11.396484    1.099860   -0.948730
    117          1           0       10.483770    0.891273   -2.397507
    118          1           0       10.225910    0.524310    0.946560
    119          1           0        8.631542   -0.178769    1.071780
    120          1           0        7.488122    1.358663   -0.057619
    121          1           0        8.788311    2.006974   -1.008486
    122          1           0        9.700081    3.320368    0.747800
    123          1           0        8.857888    2.466202    2.036225
    124          1           0        7.073182    3.932295    0.013117
    125          1           0        8.645468    5.763706    0.444099
    126          1           0        8.843741    5.114907    2.127827
    127          1           0        7.379653    5.949876    1.629245
    128          1           0        6.521802    4.307447    2.907194
    129          1           0        6.625483    2.651472    2.565867
    130          1           0        4.627428    2.662176    1.892595
    131          1           0        5.095667    3.504579    0.366092
    132          1           0        3.639981    5.130645    0.961217
    133          1           0        4.638149    5.633089    2.281604
    134          1           0        3.598490    3.673702    3.625853
    135          1           0        2.448024    2.272343    2.463247
    136          1           0        2.115116    3.320311    1.116190
    137          1           0        1.126610    3.235862    2.654762
    138          1           0        2.030763    5.298440    4.449668
    139          1           0        1.304285    5.668934    2.864754
    140          1           0        2.838178    6.431515    3.455405
 ---------------------------------------------------------------------

 SCF Done:  E(RwB97XD) =  -3007.87231789     A.U. after   19 cycles

 Excitation energies and oscillator strengths:

 Excited State   1:      Singlet-A      1.7560 eV  706.07 nm  f=0.3723  <S**2>=0.000
     245 -> 248       -0.18996
     246 -> 247        0.68216
     245 <- 248       -0.11376
 This state for optimization and/or second-order correction.
 Total Energy, E(TD-HF/TD-DFT) =  -3007.80778666
 Copying the excited state density for this state as the 1-particle RhoCI density.

 Excited State   2:      Singlet-A      2.2141 eV  559.97 nm  f=0.1268  <S**2>=0.000
     245 -> 247        0.64071
     246 -> 248        0.28757

 Excited State   3:      Singlet-A      3.5680 eV  347.49 nm  f=0.0121  <S**2>=0.000
     241 -> 247       -0.18789
     244 -> 247        0.66235

 Excited State   4:      Singlet-A      3.6225 eV  342.27 nm  f=0.6185  <S**2>=0.000
     239 -> 247        0.12732
     241 -> 247       -0.22786
     245 -> 247       -0.24559
     246 -> 248        0.59260
     245 <- 247        0.10852

 Excited State   5:      Singlet-A      3.7586 eV  329.87 nm  f=0.1382  <S**2>=0.000
     239 -> 249       -0.11270
     240 -> 247        0.41412
     240 -> 249       -0.26836
     240 -> 250       -0.10633
     241 -> 247        0.32892
     242 -> 247        0.14509
     245 -> 247       -0.11985
     246 -> 248        0.18381

 The electronic state is 1-A.
 Alpha  occ. eigenvalues --  -46.95725 -19.31223 -19.30266 -19.26768 -19.24401
 Alpha  occ. eigenvalues --  -19.24106 -19.23443 -14.46658 -14.46359 -14.44964
 Alpha  occ. eigenvalues --  -14.43458 -10.44098 -10.42614 -10.39142 -10.38276
 Alpha  occ. eigenvalues --  -10.36176 -10.35512 -10.35431 -10.35231 -10.35140
 Alpha  occ. eigenvalues --  -10.34901 -10.34892 -10.34009 -10.33592 -10.32759
 Alpha  occ. eigenvalues --  -10.32455 -10.32442 -10.32409 -10.32227 -10.31990
 Alpha  occ. eigenvalues --  -10.31901 -10.31821 -10.31349 -10.31296 -10.31242
 Alpha  occ. eigenvalues --  -10.31230 -10.31067 -10.31022 -10.30944 -10.30644
 Alpha  occ. eigenvalues --  -10.30385 -10.30310 -10.30306 -10.30216 -10.30075
 Alpha  occ. eigenvalues --  -10.29964 -10.29828 -10.29820 -10.29794 -10.29782
 Alpha  occ. eigenvalues --  -10.29531 -10.29473 -10.29403 -10.29324 -10.29299
 Alpha  occ. eigenvalues --  -10.29277 -10.29242 -10.29237 -10.29222 -10.29185
 Alpha  occ. eigenvalues --  -10.28871 -10.28844 -10.28741 -10.28383 -10.28250
 Alpha  occ. eigenvalues --  -10.28103  -3.21638  -1.95225  -1.94752  -1.94606
 Alpha  occ. eigenvalues --   -1.18949  -1.17530  -1.14007  -1.12605  -1.11902
 Alpha  occ. eigenvalues --   -1.09133  -1.07111  -1.05800  -1.05410  -1.04478
 Alpha  occ. eigenvalues --   -0.94896  -0.92599  -0.92082  -0.91691  -0.90829
 Alpha  occ. eigenvalues --   -0.90662  -0.89989  -0.89853  -0.89668  -0.89148
 Alpha  occ. eigenvalues --   -0.87947  -0.87549  -0.86543  -0.85773  -0.85082
 Alpha  occ. eigenvalues --   -0.84550  -0.84047  -0.83560  -0.82819  -0.82081
 Alpha  occ. eigenvalues --   -0.81750  -0.80801  -0.79490  -0.78848  -0.78151
 Alpha  occ. eigenvalues --   -0.77993  -0.77747  -0.77044  -0.76820  -0.76300
 Alpha  occ. eigenvalues --   -0.74559  -0.74145  -0.73274  -0.71677  -0.70725
 Alpha  occ. eigenvalues --   -0.70485  -0.69922  -0.69756  -0.68903  -0.68112
 Alpha  occ. eigenvalues --   -0.67454  -0.67231  -0.66910  -0.66533  -0.66194
 Alpha  occ. eigenvalues --   -0.66009  -0.65384  -0.64715  -0.64075  -0.62764
 Alpha  occ. eigenvalues --   -0.61980  -0.61552  -0.61270  -0.60871  -0.60431
 Alpha  occ. eigenvalues --   -0.59571  -0.59083  -0.58366  -0.57815  -0.57509
 Alpha  occ. eigenvalues --   -0.57240  -0.57041  -0.56912  -0.56161  -0.56103
 Alpha  occ. eigenvalues --   -0.55932  -0.55338  -0.55258  -0.55166  -0.55087
 Alpha  occ. eigenvalues --   -0.55006  -0.54547  -0.54438  -0.54197  -0.54016
 Alpha  occ. eigenvalues --   -0.53705  -0.53237  -0.53035  -0.52814  -0.52750
 Alpha  occ. eigenvalues --   -0.52509  -0.52379  -0.52246  -0.51986  -0.51892
 Alpha  occ. eigenvalues --   -0.51518  -0.51294  -0.51133  -0.50971  -0.50903
 Alpha  occ. eigenvalues --   -0.50809  -0.50639  -0.50325  -0.50128  -0.49872
 Alpha  occ. eigenvalues --   -0.49759  -0.49592  -0.49084  -0.48946  -0.48781
 Alpha  occ. eigenvalues --   -0.48517  -0.48327  -0.48074  -0.47865  -0.47797
 Alpha  occ. eigenvalues --   -0.47610  -0.47360  -0.47200  -0.46873  -0.46797
 Alpha  occ. eigenvalues --   -0.46766  -0.46519  -0.46331  -0.46318  -0.46108
 Alpha  occ. eigenvalues --   -0.45926  -0.45798  -0.45614  -0.45460  -0.45134
 Alpha  occ. eigenvalues --   -0.45020  -0.44752  -0.44703  -0.44677  -0.44350
 Alpha  occ. eigenvalues --   -0.44311  -0.43879  -0.43807  -0.43643  -0.43271
 Alpha  occ. eigenvalues --   -0.43005  -0.42848  -0.42500  -0.42211  -0.42110
 Alpha  occ. eigenvalues --   -0.42023  -0.41779  -0.41401  -0.41208  -0.40989
 Alpha  occ. eigenvalues --   -0.40757  -0.40387  -0.40098  -0.39957  -0.39793
 Alpha  occ. eigenvalues --   -0.39751  -0.39155  -0.39085  -0.38858  -0.38298
 Alpha  occ. eigenvalues --   -0.38056  -0.37876  -0.37159  -0.36884  -0.36331
 Alpha  occ. eigenvalues --   -0.36135  -0.35291  -0.35072  -0.33860  -0.33266
 Alpha  occ. eigenvalues --   -0.33033  -0.32503  -0.31580  -0.31192  -0.25702
 Alpha  occ. eigenvalues --   -0.23051
 Alpha virt. eigenvalues --   -0.06622   0.00482   0.02603   0.04653   0.05386
 Alpha virt. eigenvalues --    0.06500   0.07291   0.08213   0.08582   0.09529
 Alpha virt. eigenvalues --    0.10576   0.11226   0.11436   0.12058   0.12158

 Mulliken charges:
               1
     1  Mg   0.970539
     2  C   -0.091126
     3  C   -0.069137
     4  C   -0.070050
     5  C   -0.085695
     6  N   -0.319612
     7  C   -0.009480
     8  C   -0.084611
     9  C   -0.120599
    10  C    0.076739
    11  C    0.012706
    12  C    0.021958
    13  C    0.028216
    14  C    0.210339
    15  O   -0.226212
    16  O   -0.374877
    17  N   -0.438517
    18  C    0.172951
    19  C   -0.196758
    20  C   -0.061917
    21  C    0.128159
    22  C    0.102829
    23  C    0.018615
    24  O   -0.213356
    25  C    0.021177
    26  N   -0.358459
    27  C    0.056989
    28  C   -0.079679
    29  C   -0.065648
    30  C    0.056597
    31  C    0.020147
    32  C   -0.016043
    33  C   -0.057817
    34  N   -0.407778
    35  C    0.112796
    36  C   -0.206743
    37  C   -0.030234
    38  C    0.166507
    39  C    0.091237
    40  C    0.093823
    41  O   -0.184387
    42  C   -0.040448
    43  C    0.273645
    44  O   -0.255898
    45  O   -0.383573
    46  C    0.124087
    47  C    0.255213
    48  C   -0.147544
    49  C   -0.213068
    50  C    0.055905
    51  C    0.048453
    52  C   -0.070478
    53  C    0.049669
    54  C   -0.288521
    55  C    0.010102
    56  C    0.003941
    57  C   -0.032095
    58  C    0.023057
    59  C   -0.178525
    60  C   -0.000908
    61  C    0.046409
    62  C   -0.053312
    63  C   -0.012821
    64  C   -0.192390
    65  C   -0.089157
    66  C    0.025164
    67  H   -0.004396
    68  H    0.019243
    69  H   -0.005716
    70  H    0.022154
    71  H    0.040064
    72  H    0.037391
    73  H    0.037422
    74  H    0.044486
    75  H    0.043259
    76  H    0.033419
    77  H    0.069635
    78  H    0.051767
    79  H    0.056374
    80  H    0.007429
    81  H    0.034615
    82  H    0.048078
    83  H    0.057412
    84  H    0.059422
    85  H    0.039735
    86  H    0.028737
    87  H    0.054247
    88  H    0.031012
    89  H    0.041364
    90  H    0.033422
    91  H    0.039007
    92  H    0.037709
    93  H    0.017370
    94  H    0.047693
    95  H    0.030059
    96  H    0.066243
    97  H    0.058774
    98  H    0.060620
    99  H    0.039779
   100  H    0.056009
   101  H    0.070043
   102  H    0.039070
   103  H    0.058910
   104  H    0.018851
   105  H    0.031107
   106  H    0.046332
   107  H    0.018603
   108  H    0.034563
   109  H    0.017869
   110  H    0.026956
   111  H    0.034851
   112  H    0.025479
   113  H    0.026857
   114  H    0.032363
   115  H    0.025973
   116  H    0.039100
   117  H    0.013687
   118  H    0.020158
   119  H    0.016949
   120  H    0.018025
   121  H    0.024715
   122  H    0.021115
   123  H    0.021569
   124  H    0.021491
   125  H    0.032984
   126  H    0.028311
   127  H    0.016309
   128  H    0.013886
   129  H    0.007943
   130  H    0.013368
   131  H    0.026537
   132  H    0.013307
   133  H    0.016216
   134  H    0.029397
   135  H    0.014111
   136  H    0.060867
   137  H    0.036066
   138  H    0.031774
   139  H    0.045453
   140  H    0.024497
 Sum of Mulliken charges =  -0.00000

 Dipole moment (field-independent basis, Debye):
    X=              4.5327    Y=              4.5901    Z=             -0.5124  Tot=              6.4712
 Quadrupole moment (field-independent basis, Debye-Ang):
   XX=           -370.4903   YY=           -425.9381   ZZ=           -414.1694
   XY=            -18.0001   XZ=             12.3740   YZ=             13.6454

 Normal termination of Gaussian 16 at Fri Apr 29 14:42:34 2022.
