 Gaussian 16, Revision A.03,
 Gaussian 16:  ES64L-G16RevA.03 25-Dec-2016

 --------------------
 #p ZINDO=(nstates=5)
 --------------------

 -----------------------------
 step_351_chromophore_12 ZINDO
 -----------------------------
 Symbolic Z-matrix:
 Charge =  0 Multiplicity = 1

                         Standard orientation:
 ---------------------------------------------------------------------
 Center     Atomic      Atomic             Coordinates (Angstroms)
 Number     Number       Type             X           Y           Z
 ---------------------------------------------------------------------
      1         12           0       -4.008410    0.260447   -0.452091
      2          6           0       -2.865992   -2.913881    0.541424
      3          6           0       -0.784241    1.405233   -0.012816
      4          6           0       -5.122622    3.259758   -1.206907
      5          6           0       -7.299744   -0.772124    0.386045
      6          7           0       -2.011062   -0.703930    0.111926
      7          6           0       -1.783118   -2.021139    0.313721
      8          6           0       -0.236852   -2.296503    0.291647
      9          6           0        0.342174   -0.825855    0.488391
     10          6           0       -0.917743    0.066910    0.318994
     11          6           0        1.007179   -0.598614    1.875610
     12          6           0        0.005722   -2.993516   -1.092127
     13          6           0        1.104576   -3.949356   -1.054325
     14          6           0        2.207163   -3.665053   -2.126754
     15          8           0        2.002698   -3.378530   -3.276110
     16          8           0        3.445985   -3.964530   -1.508988
     17          7           0       -3.066165    2.057320   -0.810433
     18          6           0       -1.763552    2.304598   -0.544768
     19          6           0       -1.556194    3.768165   -0.754622
     20          6           0       -2.739852    4.292182   -1.301760
     21          6           0       -3.713933    3.187003   -1.091241
     22          6           0       -0.259283    4.473484   -0.520580
     23          6           0       -2.995318    5.696414   -1.821942
     24          8           0       -4.060972    6.011851   -2.279136
     25          6           0       -1.944034    6.723867   -1.801813
     26          7           0       -5.966784    1.106273   -0.363109
     27          6           0       -6.147500    2.338806   -0.854973
     28          6           0       -7.677979    2.766885   -0.869269
     29          6           0       -8.369623    1.397172   -0.579939
     30          6           0       -7.171253    0.477307   -0.139283
     31          6           0       -7.981639    3.845155    0.199782
     32          6           0       -9.116017    0.755376   -1.825307
     33          6           0      -10.640302    1.103503   -2.020609
     34          7           0       -4.965570   -1.426542    0.343353
     35          6           0       -6.251776   -1.710273    0.626301
     36          6           0       -6.404660   -3.096537    1.078858
     37          6           0       -5.059752   -3.598728    1.080990
     38          6           0       -4.255377   -2.554016    0.658033
     39          6           0       -7.633032   -3.802865    1.476873
     40          6           0       -4.290666   -4.788016    1.235393
     41          8           0       -4.594676   -5.915186    1.522042
     42          6           0       -2.796821   -4.386391    0.908209
     43          6           0       -2.017463   -4.522780    2.064702
     44          8           0       -2.211254   -4.004535    3.170211
     45          8           0       -0.918469   -5.332142    1.757868
     46          6           0        0.070648   -5.424617    2.835883
     47          6           0        4.513628   -3.863782   -2.499462
     48          6           0        5.869398   -4.052610   -1.798056
     49          6           0        7.125748   -3.575140   -1.999027
     50          6           0        7.400912   -2.755808   -3.223282
     51          6           0        8.260060   -3.771094   -0.961283
     52          6           0        8.576919   -2.427533   -0.157613
     53          6           0        9.837443   -1.836356   -0.723783
     54          6           0        9.571457   -0.310495   -0.899518
     55          6           0       10.881193    0.344937   -1.542242
     56          6           0        9.273844    0.418115    0.424413
     57          6           0        8.517349    1.710458    0.004071
     58          6           0        8.757628    2.843289    1.019132
     59          6           0        7.540501    3.907340    0.997069
     60          6           0        8.164232    5.273398    1.290927
     61          6           0        6.509265    3.613859    2.066905
     62          6           0        5.076852    3.552865    1.454375
     63          6           0        4.124114    4.765680    1.866685
     64          6           0        3.102658    4.353507    2.933120
     65          6           0        2.119045    3.278970    2.205781
     66          6           0        2.239879    5.522077    3.403978
     67          1           0        0.081406    1.836560    0.494137
     68          1           0       -5.463883    4.254567   -1.500959
     69          1           0       -8.316352   -1.154633    0.501883
     70          1           0        0.110249   -2.965387    1.080282
     71          1           0        1.139600   -0.752419   -0.250085
     72          1           0        0.666901    0.349345    2.291362
     73          1           0        2.090514   -0.478946    1.881094
     74          1           0        0.764077   -1.451137    2.509808
     75          1           0        0.182807   -2.227694   -1.846553
     76          1           0       -0.893754   -3.530374   -1.395075
     77          1           0        0.593393   -4.868468   -1.339986
     78          1           0        1.546476   -4.048186   -0.063643
     79          1           0        0.210847    4.718113   -1.473659
     80          1           0        0.408890    3.902661    0.123376
     81          1           0       -0.415676    5.422122   -0.007916
     82          1           0       -1.699644    6.824890   -0.745151
     83          1           0       -2.333761    7.692942   -2.112802
     84          1           0       -1.113077    6.327657   -2.387107
     85          1           0       -7.940475    3.059542   -1.885917
     86          1           0       -9.046929    1.589156    0.252484
     87          1           0       -7.200660    4.558252    0.465109
     88          1           0       -8.265007    3.317167    1.109890
     89          1           0       -8.883203    4.380870   -0.099138
     90          1           0       -9.146445   -0.314385   -1.620232
     91          1           0       -8.600630    0.974288   -2.760180
     92          1           0      -10.875493    1.530671   -2.995327
     93          1           0      -10.824352    1.940257   -1.346492
     94          1           0      -11.361765    0.327753   -1.762248
     95          1           0       -8.484295   -3.136953    1.616147
     96          1           0       -7.365457   -4.307289    2.405213
     97          1           0       -7.828246   -4.510085    0.670851
     98          1           0       -2.385663   -4.924963    0.055358
     99          1           0        1.034385   -5.211153    2.374091
    100          1           0        0.158369   -6.429383    3.249096
    101          1           0       -0.094709   -4.764719    3.687078
    102          1           0        4.471084   -2.876289   -2.959735
    103          1           0        4.537794   -4.534196   -3.359367
    104          1           0        5.759549   -4.520804   -0.820072
    105          1           0        6.495868   -2.482130   -3.765702
    106          1           0        8.096098   -3.289009   -3.871485
    107          1           0        7.888161   -1.868821   -2.819142
    108          1           0        9.147719   -4.191298   -1.433549
    109          1           0        8.057712   -4.454744   -0.136960
    110          1           0        8.740807   -2.633370    0.900419
    111          1           0        7.771355   -1.693562   -0.137144
    112          1           0       10.011236   -2.134920   -1.757255
    113          1           0       10.613674   -2.002873    0.023599
    114          1           0        8.801340   -0.124447   -1.647307
    115          1           0       11.477050   -0.456366   -1.978113
    116          1           0       11.396484    1.099860   -0.948730
    117          1           0       10.483770    0.891273   -2.397507
    118          1           0       10.225910    0.524310    0.946560
    119          1           0        8.631542   -0.178769    1.071780
    120          1           0        7.488122    1.358663   -0.057619
    121          1           0        8.788311    2.006974   -1.008486
    122          1           0        9.700081    3.320368    0.747800
    123          1           0        8.857888    2.466202    2.036225
    124          1           0        7.073182    3.932295    0.013117
    125          1           0        8.645468    5.763706    0.444099
    126          1           0        8.843741    5.114907    2.127827
    127          1           0        7.379653    5.949876    1.629245
    128          1           0        6.521802    4.307447    2.907194
    129          1           0        6.625483    2.651472    2.565867
    130          1           0        4.627428    2.662176    1.892595
    131          1           0        5.095667    3.504579    0.366092
    132          1           0        3.639981    5.130645    0.961217
    133          1           0        4.638149    5.633089    2.281604
    134          1           0        3.598490    3.673702    3.625853
    135          1           0        2.448024    2.272343    2.463247
    136          1           0        2.115116    3.320311    1.116190
    137          1           0        1.126610    3.235862    2.654762
    138          1           0        2.030763    5.298440    4.449668
    139          1           0        1.304285    5.668934    2.864754
    140          1           0        2.838178    6.431515    3.455405
 ---------------------------------------------------------------------

 SCF Done:  E(RZINDO/S) =  -474.345375133     A.U. after   19 cycles

 Excitation energies and oscillator strengths:

 Excited State   1:      Singlet-A      1.3194 eV  939.70 nm  f=0.5574  <S**2>=0.000
     175 ->178         0.18207
     176 ->177         0.66686
 This state for optimization and/or second-order correction.
 Total Energy, E(CIS/TDA) =  -474.296888054
 Copying the excited state density for this state as the 1-particle RhoCI density.

 Excited State   2:      Singlet-A      1.8968 eV  653.65 nm  f=0.0628  <S**2>=0.000
     175 ->177         0.55943
     176 ->178        -0.39945

 Excited State   3:      Singlet-A      2.9671 eV  417.86 nm  f=0.0136  <S**2>=0.000
     168 ->177         0.27566
     168 ->179        -0.42427
     168 ->180        -0.10055
     168 ->182         0.18958
     168 ->186        -0.22524
     168 ->188         0.11571
     169 ->179        -0.10644
     170 ->177        -0.11849
     170 ->179         0.10470

 Excited State   4:      Singlet-A      2.9957 eV  413.88 nm  f=0.9864  <S**2>=0.000
     175 ->177         0.35594
     176 ->178         0.52414
     176 ->179        -0.18277
     176 ->182        -0.12723

 Excited State   5:      Singlet-A      3.1231 eV  396.99 nm  f=0.2619  <S**2>=0.000
     175 ->177         0.13092
     176 ->178         0.15801
     176 ->179         0.56146
     176 ->181         0.10278
     176 ->182         0.28344

 The electronic state is 1-A.
 Alpha  occ. eigenvalues --   -1.83654  -1.82399  -1.79354  -1.72803  -1.72284
 Alpha  occ. eigenvalues --   -1.70427  -1.66979  -1.62673  -1.62581  -1.59158
 Alpha  occ. eigenvalues --   -1.55384  -1.53004  -1.49327  -1.48273  -1.45891
 Alpha  occ. eigenvalues --   -1.44777  -1.42744  -1.40983  -1.38628  -1.38290
 Alpha  occ. eigenvalues --   -1.36456  -1.33710  -1.33438  -1.31991  -1.29065
 Alpha  occ. eigenvalues --   -1.27736  -1.24923  -1.22671  -1.20445  -1.18492
 Alpha  occ. eigenvalues --   -1.17155  -1.15888  -1.15717  -1.14688  -1.12894
 Alpha  occ. eigenvalues --   -1.12267  -1.11708  -1.10437  -1.04447  -1.03541
 Alpha  occ. eigenvalues --   -1.01347  -1.00379  -0.97408  -0.96960  -0.96508
 Alpha  occ. eigenvalues --   -0.95131  -0.94463  -0.93741  -0.93172  -0.92798
 Alpha  occ. eigenvalues --   -0.91144  -0.90830  -0.88867  -0.88419  -0.87550
 Alpha  occ. eigenvalues --   -0.86806  -0.85349  -0.83846  -0.82658  -0.80751
 Alpha  occ. eigenvalues --   -0.80171  -0.79846  -0.78300  -0.76828  -0.76535
 Alpha  occ. eigenvalues --   -0.75923  -0.75279  -0.74556  -0.74052  -0.73458
 Alpha  occ. eigenvalues --   -0.73036  -0.72463  -0.71801  -0.70926  -0.70326
 Alpha  occ. eigenvalues --   -0.69867  -0.69531  -0.69100  -0.68892  -0.68474
 Alpha  occ. eigenvalues --   -0.68188  -0.67807  -0.66963  -0.66697  -0.66248
 Alpha  occ. eigenvalues --   -0.65385  -0.64886  -0.64656  -0.64472  -0.63428
 Alpha  occ. eigenvalues --   -0.63318  -0.62804  -0.62595  -0.62160  -0.61868
 Alpha  occ. eigenvalues --   -0.61641  -0.61544  -0.61131  -0.60879  -0.59971
 Alpha  occ. eigenvalues --   -0.59744  -0.59291  -0.59062  -0.58588  -0.58162
 Alpha  occ. eigenvalues --   -0.57723  -0.57290  -0.56744  -0.56637  -0.55943
 Alpha  occ. eigenvalues --   -0.55755  -0.55512  -0.55298  -0.55100  -0.54910
 Alpha  occ. eigenvalues --   -0.54714  -0.54152  -0.53993  -0.53637  -0.52870
 Alpha  occ. eigenvalues --   -0.52588  -0.52524  -0.51903  -0.51825  -0.51723
 Alpha  occ. eigenvalues --   -0.51464  -0.51309  -0.51129  -0.50852  -0.50483
 Alpha  occ. eigenvalues --   -0.50399  -0.49960  -0.49859  -0.49619  -0.49451
 Alpha  occ. eigenvalues --   -0.48942  -0.48768  -0.48266  -0.48111  -0.47911
 Alpha  occ. eigenvalues --   -0.47738  -0.47622  -0.47119  -0.46799  -0.46441
 Alpha  occ. eigenvalues --   -0.46060  -0.45938  -0.45602  -0.45589  -0.45318
 Alpha  occ. eigenvalues --   -0.45260  -0.45112  -0.45060  -0.44833  -0.44761
 Alpha  occ. eigenvalues --   -0.43962  -0.43669  -0.43484  -0.42683  -0.42422
 Alpha  occ. eigenvalues --   -0.42260  -0.41136  -0.40694  -0.39631  -0.38465
 Alpha  occ. eigenvalues --   -0.37727  -0.36837  -0.35953  -0.34585  -0.34071
 Alpha  occ. eigenvalues --   -0.33949  -0.32476  -0.32094  -0.31124  -0.26332
 Alpha  occ. eigenvalues --   -0.21823
 Alpha virt. eigenvalues --   -0.08244  -0.01932  -0.00407   0.01417   0.01506
 Alpha virt. eigenvalues --    0.01697   0.03174   0.03368   0.04636   0.04813
 Alpha virt. eigenvalues --    0.06482   0.06628   0.07020   0.07930   0.08154

 Mulliken charges:
               1
     1  Mg   0.435674
     2  C   -0.037073
     3  C   -0.092535
     4  C   -0.089416
     5  C   -0.056597
     6  N   -0.280551
     7  C    0.104102
     8  C   -0.008141
     9  C    0.002595
    10  C    0.147104
    11  C   -0.055734
    12  C   -0.016648
    13  C    0.003806
    14  C    0.458631
    15  O   -0.491632
    16  O   -0.267811
    17  N   -0.302509
    18  C    0.129020
    19  C    0.024016
    20  C   -0.045087
    21  C    0.164846
    22  C   -0.045463
    23  C    0.336131
    24  O   -0.514668
    25  C   -0.026074
    26  N   -0.266959
    27  C    0.165513
    28  C    0.004270
    29  C   -0.002598
    30  C    0.087393
    31  C   -0.046945
    32  C   -0.031976
    33  C   -0.065826
    34  N   -0.315929
    35  C    0.077980
    36  C    0.004508
    37  C   -0.062251
    38  C    0.094703
    39  C   -0.034663
    40  C    0.343105
    41  O   -0.523149
    42  C    0.060426
    43  C    0.502792
    44  O   -0.545097
    45  O   -0.282277
    46  C    0.070226
    47  C    0.107675
    48  C   -0.103986
    49  C   -0.007333
    50  C   -0.044824
    51  C   -0.021538
    52  C   -0.036148
    53  C   -0.039192
    54  C   -0.027750
    55  C   -0.077527
    56  C   -0.037392
    57  C   -0.036519
    58  C   -0.039161
    59  C   -0.012522
    60  C   -0.057302
    61  C   -0.028678
    62  C   -0.047519
    63  C   -0.037008
    64  C   -0.015092
    65  C   -0.077647
    66  C   -0.049354
    67  H    0.030699
    68  H    0.038260
    69  H    0.023046
    70  H    0.037669
    71  H    0.034521
    72  H    0.021835
    73  H    0.017716
    74  H    0.028663
    75  H    0.030833
    76  H    0.025588
    77  H    0.047199
    78  H    0.040015
    79  H    0.035815
    80  H    0.030403
    81  H    0.026536
    82  H    0.035438
    83  H    0.042727
    84  H    0.043906
    85  H    0.035670
    86  H    0.033276
    87  H    0.031971
    88  H    0.019191
    89  H    0.017764
    90  H    0.020773
    91  H    0.029941
    92  H    0.020579
    93  H    0.008965
    94  H    0.028148
    95  H    0.022413
    96  H    0.039091
    97  H    0.037135
    98  H    0.050882
    99  H    0.022501
   100  H    0.037901
   101  H    0.055110
   102  H    0.041939
   103  H    0.056723
   104  H    0.015667
   105  H    0.027346
   106  H    0.029546
   107  H    0.027688
   108  H    0.026119
   109  H    0.017854
   110  H    0.013806
   111  H    0.027376
   112  H    0.027399
   113  H    0.030500
   114  H    0.025901
   115  H    0.022390
   116  H    0.030729
   117  H    0.004616
   118  H    0.023198
   119  H    0.015738
   120  H    0.017590
   121  H    0.025074
   122  H    0.019621
   123  H    0.024148
   124  H    0.027160
   125  H    0.018154
   126  H    0.020103
   127  H    0.008395
   128  H    0.022088
   129  H    0.011823
   130  H    0.019322
   131  H    0.024298
   132  H    0.013763
   133  H    0.014426
   134  H    0.038550
   135  H    0.005729
   136  H    0.026927
   137  H    0.016099
   138  H    0.012948
   139  H    0.030488
   140  H    0.016164
 Sum of Mulliken charges =  -0.00000

 Dipole moment (field-independent basis, Debye):
    X=              7.1668    Y=              7.2677    Z=             -1.0515  Tot=             10.2610
 N-N= 4.562773407380D+03 E-N= 0.000000000000D+00  KE=-9.799472400926D+03
 Leave Link  601 at Fri Apr 29 14:57:19 2022, MaxMem=  6710886400 cpu:               1.1 elap:               0.1
 (Enter /sw/apps/gaussian-16.0/g16/l9999.exe)
 1\1\GINC-BP1-COMPUTE163\SP\RZINDO CIS\STO-3G\C55H74Mg1N4O6\OF15641\29-
 Apr-2022\0\\#p ZINDO=(nstates=5)\\step_351_chromophore_12 ZINDO\\0,1\M
 g,0,47.322,15.471,28.107\C,0,45.411,15.151,31.042\C,0,48.937,18.121,29
 .613\C,0,48.976,15.876,25.295\C,0,44.785,13.687,26.38\N,0,47.236,16.45
 8,30.17\C,0,46.497,16.05,31.226\C,0,47.017,16.749,32.533\C,0,47.876,17
 .944,31.924\C,0,47.939,17.589,30.413\C,0,47.238,19.345,32.144\C,0,47.7
 88,15.613,33.291\C,0,47.723,15.76,34.739\C,0,49.131,15.802,35.419\O,0,

 Normal termination of Gaussian 16 at Fri Apr 29 14:57:19 2022.
