 Gaussian 16, Revision A.03,
 Gaussian 16:  ES64L-G16RevA.03 25-Dec-2016

 ------------------------------
 #p blyp/Def2SVP td=(nstates=5)
 ------------------------------

 --------------------------------------------------
 step_901_chromophore_11 TDDFT with blyp functional
 --------------------------------------------------
 Symbolic Z-matrix:
 Charge =  0 Multiplicity = 1

                         Standard orientation:
 ---------------------------------------------------------------------
 Center     Atomic      Atomic             Coordinates (Angstroms)
 Number     Number       Type             X           Y           Z
 ---------------------------------------------------------------------
      1         12           0       -4.432432    1.601683    0.666517
      2          6           0       -5.547723   -1.742168    0.306737
      3          6           0       -2.079769    0.407251    2.829951
      4          6           0       -3.132783    4.650299    0.581984
      5          6           0       -6.472109    2.461622   -2.221292
      6          7           0       -3.824180   -0.468883    1.476435
      7          6           0       -4.480065   -1.664739    1.240798
      8          6           0       -4.050812   -2.731105    2.295867
      9          6           0       -3.204527   -1.901588    3.306408
     10          6           0       -3.003984   -0.567311    2.506943
     11          6           0       -3.825512   -1.764401    4.670754
     12          6           0       -3.518141   -4.073037    1.700571
     13          6           0       -2.520543   -4.068845    0.472897
     14          6           0       -1.107327   -4.627157    0.631205
     15          8           0       -0.467186   -4.910452    1.587652
     16          8           0       -0.559763   -4.686908   -0.615191
     17          7           0       -2.804758    2.414786    1.562487
     18          6           0       -1.967185    1.792645    2.483890
     19          6           0       -1.137696    2.823244    3.048932
     20          6           0       -1.399122    4.047088    2.386901
     21          6           0       -2.490065    3.770120    1.494264
     22          6           0        0.008547    2.529643    4.031200
     23          6           0       -0.668156    5.364085    2.609973
     24          8           0        0.234238    5.457331    3.344748
     25          6           0       -0.988731    6.627330    1.853402
     26          7           0       -4.732886    3.233086   -0.646391
     27          6           0       -4.136881    4.464978   -0.400613
     28          6           0       -4.624643    5.574151   -1.275923
     29          6           0       -5.545607    4.765161   -2.320238
     30          6           0       -5.608914    3.358146   -1.698776
     31          6           0       -5.322237    6.769598   -0.589804
     32          6           0       -5.011849    4.867636   -3.800487
     33          6           0       -3.664659    4.110534   -4.073427
     34          7           0       -5.893555    0.664022   -0.663186
     35          6           0       -6.606873    1.102410   -1.731719
     36          6           0       -7.595780    0.032220   -2.067424
     37          6           0       -7.185784   -1.101223   -1.315780
     38          6           0       -6.107024   -0.667718   -0.454734
     39          6           0       -8.799486    0.147979   -3.025272
     40          6           0       -7.441527   -2.485195   -1.024904
     41          8           0       -8.322480   -3.260008   -1.311477
     42          6           0       -6.224001   -2.965931   -0.131008
     43          6           0       -5.444275   -3.823965   -1.016973
     44          8           0       -4.802618   -3.444158   -2.074850
     45          8           0       -5.751386   -5.085536   -0.733658
     46          6           0       -4.986689   -6.153026   -1.391846
     47          6           0        0.798648   -5.187056   -0.810866
     48          6           0        1.843872   -4.119814   -0.888185
     49          6           0        2.729156   -3.844010    0.123584
     50          6           0        2.915496   -4.710939    1.348120
     51          6           0        3.690488   -2.662354   -0.018561
     52          6           0        4.181426   -2.290667   -1.457715
     53          6           0        5.590506   -1.731230   -1.597009
     54          6           0        5.734282   -0.303765   -0.916166
     55          6           0        5.879996    0.727209   -1.971877
     56          6           0        6.857226   -0.260295    0.159726
     57          6           0        8.195529   -0.709403   -0.396194
     58          6           0        9.268679    0.409782   -0.342914
     59          6           0       10.743091   -0.111853   -0.275748
     60          6           0       10.909511   -0.949651    1.043996
     61          6           0       11.815689    1.033954   -0.448514
     62          6           0       13.051612    0.658676   -1.343953
     63          6           0       14.356759    0.350755   -0.531277
     64          6           0       15.578915    1.111557   -1.032286
     65          6           0       16.759994    0.244802   -1.039508
     66          6           0       15.823569    2.522385   -0.379245
     67          1           0       -1.449995   -0.104751    3.560555
     68          1           0       -2.774302    5.676687    0.481775
     69          1           0       -7.103121    2.766920   -3.058150
     70          1           0       -4.947787   -3.079619    2.808620
     71          1           0       -2.220483   -2.360003    3.405878
     72          1           0       -4.177235   -0.747152    4.838888
     73          1           0       -3.132430   -2.185307    5.399409
     74          1           0       -4.752701   -2.332954    4.741730
     75          1           0       -4.334174   -4.746517    1.439041
     76          1           0       -2.984572   -4.643664    2.460935
     77          1           0       -2.388431   -3.083399    0.025719
     78          1           0       -2.977833   -4.760342   -0.235949
     79          1           0        0.906677    2.522484    3.414307
     80          1           0       -0.013432    1.550064    4.506915
     81          1           0        0.020604    3.351305    4.748118
     82          1           0       -0.777317    6.433039    0.802003
     83          1           0       -0.392806    7.497657    2.129976
     84          1           0       -2.042329    6.867857    1.996093
     85          1           0       -3.714953    5.991689   -1.707806
     86          1           0       -6.559495    5.162918   -2.290449
     87          1           0       -4.749048    7.639998   -0.910132
     88          1           0       -5.384005    6.575406    0.480907
     89          1           0       -6.283319    7.021759   -1.038616
     90          1           0       -4.901081    5.930314   -4.015166
     91          1           0       -5.694991    4.294413   -4.426213
     92          1           0       -2.980912    4.839415   -4.509923
     93          1           0       -3.857632    3.312539   -4.790063
     94          1           0       -3.147803    3.716944   -3.198115
     95          1           0       -8.886353    1.202173   -3.291086
     96          1           0       -9.628229   -0.208829   -2.414536
     97          1           0       -8.536636   -0.489457   -3.869014
     98          1           0       -6.723201   -3.517895    0.665261
     99          1           0       -4.111258   -5.816959   -1.947049
    100          1           0       -5.673557   -6.668922   -2.063022
    101          1           0       -4.654974   -6.777625   -0.561977
    102          1           0        0.627453   -5.632514   -1.791049
    103          1           0        0.973666   -5.915194   -0.018462
    104          1           0        1.925672   -3.535510   -1.805287
    105          1           0        3.996035   -4.678251    1.485569
    106          1           0        2.464658   -5.702903    1.388781
    107          1           0        2.549647   -4.125048    2.191262
    108          1           0        4.487561   -2.530216    0.713243
    109          1           0        3.022605   -1.850779    0.270547
    110          1           0        3.378743   -1.650515   -1.823438
    111          1           0        4.229521   -3.186095   -2.078086
    112          1           0        5.919801   -1.743107   -2.635644
    113          1           0        6.222905   -2.448273   -1.073694
    114          1           0        4.782767   -0.133525   -0.412016
    115          1           0        6.804797    0.634312   -2.541476
    116          1           0        6.054747    1.707302   -1.529782
    117          1           0        5.039685    0.713112   -2.665395
    118          1           0        6.484794   -0.979572    0.889835
    119          1           0        6.910967    0.690838    0.689536
    120          1           0        8.068275   -0.923347   -1.457093
    121          1           0        8.549442   -1.639143    0.049194
    122          1           0        9.189645    1.083977    0.509837
    123          1           0        9.171884    0.975329   -1.270310
    124          1           0       10.999240   -0.904764   -0.977069
    125          1           0       11.849415   -0.723639    1.548504
    126          1           0       10.840065   -2.007832    0.791784
    127          1           0       10.245376   -0.710767    1.875111
    128          1           0       11.908076    1.429585    0.562388
    129          1           0       11.344865    1.856991   -0.985968
    130          1           0       13.253132    1.544019   -1.946406
    131          1           0       12.890947   -0.181679   -2.019263
    132          1           0       14.433228   -0.733890   -0.596422
    133          1           0       14.209186    0.582438    0.523614
    134          1           0       15.392548    1.355777   -2.078167
    135          1           0       17.117597    0.012716   -2.042708
    136          1           0       16.729303   -0.694008   -0.485672
    137          1           0       17.627153    0.720768   -0.582543
    138          1           0       15.057856    2.842011    0.327517
    139          1           0       15.821582    3.252259   -1.188947
    140          1           0       16.789602    2.674627    0.100700
 ---------------------------------------------------------------------

 SCF Done:  E(RB-LYP) =  -3007.37186810     A.U. after   21 cycles

 Excitation energies and oscillator strengths:

 Excited State   1:      Singlet-A      1.8258 eV  679.08 nm  f=0.1176  <S**2>=0.000
     244 -> 247        0.55014
     245 -> 248        0.12063
     246 -> 247        0.43165
 This state for optimization and/or second-order correction.
 Total Energy, E(TD-HF/TD-DFT) =  -3007.30477198
 Copying the excited state density for this state as the 1-particle RhoCI density.

 Excited State   2:      Singlet-A      1.8545 eV  668.55 nm  f=0.1914  <S**2>=0.000
     244 -> 247       -0.44091
     245 -> 248        0.16218
     246 -> 247        0.53767
     246 <- 247       -0.11726

 Excited State   3:      Singlet-A      2.0189 eV  614.13 nm  f=0.0135  <S**2>=0.000
     243 -> 247        0.63917
     245 -> 247       -0.27811

 Excited State   4:      Singlet-A      2.0609 eV  601.60 nm  f=0.0643  <S**2>=0.000
     243 -> 247        0.29857
     245 -> 247        0.58352
     246 -> 248       -0.24379

 Excited State   5:      Singlet-A      2.1999 eV  563.58 nm  f=0.0000  <S**2>=0.000
     242 -> 247        0.70709

 The electronic state is 1-A.
 Alpha  occ. eigenvalues --  -46.27804 -18.82935 -18.79699 -18.76382 -18.75956
 Alpha  occ. eigenvalues --  -18.75532 -18.75260 -14.03305 -14.03046 -14.01113
 Alpha  occ. eigenvalues --  -14.01069 -10.03701 -10.03098  -9.99621  -9.99432
 Alpha  occ. eigenvalues --   -9.98166  -9.96832  -9.96770  -9.96658  -9.96199
 Alpha  occ. eigenvalues --   -9.96122  -9.96096  -9.95962  -9.95945  -9.95045
 Alpha  occ. eigenvalues --   -9.94469  -9.94148  -9.94108  -9.94085  -9.93983
 Alpha  occ. eigenvalues --   -9.93854  -9.93609  -9.93561  -9.93206  -9.93172
 Alpha  occ. eigenvalues --   -9.93082  -9.93052  -9.93012  -9.92825  -9.92745
 Alpha  occ. eigenvalues --   -9.92725  -9.92706  -9.92589  -9.92213  -9.92178
 Alpha  occ. eigenvalues --   -9.91702  -9.91628  -9.91624  -9.91614  -9.91594
 Alpha  occ. eigenvalues --   -9.91574  -9.91491  -9.91440  -9.91308  -9.91304
 Alpha  occ. eigenvalues --   -9.91237  -9.91039  -9.91018  -9.90906  -9.90825
 Alpha  occ. eigenvalues --   -9.90814  -9.90800  -9.90478  -9.90357  -9.90293
 Alpha  occ. eigenvalues --   -9.89871  -2.92319  -1.72724  -1.72225  -1.72017
 Alpha  occ. eigenvalues --   -0.98397  -0.97924  -0.94575  -0.92275  -0.89781
 Alpha  occ. eigenvalues --   -0.86627  -0.86370  -0.85599  -0.84964  -0.84283
 Alpha  occ. eigenvalues --   -0.76007  -0.73555  -0.72572  -0.72367  -0.72042
 Alpha  occ. eigenvalues --   -0.71993  -0.71659  -0.70935  -0.70558  -0.69327
 Alpha  occ. eigenvalues --   -0.69127  -0.69043  -0.68199  -0.67781  -0.67287
 Alpha  occ. eigenvalues --   -0.66492  -0.66103  -0.65257  -0.64965  -0.64345
 Alpha  occ. eigenvalues --   -0.63866  -0.62370  -0.61980  -0.61854  -0.60651
 Alpha  occ. eigenvalues --   -0.60437  -0.60180  -0.59757  -0.59471  -0.58977
 Alpha  occ. eigenvalues --   -0.58412  -0.57648  -0.56722  -0.55558  -0.54790
 Alpha  occ. eigenvalues --   -0.54253  -0.53873  -0.52574  -0.52336  -0.51590
 Alpha  occ. eigenvalues --   -0.51420  -0.50935  -0.50698  -0.50341  -0.49324
 Alpha  occ. eigenvalues --   -0.48820  -0.48754  -0.48077  -0.47517  -0.46146
 Alpha  occ. eigenvalues --   -0.45663  -0.45612  -0.45170  -0.45026  -0.44913
 Alpha  occ. eigenvalues --   -0.43787  -0.43563  -0.43347  -0.42717  -0.42303
 Alpha  occ. eigenvalues --   -0.42142  -0.41822  -0.41558  -0.41305  -0.40844
 Alpha  occ. eigenvalues --   -0.40718  -0.40587  -0.40323  -0.40301  -0.40232
 Alpha  occ. eigenvalues --   -0.39789  -0.39733  -0.39585  -0.39227  -0.39076
 Alpha  occ. eigenvalues --   -0.38846  -0.38758  -0.38523  -0.38341  -0.38269
 Alpha  occ. eigenvalues --   -0.38036  -0.38020  -0.37763  -0.37291  -0.37169
 Alpha  occ. eigenvalues --   -0.36927  -0.36793  -0.36554  -0.36512  -0.36233
 Alpha  occ. eigenvalues --   -0.36225  -0.35824  -0.35740  -0.35450  -0.35136
 Alpha  occ. eigenvalues --   -0.34881  -0.34767  -0.34714  -0.34615  -0.34315
 Alpha  occ. eigenvalues --   -0.34298  -0.34190  -0.34065  -0.34025  -0.33898
 Alpha  occ. eigenvalues --   -0.33704  -0.33494  -0.33378  -0.33194  -0.33124
 Alpha  occ. eigenvalues --   -0.33017  -0.32581  -0.32333  -0.32168  -0.32013
 Alpha  occ. eigenvalues --   -0.31926  -0.31846  -0.31792  -0.31662  -0.31570
 Alpha  occ. eigenvalues --   -0.31304  -0.31113  -0.30922  -0.30835  -0.30706
 Alpha  occ. eigenvalues --   -0.30589  -0.30110  -0.30025  -0.29755  -0.29713
 Alpha  occ. eigenvalues --   -0.29652  -0.29409  -0.29220  -0.29158  -0.29107
 Alpha  occ. eigenvalues --   -0.28647  -0.28303  -0.27941  -0.27889  -0.27422
 Alpha  occ. eigenvalues --   -0.27287  -0.26986  -0.26587  -0.26511  -0.26308
 Alpha  occ. eigenvalues --   -0.26034  -0.25709  -0.25413  -0.25332  -0.25256
 Alpha  occ. eigenvalues --   -0.25006  -0.24270  -0.23917  -0.23676  -0.23389
 Alpha  occ. eigenvalues --   -0.23174  -0.22163  -0.21621  -0.20752  -0.20441
 Alpha  occ. eigenvalues --   -0.20120  -0.19715  -0.18957  -0.18328  -0.17379
 Alpha  occ. eigenvalues --   -0.16006
 Alpha virt. eigenvalues --   -0.11631  -0.06814  -0.05943  -0.04199  -0.03464
 Alpha virt. eigenvalues --   -0.03135  -0.02467  -0.01502  -0.00470   0.00373
 Alpha virt. eigenvalues --    0.01348   0.01743   0.02112   0.02874   0.02898

 Mulliken charges:
               1
     1  Mg   0.683339
     2  C    0.037114
     3  C   -0.013986
     4  C   -0.044672
     5  C   -0.094085
     6  N   -0.174873
     7  C   -0.086047
     8  C    0.057103
     9  C    0.016621
    10  C   -0.090360
    11  C    0.163712
    12  C    0.089312
    13  C    0.072398
    14  C    0.047094
    15  O   -0.157437
    16  O   -0.286600
    17  N   -0.340349
    18  C    0.182420
    19  C   -0.163726
    20  C    0.047266
    21  C    0.162465
    22  C    0.179157
    23  C   -0.114056
    24  O   -0.107170
    25  C    0.144417
    26  N   -0.238053
    27  C   -0.037885
    28  C    0.006065
    29  C    0.027658
    30  C    0.081273
    31  C    0.147393
    32  C    0.081732
    33  C    0.041688
    34  N   -0.234761
    35  C    0.087205
    36  C   -0.221894
    37  C    0.109462
    38  C    0.083554
    39  C    0.183499
    40  C   -0.100065
    41  O   -0.109518
    42  C    0.062937
    43  C    0.139170
    44  O   -0.254304
    45  O   -0.237891
    46  C    0.205723
    47  C    0.363707
    48  C   -0.116232
    49  C   -0.144241
    50  C    0.177585
    51  C    0.105756
    52  C    0.040485
    53  C    0.108059
    54  C   -0.073816
    55  C    0.124805
    56  C    0.125599
    57  C    0.076934
    58  C    0.094960
    59  C   -0.087082
    60  C    0.076140
    61  C    0.115128
    62  C    0.065239
    63  C    0.104907
    64  C   -0.063608
    65  C    0.111263
    66  C    0.098055
    67  H   -0.067203
    68  H   -0.094270
    69  H   -0.054397
    70  H   -0.030396
    71  H   -0.017924
    72  H   -0.006829
    73  H    0.005510
    74  H   -0.020941
    75  H   -0.018051
    76  H   -0.027086
    77  H    0.037095
    78  H   -0.010762
    79  H    0.006686
    80  H   -0.021137
    81  H    0.013869
    82  H    0.010091
    83  H   -0.016017
    84  H    0.009103
    85  H   -0.019239
    86  H   -0.032526
    87  H   -0.016537
    88  H    0.007086
    89  H   -0.014350
    90  H   -0.008807
    91  H   -0.017317
    92  H   -0.014399
    93  H   -0.000361
    94  H    0.011831
    95  H   -0.013755
    96  H    0.021544
    97  H    0.025123
    98  H   -0.019427
    99  H    0.047066
   100  H    0.027006
   101  H    0.014711
   102  H   -0.031508
   103  H   -0.019216
   104  H   -0.038152
   105  H   -0.015839
   106  H    0.007479
   107  H   -0.004452
   108  H   -0.037554
   109  H   -0.007797
   110  H   -0.014787
   111  H   -0.019428
   112  H   -0.030819
   113  H   -0.033284
   114  H   -0.043594
   115  H   -0.027978
   116  H   -0.030725
   117  H   -0.013665
   118  H   -0.048078
   119  H   -0.030769
   120  H   -0.023546
   121  H   -0.033874
   122  H   -0.024927
   123  H   -0.032709
   124  H   -0.048137
   125  H   -0.029269
   126  H   -0.004530
   127  H   -0.025945
   128  H   -0.032035
   129  H   -0.049031
   130  H   -0.028228
   131  H   -0.019789
   132  H   -0.035795
   133  H   -0.030081
   134  H   -0.034815
   135  H   -0.023087
   136  H   -0.020476
   137  H   -0.041948
   138  H   -0.015722
   139  H   -0.020760
   140  H   -0.015808
 Sum of Mulliken charges =  -0.00000

 Dipole moment (field-independent basis, Debye):
    X=             -0.0362    Y=              1.8504    Z=             -0.1549  Tot=              1.8572
 Quadrupole moment (field-independent basis, Debye-Ang):
   XX=           -409.1177   YY=           -385.7446   ZZ=           -404.8263
   XY=            -33.0843   XZ=            -16.8468   YZ=            -21.8101

 Normal termination of Gaussian 16 at Thu May  5 13:50:32 2022.
