 Gaussian 16, Revision A.03,
 Gaussian 16:  ES64L-G16RevA.03 25-Dec-2016

 -----------------------------------
 #p cam-b3lyp/Def2SVP td=(nstates=5)
 -----------------------------------

 -------------------------------------------------------
 step_901_chromophore_11 TDDFT with cam-b3lyp functional
 -------------------------------------------------------
 Symbolic Z-matrix:
 Charge =  0 Multiplicity = 1

                         Standard orientation:
 ---------------------------------------------------------------------
 Center     Atomic      Atomic             Coordinates (Angstroms)
 Number     Number       Type             X           Y           Z
 ---------------------------------------------------------------------
      1         12           0       -4.432432    1.601683    0.666517
      2          6           0       -5.547723   -1.742168    0.306737
      3          6           0       -2.079769    0.407251    2.829951
      4          6           0       -3.132783    4.650299    0.581984
      5          6           0       -6.472109    2.461622   -2.221292
      6          7           0       -3.824180   -0.468883    1.476435
      7          6           0       -4.480065   -1.664739    1.240798
      8          6           0       -4.050812   -2.731105    2.295867
      9          6           0       -3.204527   -1.901588    3.306408
     10          6           0       -3.003984   -0.567311    2.506943
     11          6           0       -3.825512   -1.764401    4.670754
     12          6           0       -3.518141   -4.073037    1.700571
     13          6           0       -2.520543   -4.068845    0.472897
     14          6           0       -1.107327   -4.627157    0.631205
     15          8           0       -0.467186   -4.910452    1.587652
     16          8           0       -0.559763   -4.686908   -0.615191
     17          7           0       -2.804758    2.414786    1.562487
     18          6           0       -1.967185    1.792645    2.483890
     19          6           0       -1.137696    2.823244    3.048932
     20          6           0       -1.399122    4.047088    2.386901
     21          6           0       -2.490065    3.770120    1.494264
     22          6           0        0.008547    2.529643    4.031200
     23          6           0       -0.668156    5.364085    2.609973
     24          8           0        0.234238    5.457331    3.344748
     25          6           0       -0.988731    6.627330    1.853402
     26          7           0       -4.732886    3.233086   -0.646391
     27          6           0       -4.136881    4.464978   -0.400613
     28          6           0       -4.624643    5.574151   -1.275923
     29          6           0       -5.545607    4.765161   -2.320238
     30          6           0       -5.608914    3.358146   -1.698776
     31          6           0       -5.322237    6.769598   -0.589804
     32          6           0       -5.011849    4.867636   -3.800487
     33          6           0       -3.664659    4.110534   -4.073427
     34          7           0       -5.893555    0.664022   -0.663186
     35          6           0       -6.606873    1.102410   -1.731719
     36          6           0       -7.595780    0.032220   -2.067424
     37          6           0       -7.185784   -1.101223   -1.315780
     38          6           0       -6.107024   -0.667718   -0.454734
     39          6           0       -8.799486    0.147979   -3.025272
     40          6           0       -7.441527   -2.485195   -1.024904
     41          8           0       -8.322480   -3.260008   -1.311477
     42          6           0       -6.224001   -2.965931   -0.131008
     43          6           0       -5.444275   -3.823965   -1.016973
     44          8           0       -4.802618   -3.444158   -2.074850
     45          8           0       -5.751386   -5.085536   -0.733658
     46          6           0       -4.986689   -6.153026   -1.391846
     47          6           0        0.798648   -5.187056   -0.810866
     48          6           0        1.843872   -4.119814   -0.888185
     49          6           0        2.729156   -3.844010    0.123584
     50          6           0        2.915496   -4.710939    1.348120
     51          6           0        3.690488   -2.662354   -0.018561
     52          6           0        4.181426   -2.290667   -1.457715
     53          6           0        5.590506   -1.731230   -1.597009
     54          6           0        5.734282   -0.303765   -0.916166
     55          6           0        5.879996    0.727209   -1.971877
     56          6           0        6.857226   -0.260295    0.159726
     57          6           0        8.195529   -0.709403   -0.396194
     58          6           0        9.268679    0.409782   -0.342914
     59          6           0       10.743091   -0.111853   -0.275748
     60          6           0       10.909511   -0.949651    1.043996
     61          6           0       11.815689    1.033954   -0.448514
     62          6           0       13.051612    0.658676   -1.343953
     63          6           0       14.356759    0.350755   -0.531277
     64          6           0       15.578915    1.111557   -1.032286
     65          6           0       16.759994    0.244802   -1.039508
     66          6           0       15.823569    2.522385   -0.379245
     67          1           0       -1.449995   -0.104751    3.560555
     68          1           0       -2.774302    5.676687    0.481775
     69          1           0       -7.103121    2.766920   -3.058150
     70          1           0       -4.947787   -3.079619    2.808620
     71          1           0       -2.220483   -2.360003    3.405878
     72          1           0       -4.177235   -0.747152    4.838888
     73          1           0       -3.132430   -2.185307    5.399409
     74          1           0       -4.752701   -2.332954    4.741730
     75          1           0       -4.334174   -4.746517    1.439041
     76          1           0       -2.984572   -4.643664    2.460935
     77          1           0       -2.388431   -3.083399    0.025719
     78          1           0       -2.977833   -4.760342   -0.235949
     79          1           0        0.906677    2.522484    3.414307
     80          1           0       -0.013432    1.550064    4.506915
     81          1           0        0.020604    3.351305    4.748118
     82          1           0       -0.777317    6.433039    0.802003
     83          1           0       -0.392806    7.497657    2.129976
     84          1           0       -2.042329    6.867857    1.996093
     85          1           0       -3.714953    5.991689   -1.707806
     86          1           0       -6.559495    5.162918   -2.290449
     87          1           0       -4.749048    7.639998   -0.910132
     88          1           0       -5.384005    6.575406    0.480907
     89          1           0       -6.283319    7.021759   -1.038616
     90          1           0       -4.901081    5.930314   -4.015166
     91          1           0       -5.694991    4.294413   -4.426213
     92          1           0       -2.980912    4.839415   -4.509923
     93          1           0       -3.857632    3.312539   -4.790063
     94          1           0       -3.147803    3.716944   -3.198115
     95          1           0       -8.886353    1.202173   -3.291086
     96          1           0       -9.628229   -0.208829   -2.414536
     97          1           0       -8.536636   -0.489457   -3.869014
     98          1           0       -6.723201   -3.517895    0.665261
     99          1           0       -4.111258   -5.816959   -1.947049
    100          1           0       -5.673557   -6.668922   -2.063022
    101          1           0       -4.654974   -6.777625   -0.561977
    102          1           0        0.627453   -5.632514   -1.791049
    103          1           0        0.973666   -5.915194   -0.018462
    104          1           0        1.925672   -3.535510   -1.805287
    105          1           0        3.996035   -4.678251    1.485569
    106          1           0        2.464658   -5.702903    1.388781
    107          1           0        2.549647   -4.125048    2.191262
    108          1           0        4.487561   -2.530216    0.713243
    109          1           0        3.022605   -1.850779    0.270547
    110          1           0        3.378743   -1.650515   -1.823438
    111          1           0        4.229521   -3.186095   -2.078086
    112          1           0        5.919801   -1.743107   -2.635644
    113          1           0        6.222905   -2.448273   -1.073694
    114          1           0        4.782767   -0.133525   -0.412016
    115          1           0        6.804797    0.634312   -2.541476
    116          1           0        6.054747    1.707302   -1.529782
    117          1           0        5.039685    0.713112   -2.665395
    118          1           0        6.484794   -0.979572    0.889835
    119          1           0        6.910967    0.690838    0.689536
    120          1           0        8.068275   -0.923347   -1.457093
    121          1           0        8.549442   -1.639143    0.049194
    122          1           0        9.189645    1.083977    0.509837
    123          1           0        9.171884    0.975329   -1.270310
    124          1           0       10.999240   -0.904764   -0.977069
    125          1           0       11.849415   -0.723639    1.548504
    126          1           0       10.840065   -2.007832    0.791784
    127          1           0       10.245376   -0.710767    1.875111
    128          1           0       11.908076    1.429585    0.562388
    129          1           0       11.344865    1.856991   -0.985968
    130          1           0       13.253132    1.544019   -1.946406
    131          1           0       12.890947   -0.181679   -2.019263
    132          1           0       14.433228   -0.733890   -0.596422
    133          1           0       14.209186    0.582438    0.523614
    134          1           0       15.392548    1.355777   -2.078167
    135          1           0       17.117597    0.012716   -2.042708
    136          1           0       16.729303   -0.694008   -0.485672
    137          1           0       17.627153    0.720768   -0.582543
    138          1           0       15.057856    2.842011    0.327517
    139          1           0       15.821582    3.252259   -1.188947
    140          1           0       16.789602    2.674627    0.100700
 ---------------------------------------------------------------------

 SCF Done:  E(RCAM-B3LYP) =  -3007.16781385     A.U. after   17 cycles

 Excitation energies and oscillator strengths:

 Excited State   1:      Singlet-A      1.7195 eV  721.06 nm  f=0.3733  <S**2>=0.000
     245 -> 248        0.18596
     246 -> 247        0.68473
     245 <- 248        0.10935
 This state for optimization and/or second-order correction.
 Total Energy, E(TD-HF/TD-DFT) =  -3007.10462419
 Copying the excited state density for this state as the 1-particle RhoCI density.

 Excited State   2:      Singlet-A      2.2583 eV  549.02 nm  f=0.1129  <S**2>=0.000
     245 -> 247        0.64235
     246 -> 248       -0.28479

 Excited State   3:      Singlet-A      3.3237 eV  373.03 nm  f=0.0016  <S**2>=0.000
     242 -> 247        0.32175
     243 -> 247        0.61286

 Excited State   4:      Singlet-A      3.4162 eV  362.93 nm  f=0.0126  <S**2>=0.000
     242 -> 247        0.57666
     243 -> 247       -0.30398
     246 -> 248        0.23218

 Excited State   5:      Singlet-A      3.5520 eV  349.05 nm  f=0.0203  <S**2>=0.000
     239 -> 247        0.10086
     240 -> 247        0.57388
     240 -> 249       -0.30024
     240 -> 251       -0.10956
     246 -> 248       -0.13066

 The electronic state is 1-A.
 Alpha  occ. eigenvalues --  -46.89426 -19.26089 -19.22517 -19.19374 -19.19076
 Alpha  occ. eigenvalues --  -19.18669 -19.18451 -14.42432 -14.41733 -14.39573
 Alpha  occ. eigenvalues --  -14.39541 -10.39374 -10.38329 -10.34938 -10.34447
 Alpha  occ. eigenvalues --  -10.32301 -10.31346 -10.31310 -10.30853 -10.30841
 Alpha  occ. eigenvalues --  -10.30598 -10.30343 -10.30330 -10.30258 -10.29300
 Alpha  occ. eigenvalues --  -10.28615 -10.28609 -10.28501 -10.28310 -10.28153
 Alpha  occ. eigenvalues --  -10.27918 -10.27810 -10.27780 -10.27406 -10.27405
 Alpha  occ. eigenvalues --  -10.27247 -10.27183 -10.26908 -10.26703 -10.26568
 Alpha  occ. eigenvalues --  -10.26541 -10.26534 -10.26375 -10.26308 -10.25880
 Alpha  occ. eigenvalues --  -10.25563 -10.25493 -10.25372 -10.25333 -10.25297
 Alpha  occ. eigenvalues --  -10.25287 -10.25199 -10.25163 -10.25070 -10.25002
 Alpha  occ. eigenvalues --  -10.24981 -10.24749 -10.24735 -10.24726 -10.24486
 Alpha  occ. eigenvalues --  -10.24478 -10.24397 -10.24119 -10.23969 -10.23842
 Alpha  occ. eigenvalues --  -10.23396  -3.17837  -1.92720  -1.92306  -1.92123
 Alpha  occ. eigenvalues --   -1.17041  -1.16480  -1.13114  -1.10674  -1.07644
 Alpha  occ. eigenvalues --   -1.04590  -1.04258  -1.03186  -1.02546  -1.01792
 Alpha  occ. eigenvalues --   -0.93251  -0.90428  -0.89393  -0.89149  -0.88751
 Alpha  occ. eigenvalues --   -0.88679  -0.88220  -0.87575  -0.87144  -0.85791
 Alpha  occ. eigenvalues --   -0.85714  -0.85484  -0.84433  -0.83995  -0.83468
 Alpha  occ. eigenvalues --   -0.82439  -0.82155  -0.81205  -0.80953  -0.80238
 Alpha  occ. eigenvalues --   -0.79655  -0.78043  -0.77629  -0.77401  -0.76075
 Alpha  occ. eigenvalues --   -0.75777  -0.75542  -0.75075  -0.74793  -0.74246
 Alpha  occ. eigenvalues --   -0.73500  -0.72627  -0.71636  -0.70382  -0.69349
 Alpha  occ. eigenvalues --   -0.68935  -0.68488  -0.67087  -0.66727  -0.65785
 Alpha  occ. eigenvalues --   -0.65656  -0.65065  -0.64610  -0.64358  -0.63290
 Alpha  occ. eigenvalues --   -0.62752  -0.62600  -0.61809  -0.61224  -0.59779
 Alpha  occ. eigenvalues --   -0.59335  -0.59206  -0.58811  -0.58569  -0.58180
 Alpha  occ. eigenvalues --   -0.57307  -0.56980  -0.56681  -0.55998  -0.55436
 Alpha  occ. eigenvalues --   -0.55102  -0.54780  -0.54700  -0.54331  -0.53626
 Alpha  occ. eigenvalues --   -0.53446  -0.53317  -0.53082  -0.53000  -0.52839
 Alpha  occ. eigenvalues --   -0.52761  -0.52554  -0.52312  -0.52084  -0.51833
 Alpha  occ. eigenvalues --   -0.51501  -0.51219  -0.50931  -0.50748  -0.50693
 Alpha  occ. eigenvalues --   -0.50471  -0.50267  -0.50048  -0.49868  -0.49568
 Alpha  occ. eigenvalues --   -0.49466  -0.49376  -0.49072  -0.48987  -0.48796
 Alpha  occ. eigenvalues --   -0.48548  -0.48012  -0.47789  -0.47571  -0.47157
 Alpha  occ. eigenvalues --   -0.46978  -0.46802  -0.46604  -0.46460  -0.46350
 Alpha  occ. eigenvalues --   -0.46183  -0.46099  -0.45941  -0.45719  -0.45642
 Alpha  occ. eigenvalues --   -0.45549  -0.45359  -0.45173  -0.44873  -0.44789
 Alpha  occ. eigenvalues --   -0.44645  -0.44460  -0.44134  -0.44013  -0.43809
 Alpha  occ. eigenvalues --   -0.43717  -0.43366  -0.43272  -0.43245  -0.43013
 Alpha  occ. eigenvalues --   -0.42722  -0.42579  -0.42402  -0.42292  -0.42173
 Alpha  occ. eigenvalues --   -0.42063  -0.41715  -0.41340  -0.41308  -0.40971
 Alpha  occ. eigenvalues --   -0.40789  -0.40540  -0.40503  -0.40441  -0.40277
 Alpha  occ. eigenvalues --   -0.39743  -0.39673  -0.39417  -0.38841  -0.38308
 Alpha  occ. eigenvalues --   -0.38047  -0.37771  -0.37543  -0.37378  -0.37027
 Alpha  occ. eigenvalues --   -0.36935  -0.36389  -0.36291  -0.36077  -0.35849
 Alpha  occ. eigenvalues --   -0.35785  -0.35668  -0.35175  -0.34066  -0.33752
 Alpha  occ. eigenvalues --   -0.33675  -0.33378  -0.33043  -0.31395  -0.30665
 Alpha  occ. eigenvalues --   -0.30504  -0.29942  -0.29393  -0.29242  -0.24149
 Alpha  occ. eigenvalues --   -0.21372
 Alpha virt. eigenvalues --   -0.08798  -0.01730   0.00678   0.01503   0.02893
 Alpha virt. eigenvalues --    0.04215   0.04968   0.05555   0.06934   0.07577
 Alpha virt. eigenvalues --    0.08062   0.08816   0.08944   0.09080   0.09171

 Mulliken charges:
               1
     1  Mg   0.813950
     2  C    0.014529
     3  C   -0.025070
     4  C   -0.076994
     5  C   -0.102276
     6  N   -0.237062
     7  C   -0.055200
     8  C    0.016881
     9  C   -0.039749
    10  C   -0.072760
    11  C    0.100698
    12  C    0.036360
    13  C    0.000651
    14  C    0.135217
    15  O   -0.199257
    16  O   -0.351567
    17  N   -0.429511
    18  C    0.186377
    19  C   -0.164533
    20  C   -0.028769
    21  C    0.196895
    22  C    0.127574
    23  C   -0.034271
    24  O   -0.147424
    25  C    0.059850
    26  N   -0.313431
    27  C   -0.005247
    28  C   -0.051763
    29  C   -0.025390
    30  C    0.096225
    31  C    0.087014
    32  C    0.032732
    33  C   -0.020167
    34  N   -0.318966
    35  C    0.092962
    36  C   -0.216056
    37  C    0.031823
    38  C    0.116978
    39  C    0.138066
    40  C    0.000248
    41  O   -0.149157
    42  C   -0.020960
    43  C    0.223125
    44  O   -0.290734
    45  O   -0.298267
    46  C    0.164337
    47  C    0.325985
    48  C   -0.143953
    49  C   -0.156192
    50  C    0.111387
    51  C    0.047099
    52  C   -0.011910
    53  C    0.050759
    54  C   -0.134490
    55  C    0.068747
    56  C    0.075217
    57  C    0.014295
    58  C    0.048880
    59  C   -0.136474
    60  C    0.016705
    61  C    0.058438
    62  C    0.011194
    63  C    0.051667
    64  C   -0.128599
    65  C    0.047972
    66  C    0.040516
    67  H   -0.030180
    68  H   -0.057955
    69  H   -0.020369
    70  H    0.005538
    71  H    0.017399
    72  H    0.019997
    73  H    0.029882
    74  H    0.005372
    75  H    0.010764
    76  H    0.009120
    77  H    0.069138
    78  H    0.017115
    79  H    0.033843
    80  H    0.004788
    81  H    0.041284
    82  H    0.036308
    83  H    0.020518
    84  H    0.034462
    85  H    0.014660
    86  H    0.003099
    87  H    0.008032
    88  H    0.032174
    89  H    0.011659
    90  H    0.017282
    91  H    0.010006
    92  H    0.008851
    93  H    0.023757
    94  H    0.032700
    95  H    0.008733
    96  H    0.045575
    97  H    0.049466
    98  H    0.027584
    99  H    0.071676
   100  H    0.053038
   101  H    0.035823
   102  H    0.001228
   103  H    0.011714
   104  H   -0.003287
   105  H    0.008915
   106  H    0.032225
   107  H    0.020943
   108  H   -0.009218
   109  H    0.021621
   110  H    0.011043
   111  H    0.009442
   112  H   -0.000493
   113  H   -0.004273
   114  H   -0.010698
   115  H   -0.005748
   116  H   -0.004989
   117  H    0.010936
   118  H   -0.019076
   119  H   -0.001140
   120  H    0.003889
   121  H   -0.004090
   122  H    0.000588
   123  H   -0.006329
   124  H   -0.016751
   125  H   -0.004734
   126  H    0.017895
   127  H   -0.001195
   128  H   -0.004598
   129  H   -0.017406
   130  H   -0.000360
   131  H    0.008384
   132  H   -0.005810
   133  H   -0.003490
   134  H   -0.001637
   135  H    0.002187
   136  H    0.004851
   137  H   -0.015762
   138  H    0.007523
   139  H    0.003033
   140  H    0.008369
 Sum of Mulliken charges =  -0.00000

 Dipole moment (field-independent basis, Debye):
    X=              0.1465    Y=              1.9217    Z=              0.1937  Tot=              1.9370
 Quadrupole moment (field-independent basis, Debye-Ang):
   XX=           -410.5308   YY=           -380.7587   ZZ=           -403.8683
   XY=            -33.1096   XZ=            -17.7932   YZ=            -22.5196

 Normal termination of Gaussian 16 at Thu May  5 12:22:30 2022.
