 Gaussian 16, Revision A.03,
 Gaussian 16:  ES64L-G16RevA.03 25-Dec-2016

 ---------------------------------
 #p PBE1PBE/Def2SVP td=(nstates=5)
 ---------------------------------

 -----------------------------------------------------
 step_901_chromophore_11 TDDFT with PBE1PBE functional
 -----------------------------------------------------
 Symbolic Z-matrix:
 Charge =  0 Multiplicity = 1

                         Standard orientation:
 ---------------------------------------------------------------------
 Center     Atomic      Atomic             Coordinates (Angstroms)
 Number     Number       Type             X           Y           Z
 ---------------------------------------------------------------------
      1         12           0       -4.432432    1.601683    0.666517
      2          6           0       -5.547723   -1.742168    0.306737
      3          6           0       -2.079769    0.407251    2.829951
      4          6           0       -3.132783    4.650299    0.581984
      5          6           0       -6.472109    2.461622   -2.221292
      6          7           0       -3.824180   -0.468883    1.476435
      7          6           0       -4.480065   -1.664739    1.240798
      8          6           0       -4.050812   -2.731105    2.295867
      9          6           0       -3.204527   -1.901588    3.306408
     10          6           0       -3.003984   -0.567311    2.506943
     11          6           0       -3.825512   -1.764401    4.670754
     12          6           0       -3.518141   -4.073037    1.700571
     13          6           0       -2.520543   -4.068845    0.472897
     14          6           0       -1.107327   -4.627157    0.631205
     15          8           0       -0.467186   -4.910452    1.587652
     16          8           0       -0.559763   -4.686908   -0.615191
     17          7           0       -2.804758    2.414786    1.562487
     18          6           0       -1.967185    1.792645    2.483890
     19          6           0       -1.137696    2.823244    3.048932
     20          6           0       -1.399122    4.047088    2.386901
     21          6           0       -2.490065    3.770120    1.494264
     22          6           0        0.008547    2.529643    4.031200
     23          6           0       -0.668156    5.364085    2.609973
     24          8           0        0.234238    5.457331    3.344748
     25          6           0       -0.988731    6.627330    1.853402
     26          7           0       -4.732886    3.233086   -0.646391
     27          6           0       -4.136881    4.464978   -0.400613
     28          6           0       -4.624643    5.574151   -1.275923
     29          6           0       -5.545607    4.765161   -2.320238
     30          6           0       -5.608914    3.358146   -1.698776
     31          6           0       -5.322237    6.769598   -0.589804
     32          6           0       -5.011849    4.867636   -3.800487
     33          6           0       -3.664659    4.110534   -4.073427
     34          7           0       -5.893555    0.664022   -0.663186
     35          6           0       -6.606873    1.102410   -1.731719
     36          6           0       -7.595780    0.032220   -2.067424
     37          6           0       -7.185784   -1.101223   -1.315780
     38          6           0       -6.107024   -0.667718   -0.454734
     39          6           0       -8.799486    0.147979   -3.025272
     40          6           0       -7.441527   -2.485195   -1.024904
     41          8           0       -8.322480   -3.260008   -1.311477
     42          6           0       -6.224001   -2.965931   -0.131008
     43          6           0       -5.444275   -3.823965   -1.016973
     44          8           0       -4.802618   -3.444158   -2.074850
     45          8           0       -5.751386   -5.085536   -0.733658
     46          6           0       -4.986689   -6.153026   -1.391846
     47          6           0        0.798648   -5.187056   -0.810866
     48          6           0        1.843872   -4.119814   -0.888185
     49          6           0        2.729156   -3.844010    0.123584
     50          6           0        2.915496   -4.710939    1.348120
     51          6           0        3.690488   -2.662354   -0.018561
     52          6           0        4.181426   -2.290667   -1.457715
     53          6           0        5.590506   -1.731230   -1.597009
     54          6           0        5.734282   -0.303765   -0.916166
     55          6           0        5.879996    0.727209   -1.971877
     56          6           0        6.857226   -0.260295    0.159726
     57          6           0        8.195529   -0.709403   -0.396194
     58          6           0        9.268679    0.409782   -0.342914
     59          6           0       10.743091   -0.111853   -0.275748
     60          6           0       10.909511   -0.949651    1.043996
     61          6           0       11.815689    1.033954   -0.448514
     62          6           0       13.051612    0.658676   -1.343953
     63          6           0       14.356759    0.350755   -0.531277
     64          6           0       15.578915    1.111557   -1.032286
     65          6           0       16.759994    0.244802   -1.039508
     66          6           0       15.823569    2.522385   -0.379245
     67          1           0       -1.449995   -0.104751    3.560555
     68          1           0       -2.774302    5.676687    0.481775
     69          1           0       -7.103121    2.766920   -3.058150
     70          1           0       -4.947787   -3.079619    2.808620
     71          1           0       -2.220483   -2.360003    3.405878
     72          1           0       -4.177235   -0.747152    4.838888
     73          1           0       -3.132430   -2.185307    5.399409
     74          1           0       -4.752701   -2.332954    4.741730
     75          1           0       -4.334174   -4.746517    1.439041
     76          1           0       -2.984572   -4.643664    2.460935
     77          1           0       -2.388431   -3.083399    0.025719
     78          1           0       -2.977833   -4.760342   -0.235949
     79          1           0        0.906677    2.522484    3.414307
     80          1           0       -0.013432    1.550064    4.506915
     81          1           0        0.020604    3.351305    4.748118
     82          1           0       -0.777317    6.433039    0.802003
     83          1           0       -0.392806    7.497657    2.129976
     84          1           0       -2.042329    6.867857    1.996093
     85          1           0       -3.714953    5.991689   -1.707806
     86          1           0       -6.559495    5.162918   -2.290449
     87          1           0       -4.749048    7.639998   -0.910132
     88          1           0       -5.384005    6.575406    0.480907
     89          1           0       -6.283319    7.021759   -1.038616
     90          1           0       -4.901081    5.930314   -4.015166
     91          1           0       -5.694991    4.294413   -4.426213
     92          1           0       -2.980912    4.839415   -4.509923
     93          1           0       -3.857632    3.312539   -4.790063
     94          1           0       -3.147803    3.716944   -3.198115
     95          1           0       -8.886353    1.202173   -3.291086
     96          1           0       -9.628229   -0.208829   -2.414536
     97          1           0       -8.536636   -0.489457   -3.869014
     98          1           0       -6.723201   -3.517895    0.665261
     99          1           0       -4.111258   -5.816959   -1.947049
    100          1           0       -5.673557   -6.668922   -2.063022
    101          1           0       -4.654974   -6.777625   -0.561977
    102          1           0        0.627453   -5.632514   -1.791049
    103          1           0        0.973666   -5.915194   -0.018462
    104          1           0        1.925672   -3.535510   -1.805287
    105          1           0        3.996035   -4.678251    1.485569
    106          1           0        2.464658   -5.702903    1.388781
    107          1           0        2.549647   -4.125048    2.191262
    108          1           0        4.487561   -2.530216    0.713243
    109          1           0        3.022605   -1.850779    0.270547
    110          1           0        3.378743   -1.650515   -1.823438
    111          1           0        4.229521   -3.186095   -2.078086
    112          1           0        5.919801   -1.743107   -2.635644
    113          1           0        6.222905   -2.448273   -1.073694
    114          1           0        4.782767   -0.133525   -0.412016
    115          1           0        6.804797    0.634312   -2.541476
    116          1           0        6.054747    1.707302   -1.529782
    117          1           0        5.039685    0.713112   -2.665395
    118          1           0        6.484794   -0.979572    0.889835
    119          1           0        6.910967    0.690838    0.689536
    120          1           0        8.068275   -0.923347   -1.457093
    121          1           0        8.549442   -1.639143    0.049194
    122          1           0        9.189645    1.083977    0.509837
    123          1           0        9.171884    0.975329   -1.270310
    124          1           0       10.999240   -0.904764   -0.977069
    125          1           0       11.849415   -0.723639    1.548504
    126          1           0       10.840065   -2.007832    0.791784
    127          1           0       10.245376   -0.710767    1.875111
    128          1           0       11.908076    1.429585    0.562388
    129          1           0       11.344865    1.856991   -0.985968
    130          1           0       13.253132    1.544019   -1.946406
    131          1           0       12.890947   -0.181679   -2.019263
    132          1           0       14.433228   -0.733890   -0.596422
    133          1           0       14.209186    0.582438    0.523614
    134          1           0       15.392548    1.355777   -2.078167
    135          1           0       17.117597    0.012716   -2.042708
    136          1           0       16.729303   -0.694008   -0.485672
    137          1           0       17.627153    0.720768   -0.582543
    138          1           0       15.057856    2.842011    0.327517
    139          1           0       15.821582    3.252259   -1.188947
    140          1           0       16.789602    2.674627    0.100700
 ---------------------------------------------------------------------

 SCF Done:  E(RPBE1PBE) =  -3005.35694907     A.U. after   15 cycles

 Excitation energies and oscillator strengths:

 Excited State   1:      Singlet-A      1.8828 eV  658.52 nm  f=0.3611  <S**2>=0.000
     245 -> 248        0.18002
     246 -> 247        0.69171
     246 <- 247       -0.10623
 This state for optimization and/or second-order correction.
 Total Energy, E(TD-HF/TD-DFT) =  -3005.28775828
 Copying the excited state density for this state as the 1-particle RhoCI density.

 Excited State   2:      Singlet-A      2.2627 eV  547.95 nm  f=0.1067  <S**2>=0.000
     245 -> 247        0.65088
     246 -> 248       -0.26723

 Excited State   3:      Singlet-A      2.9849 eV  415.37 nm  f=0.0006  <S**2>=0.000
     241 -> 247        0.20905
     242 -> 247       -0.15759
     243 -> 247        0.64804

 Excited State   4:      Singlet-A      3.0209 eV  410.42 nm  f=0.0017  <S**2>=0.000
     240 -> 247       -0.30757
     241 -> 247       -0.19785
     242 -> 247        0.53885
     243 -> 247        0.21534

 Excited State   5:      Singlet-A      3.0324 eV  408.86 nm  f=0.0002  <S**2>=0.000
     240 -> 247        0.42695
     240 -> 249       -0.11278
     241 -> 247        0.35487
     242 -> 247        0.39818

 The electronic state is 1-A.
 Alpha  occ. eigenvalues --  -46.92804 -19.26669 -19.23190 -19.19564 -19.19333
 Alpha  occ. eigenvalues --  -19.18921 -19.18600 -14.41756 -14.41387 -14.39227
 Alpha  occ. eigenvalues --  -14.39203 -10.36348 -10.35280 -10.32108 -10.31553
 Alpha  occ. eigenvalues --  -10.29498 -10.29160 -10.28950 -10.28386 -10.28239
 Alpha  occ. eigenvalues --  -10.28200 -10.28148 -10.28023 -10.27984 -10.27118
 Alpha  occ. eigenvalues --  -10.26406 -10.26357 -10.26285 -10.25878 -10.25876
 Alpha  occ. eigenvalues --  -10.25745 -10.25675 -10.25439 -10.24998 -10.24858
 Alpha  occ. eigenvalues --  -10.24851 -10.24637 -10.24582 -10.24471 -10.24300
 Alpha  occ. eigenvalues --  -10.24242 -10.24024 -10.23875 -10.23726 -10.23445
 Alpha  occ. eigenvalues --  -10.23095 -10.23074 -10.22882 -10.22871 -10.22855
 Alpha  occ. eigenvalues --  -10.22849 -10.22713 -10.22712 -10.22600 -10.22557
 Alpha  occ. eigenvalues --  -10.22550 -10.22310 -10.22301 -10.22285 -10.22025
 Alpha  occ. eigenvalues --  -10.21998 -10.21787 -10.21656 -10.21371 -10.21185
 Alpha  occ. eigenvalues --  -10.20748  -3.14799  -1.87623  -1.87187  -1.87007
 Alpha  occ. eigenvalues --   -1.11781  -1.11246  -1.07870  -1.05457  -1.02487
 Alpha  occ. eigenvalues --   -0.99257  -0.98826  -0.97849  -0.97187  -0.96430
 Alpha  occ. eigenvalues --   -0.87599  -0.84501  -0.83552  -0.83270  -0.83012
 Alpha  occ. eigenvalues --   -0.82854  -0.82512  -0.81865  -0.81238  -0.80004
 Alpha  occ. eigenvalues --   -0.79984  -0.79803  -0.78708  -0.78175  -0.77676
 Alpha  occ. eigenvalues --   -0.76705  -0.76316  -0.75382  -0.75226  -0.74513
 Alpha  occ. eigenvalues --   -0.73803  -0.72294  -0.71922  -0.71711  -0.70379
 Alpha  occ. eigenvalues --   -0.69929  -0.69621  -0.69415  -0.68880  -0.68394
 Alpha  occ. eigenvalues --   -0.67820  -0.67055  -0.66040  -0.64684  -0.63746
 Alpha  occ. eigenvalues --   -0.63097  -0.62987  -0.61526  -0.60946  -0.60219
 Alpha  occ. eigenvalues --   -0.59906  -0.59510  -0.59101  -0.58924  -0.57456
 Alpha  occ. eigenvalues --   -0.57142  -0.56891  -0.56192  -0.55587  -0.54302
 Alpha  occ. eigenvalues --   -0.53785  -0.53694  -0.53177  -0.53070  -0.52749
 Alpha  occ. eigenvalues --   -0.51743  -0.51416  -0.51066  -0.50547  -0.49986
 Alpha  occ. eigenvalues --   -0.49622  -0.49335  -0.49064  -0.48795  -0.48168
 Alpha  occ. eigenvalues --   -0.47953  -0.47832  -0.47639  -0.47498  -0.47357
 Alpha  occ. eigenvalues --   -0.47244  -0.46997  -0.46855  -0.46598  -0.46401
 Alpha  occ. eigenvalues --   -0.45980  -0.45856  -0.45474  -0.45278  -0.45179
 Alpha  occ. eigenvalues --   -0.45077  -0.44873  -0.44570  -0.44433  -0.44146
 Alpha  occ. eigenvalues --   -0.44017  -0.43932  -0.43736  -0.43529  -0.43342
 Alpha  occ. eigenvalues --   -0.43116  -0.42587  -0.42467  -0.42164  -0.41788
 Alpha  occ. eigenvalues --   -0.41620  -0.41426  -0.41284  -0.41074  -0.41040
 Alpha  occ. eigenvalues --   -0.40874  -0.40809  -0.40675  -0.40346  -0.40315
 Alpha  occ. eigenvalues --   -0.40208  -0.40106  -0.39834  -0.39559  -0.39450
 Alpha  occ. eigenvalues --   -0.39279  -0.39153  -0.38837  -0.38738  -0.38569
 Alpha  occ. eigenvalues --   -0.38454  -0.38119  -0.38052  -0.37945  -0.37775
 Alpha  occ. eigenvalues --   -0.37582  -0.37386  -0.37232  -0.37062  -0.36950
 Alpha  occ. eigenvalues --   -0.36837  -0.36594  -0.36153  -0.36010  -0.35717
 Alpha  occ. eigenvalues --   -0.35666  -0.35357  -0.35285  -0.35246  -0.35039
 Alpha  occ. eigenvalues --   -0.34663  -0.34565  -0.34304  -0.33600  -0.33122
 Alpha  occ. eigenvalues --   -0.33063  -0.32590  -0.32570  -0.32187  -0.31973
 Alpha  occ. eigenvalues --   -0.31815  -0.31349  -0.31176  -0.30894  -0.30736
 Alpha  occ. eigenvalues --   -0.30682  -0.30545  -0.30087  -0.29286  -0.28732
 Alpha  occ. eigenvalues --   -0.28716  -0.28434  -0.28048  -0.26982  -0.25685
 Alpha  occ. eigenvalues --   -0.25480  -0.25218  -0.25072  -0.24565  -0.21074
 Alpha  occ. eigenvalues --   -0.18975
 Alpha virt. eigenvalues --   -0.11248  -0.05204  -0.03598  -0.01577  -0.01219
 Alpha virt. eigenvalues --   -0.00319   0.00546   0.01291   0.02980   0.03330
 Alpha virt. eigenvalues --    0.04349   0.04741   0.04935   0.05688   0.05867

 Mulliken charges:
               1
     1  Mg   0.956050
     2  C   -0.003527
     3  C   -0.027369
     4  C   -0.076172
     5  C   -0.090767
     6  N   -0.338839
     7  C    0.027049
     8  C   -0.044710
     9  C   -0.123653
    10  C   -0.027287
    11  C    0.045068
    12  C   -0.014924
    13  C   -0.083184
    14  C    0.209852
    15  O   -0.235649
    16  O   -0.382460
    17  N   -0.543353
    18  C    0.210417
    19  C   -0.190430
    20  C   -0.081246
    21  C    0.224359
    22  C    0.070043
    23  C    0.023355
    24  O   -0.184408
    25  C   -0.020969
    26  N   -0.414625
    27  C    0.030200
    28  C   -0.122651
    29  C   -0.098800
    30  C    0.127898
    31  C    0.029732
    32  C   -0.033257
    33  C   -0.090224
    34  N   -0.440426
    35  C    0.120427
    36  C   -0.223213
    37  C   -0.016382
    38  C    0.171190
    39  C    0.080156
    40  C    0.087544
    41  O   -0.195075
    42  C   -0.131679
    43  C    0.310678
    44  O   -0.323332
    45  O   -0.331087
    46  C    0.109588
    47  C    0.278727
    48  C   -0.155409
    49  C   -0.194123
    50  C    0.046541
    51  C   -0.011718
    52  C   -0.079650
    53  C   -0.002950
    54  C   -0.229168
    55  C    0.012830
    56  C    0.019023
    57  C   -0.049629
    58  C   -0.008926
    59  C   -0.215077
    60  C   -0.040923
    61  C    0.003162
    62  C   -0.054186
    63  C   -0.000142
    64  C   -0.227309
    65  C   -0.008533
    66  C   -0.016918
    67  H    0.002121
    68  H   -0.022913
    69  H    0.010707
    70  H    0.044231
    71  H    0.054578
    72  H    0.047884
    73  H    0.056190
    74  H    0.032474
    75  H    0.044142
    76  H    0.041433
    77  H    0.100511
    78  H    0.058387
    79  H    0.061868
    80  H    0.032055
    81  H    0.067825
    82  H    0.063455
    83  H    0.049272
    84  H    0.060885
    85  H    0.050770
    86  H    0.040331
    87  H    0.035168
    88  H    0.059157
    89  H    0.038642
    90  H    0.049982
    91  H    0.043330
    92  H    0.036975
    93  H    0.050981
    94  H    0.061796
    95  H    0.037223
    96  H    0.073444
    97  H    0.077361
    98  H    0.063123
    99  H    0.089550
   100  H    0.075423
   101  H    0.057172
   102  H    0.029933
   103  H    0.037479
   104  H    0.026524
   105  H    0.037636
   106  H    0.057633
   107  H    0.049950
   108  H    0.021683
   109  H    0.056304
   110  H    0.043544
   111  H    0.042552
   112  H    0.030766
   113  H    0.030130
   114  H    0.029074
   115  H    0.021544
   116  H    0.023708
   117  H    0.039370
   118  H    0.017316
   119  H    0.030128
   120  H    0.037616
   121  H    0.027732
   122  H    0.032420
   123  H    0.027459
   124  H    0.021478
   125  H    0.024017
   126  H    0.043948
   127  H    0.026382
   128  H    0.026440
   129  H    0.015942
   130  H    0.032545
   131  H    0.039137
   132  H    0.026840
   133  H    0.028788
   134  H    0.036958
   135  H    0.029581
   136  H    0.031533
   137  H    0.011858
   138  H    0.034234
   139  H    0.030149
   140  H    0.034610
 Sum of Mulliken charges =  -0.00000

 Dipole moment (field-independent basis, Debye):
    X=              0.0579    Y=              2.0516    Z=              0.0422  Tot=              2.0528
 Quadrupole moment (field-independent basis, Debye-Ang):
   XX=           -405.9996   YY=           -377.1851   ZZ=           -400.3805
   XY=            -33.7943   XZ=            -16.5300   YZ=            -23.8233

 Normal termination of Gaussian 16 at Thu May  5 12:51:05 2022.
