 Gaussian 16, Revision A.03,
 Gaussian 16:  ES64L-G16RevA.03 25-Dec-2016

 --------------------------------
 #p wB97XD/Def2SVP td=(nstates=5)
 --------------------------------

 ----------------------------------------------------
 step_901_chromophore_11 TDDFT with wB97XD functional
 ----------------------------------------------------
 Symbolic Z-matrix:
 Charge =  0 Multiplicity = 1

                         Standard orientation:
 ---------------------------------------------------------------------
 Center     Atomic      Atomic             Coordinates (Angstroms)
 Number     Number       Type             X           Y           Z
 ---------------------------------------------------------------------
      1         12           0       -4.432432    1.601683    0.666517
      2          6           0       -5.547723   -1.742168    0.306737
      3          6           0       -2.079769    0.407251    2.829951
      4          6           0       -3.132783    4.650299    0.581984
      5          6           0       -6.472109    2.461622   -2.221292
      6          7           0       -3.824180   -0.468883    1.476435
      7          6           0       -4.480065   -1.664739    1.240798
      8          6           0       -4.050812   -2.731105    2.295867
      9          6           0       -3.204527   -1.901588    3.306408
     10          6           0       -3.003984   -0.567311    2.506943
     11          6           0       -3.825512   -1.764401    4.670754
     12          6           0       -3.518141   -4.073037    1.700571
     13          6           0       -2.520543   -4.068845    0.472897
     14          6           0       -1.107327   -4.627157    0.631205
     15          8           0       -0.467186   -4.910452    1.587652
     16          8           0       -0.559763   -4.686908   -0.615191
     17          7           0       -2.804758    2.414786    1.562487
     18          6           0       -1.967185    1.792645    2.483890
     19          6           0       -1.137696    2.823244    3.048932
     20          6           0       -1.399122    4.047088    2.386901
     21          6           0       -2.490065    3.770120    1.494264
     22          6           0        0.008547    2.529643    4.031200
     23          6           0       -0.668156    5.364085    2.609973
     24          8           0        0.234238    5.457331    3.344748
     25          6           0       -0.988731    6.627330    1.853402
     26          7           0       -4.732886    3.233086   -0.646391
     27          6           0       -4.136881    4.464978   -0.400613
     28          6           0       -4.624643    5.574151   -1.275923
     29          6           0       -5.545607    4.765161   -2.320238
     30          6           0       -5.608914    3.358146   -1.698776
     31          6           0       -5.322237    6.769598   -0.589804
     32          6           0       -5.011849    4.867636   -3.800487
     33          6           0       -3.664659    4.110534   -4.073427
     34          7           0       -5.893555    0.664022   -0.663186
     35          6           0       -6.606873    1.102410   -1.731719
     36          6           0       -7.595780    0.032220   -2.067424
     37          6           0       -7.185784   -1.101223   -1.315780
     38          6           0       -6.107024   -0.667718   -0.454734
     39          6           0       -8.799486    0.147979   -3.025272
     40          6           0       -7.441527   -2.485195   -1.024904
     41          8           0       -8.322480   -3.260008   -1.311477
     42          6           0       -6.224001   -2.965931   -0.131008
     43          6           0       -5.444275   -3.823965   -1.016973
     44          8           0       -4.802618   -3.444158   -2.074850
     45          8           0       -5.751386   -5.085536   -0.733658
     46          6           0       -4.986689   -6.153026   -1.391846
     47          6           0        0.798648   -5.187056   -0.810866
     48          6           0        1.843872   -4.119814   -0.888185
     49          6           0        2.729156   -3.844010    0.123584
     50          6           0        2.915496   -4.710939    1.348120
     51          6           0        3.690488   -2.662354   -0.018561
     52          6           0        4.181426   -2.290667   -1.457715
     53          6           0        5.590506   -1.731230   -1.597009
     54          6           0        5.734282   -0.303765   -0.916166
     55          6           0        5.879996    0.727209   -1.971877
     56          6           0        6.857226   -0.260295    0.159726
     57          6           0        8.195529   -0.709403   -0.396194
     58          6           0        9.268679    0.409782   -0.342914
     59          6           0       10.743091   -0.111853   -0.275748
     60          6           0       10.909511   -0.949651    1.043996
     61          6           0       11.815689    1.033954   -0.448514
     62          6           0       13.051612    0.658676   -1.343953
     63          6           0       14.356759    0.350755   -0.531277
     64          6           0       15.578915    1.111557   -1.032286
     65          6           0       16.759994    0.244802   -1.039508
     66          6           0       15.823569    2.522385   -0.379245
     67          1           0       -1.449995   -0.104751    3.560555
     68          1           0       -2.774302    5.676687    0.481775
     69          1           0       -7.103121    2.766920   -3.058150
     70          1           0       -4.947787   -3.079619    2.808620
     71          1           0       -2.220483   -2.360003    3.405878
     72          1           0       -4.177235   -0.747152    4.838888
     73          1           0       -3.132430   -2.185307    5.399409
     74          1           0       -4.752701   -2.332954    4.741730
     75          1           0       -4.334174   -4.746517    1.439041
     76          1           0       -2.984572   -4.643664    2.460935
     77          1           0       -2.388431   -3.083399    0.025719
     78          1           0       -2.977833   -4.760342   -0.235949
     79          1           0        0.906677    2.522484    3.414307
     80          1           0       -0.013432    1.550064    4.506915
     81          1           0        0.020604    3.351305    4.748118
     82          1           0       -0.777317    6.433039    0.802003
     83          1           0       -0.392806    7.497657    2.129976
     84          1           0       -2.042329    6.867857    1.996093
     85          1           0       -3.714953    5.991689   -1.707806
     86          1           0       -6.559495    5.162918   -2.290449
     87          1           0       -4.749048    7.639998   -0.910132
     88          1           0       -5.384005    6.575406    0.480907
     89          1           0       -6.283319    7.021759   -1.038616
     90          1           0       -4.901081    5.930314   -4.015166
     91          1           0       -5.694991    4.294413   -4.426213
     92          1           0       -2.980912    4.839415   -4.509923
     93          1           0       -3.857632    3.312539   -4.790063
     94          1           0       -3.147803    3.716944   -3.198115
     95          1           0       -8.886353    1.202173   -3.291086
     96          1           0       -9.628229   -0.208829   -2.414536
     97          1           0       -8.536636   -0.489457   -3.869014
     98          1           0       -6.723201   -3.517895    0.665261
     99          1           0       -4.111258   -5.816959   -1.947049
    100          1           0       -5.673557   -6.668922   -2.063022
    101          1           0       -4.654974   -6.777625   -0.561977
    102          1           0        0.627453   -5.632514   -1.791049
    103          1           0        0.973666   -5.915194   -0.018462
    104          1           0        1.925672   -3.535510   -1.805287
    105          1           0        3.996035   -4.678251    1.485569
    106          1           0        2.464658   -5.702903    1.388781
    107          1           0        2.549647   -4.125048    2.191262
    108          1           0        4.487561   -2.530216    0.713243
    109          1           0        3.022605   -1.850779    0.270547
    110          1           0        3.378743   -1.650515   -1.823438
    111          1           0        4.229521   -3.186095   -2.078086
    112          1           0        5.919801   -1.743107   -2.635644
    113          1           0        6.222905   -2.448273   -1.073694
    114          1           0        4.782767   -0.133525   -0.412016
    115          1           0        6.804797    0.634312   -2.541476
    116          1           0        6.054747    1.707302   -1.529782
    117          1           0        5.039685    0.713112   -2.665395
    118          1           0        6.484794   -0.979572    0.889835
    119          1           0        6.910967    0.690838    0.689536
    120          1           0        8.068275   -0.923347   -1.457093
    121          1           0        8.549442   -1.639143    0.049194
    122          1           0        9.189645    1.083977    0.509837
    123          1           0        9.171884    0.975329   -1.270310
    124          1           0       10.999240   -0.904764   -0.977069
    125          1           0       11.849415   -0.723639    1.548504
    126          1           0       10.840065   -2.007832    0.791784
    127          1           0       10.245376   -0.710767    1.875111
    128          1           0       11.908076    1.429585    0.562388
    129          1           0       11.344865    1.856991   -0.985968
    130          1           0       13.253132    1.544019   -1.946406
    131          1           0       12.890947   -0.181679   -2.019263
    132          1           0       14.433228   -0.733890   -0.596422
    133          1           0       14.209186    0.582438    0.523614
    134          1           0       15.392548    1.355777   -2.078167
    135          1           0       17.117597    0.012716   -2.042708
    136          1           0       16.729303   -0.694008   -0.485672
    137          1           0       17.627153    0.720768   -0.582543
    138          1           0       15.057856    2.842011    0.327517
    139          1           0       15.821582    3.252259   -1.188947
    140          1           0       16.789602    2.674627    0.100700
 ---------------------------------------------------------------------

 SCF Done:  E(RwB97XD) =  -3007.87006379     A.U. after   19 cycles

 Excitation energies and oscillator strengths:

 Excited State   1:      Singlet-A      1.6595 eV  747.10 nm  f=0.3718  <S**2>=0.000
     245 -> 248        0.19167
     246 -> 247        0.68248
     245 <- 248        0.11864
 This state for optimization and/or second-order correction.
 Total Energy, E(TD-HF/TD-DFT) =  -3007.80907647
 Copying the excited state density for this state as the 1-particle RhoCI density.

 Excited State   2:      Singlet-A      2.2069 eV  561.81 nm  f=0.1107  <S**2>=0.000
     245 -> 247        0.64061
     246 -> 248       -0.28590

 Excited State   3:      Singlet-A      3.3491 eV  370.20 nm  f=0.0023  <S**2>=0.000
     242 -> 247        0.36947
     243 -> 247        0.57425

 Excited State   4:      Singlet-A      3.4392 eV  360.50 nm  f=0.0271  <S**2>=0.000
     242 -> 247        0.51621
     243 -> 247       -0.35030
     246 -> 248        0.27471

 Excited State   5:      Singlet-A      3.5859 eV  345.76 nm  f=0.0362  <S**2>=0.000
     240 -> 247        0.55310
     240 -> 249       -0.32339
     240 -> 251       -0.11176
     246 -> 248       -0.16007

 The electronic state is 1-A.
 Alpha  occ. eigenvalues --  -46.95766 -19.31295 -19.27762 -19.24270 -19.24130
 Alpha  occ. eigenvalues --  -19.23672 -19.23422 -14.47044 -14.46302 -14.44192
 Alpha  occ. eigenvalues --  -14.44123 -10.43247 -10.42096 -10.38956 -10.38372
 Alpha  occ. eigenvalues --  -10.36057 -10.35380 -10.35356 -10.34916 -10.34727
 Alpha  occ. eigenvalues --  -10.34605 -10.34393 -10.34366 -10.34250 -10.33311
 Alpha  occ. eigenvalues --  -10.32778 -10.32687 -10.32625 -10.32471 -10.32192
 Alpha  occ. eigenvalues --  -10.31952 -10.31830 -10.31813 -10.31507 -10.31448
 Alpha  occ. eigenvalues --  -10.31257 -10.31114 -10.30837 -10.30737 -10.30653
 Alpha  occ. eigenvalues --  -10.30518 -10.30399 -10.30233 -10.30161 -10.29818
 Alpha  occ. eigenvalues --  -10.29429 -10.29418 -10.29360 -10.29355 -10.29225
 Alpha  occ. eigenvalues --  -10.29164 -10.29160 -10.29003 -10.28962 -10.28922
 Alpha  occ. eigenvalues --  -10.28921 -10.28682 -10.28675 -10.28663 -10.28412
 Alpha  occ. eigenvalues --  -10.28400 -10.28210 -10.28025 -10.27802 -10.27651
 Alpha  occ. eigenvalues --  -10.27183  -3.21640  -1.95209  -1.94775  -1.94588
 Alpha  occ. eigenvalues --   -1.19233  -1.18628  -1.15310  -1.12919  -1.09839
 Alpha  occ. eigenvalues --   -1.06733  -1.06297  -1.05180  -1.04576  -1.03825
 Alpha  occ. eigenvalues --   -0.95246  -0.92188  -0.91224  -0.90944  -0.90603
 Alpha  occ. eigenvalues --   -0.90519  -0.90070  -0.89506  -0.88915  -0.87709
 Alpha  occ. eigenvalues --   -0.87656  -0.87406  -0.86357  -0.85836  -0.85330
 Alpha  occ. eigenvalues --   -0.84328  -0.84000  -0.83076  -0.82887  -0.82164
 Alpha  occ. eigenvalues --   -0.81472  -0.79951  -0.79584  -0.79326  -0.77992
 Alpha  occ. eigenvalues --   -0.77607  -0.77317  -0.77031  -0.76585  -0.76069
 Alpha  occ. eigenvalues --   -0.75430  -0.74596  -0.73605  -0.72313  -0.71268
 Alpha  occ. eigenvalues --   -0.70770  -0.70504  -0.69092  -0.68593  -0.67735
 Alpha  occ. eigenvalues --   -0.67543  -0.67040  -0.66542  -0.66363  -0.65098
 Alpha  occ. eigenvalues --   -0.64581  -0.64563  -0.63718  -0.63144  -0.61754
 Alpha  occ. eigenvalues --   -0.61265  -0.61194  -0.60754  -0.60511  -0.60152
 Alpha  occ. eigenvalues --   -0.59251  -0.58898  -0.58584  -0.57970  -0.57385
 Alpha  occ. eigenvalues --   -0.57030  -0.56721  -0.56566  -0.56236  -0.55564
 Alpha  occ. eigenvalues --   -0.55332  -0.55253  -0.54964  -0.54894  -0.54718
 Alpha  occ. eigenvalues --   -0.54658  -0.54484  -0.54242  -0.53983  -0.53777
 Alpha  occ. eigenvalues --   -0.53356  -0.53130  -0.52811  -0.52670  -0.52563
 Alpha  occ. eigenvalues --   -0.52396  -0.52173  -0.51925  -0.51799  -0.51495
 Alpha  occ. eigenvalues --   -0.51403  -0.51321  -0.50998  -0.50877  -0.50679
 Alpha  occ. eigenvalues --   -0.50425  -0.49912  -0.49688  -0.49452  -0.49063
 Alpha  occ. eigenvalues --   -0.48891  -0.48696  -0.48518  -0.48354  -0.48281
 Alpha  occ. eigenvalues --   -0.48088  -0.48027  -0.47882  -0.47562  -0.47528
 Alpha  occ. eigenvalues --   -0.47447  -0.47263  -0.47066  -0.46754  -0.46685
 Alpha  occ. eigenvalues --   -0.46526  -0.46392  -0.46060  -0.45928  -0.45715
 Alpha  occ. eigenvalues --   -0.45652  -0.45353  -0.45181  -0.45102  -0.44901
 Alpha  occ. eigenvalues --   -0.44638  -0.44507  -0.44356  -0.44149  -0.44070
 Alpha  occ. eigenvalues --   -0.43957  -0.43639  -0.43214  -0.43172  -0.42839
 Alpha  occ. eigenvalues --   -0.42685  -0.42421  -0.42369  -0.42333  -0.42129
 Alpha  occ. eigenvalues --   -0.41657  -0.41595  -0.41311  -0.40676  -0.40148
 Alpha  occ. eigenvalues --   -0.39949  -0.39612  -0.39501  -0.39215  -0.38987
 Alpha  occ. eigenvalues --   -0.38857  -0.38289  -0.38224  -0.37921  -0.37810
 Alpha  occ. eigenvalues --   -0.37704  -0.37569  -0.37072  -0.36060  -0.35592
 Alpha  occ. eigenvalues --   -0.35566  -0.35351  -0.35250  -0.33596  -0.32679
 Alpha  occ. eigenvalues --   -0.32437  -0.32118  -0.31566  -0.31275  -0.26065
 Alpha  occ. eigenvalues --   -0.23177
 Alpha virt. eigenvalues --   -0.07144   0.00184   0.02748   0.04626   0.05010
 Alpha virt. eigenvalues --    0.06331   0.07201   0.07985   0.09742   0.09990
 Alpha virt. eigenvalues --    0.10983   0.11552   0.11635   0.12338   0.12569

 Mulliken charges:
               1
     1  Mg   0.948194
     2  C    0.000789
     3  C   -0.037748
     4  C   -0.089492
     5  C   -0.111233
     6  N   -0.301740
     7  C   -0.015630
     8  C   -0.021276
     9  C   -0.095455
    10  C   -0.046714
    11  C    0.051882
    12  C   -0.000342
    13  C   -0.058858
    14  C    0.197556
    15  O   -0.231176
    16  O   -0.381732
    17  N   -0.513718
    18  C    0.201296
    19  C   -0.180636
    20  C   -0.076129
    21  C    0.223009
    22  C    0.082332
    23  C    0.017938
    24  O   -0.180588
    25  C   -0.004304
    26  N   -0.386158
    27  C    0.021516
    28  C   -0.101621
    29  C   -0.070086
    30  C    0.116587
    31  C    0.039393
    32  C   -0.017039
    33  C   -0.074449
    34  N   -0.402240
    35  C    0.109462
    36  C   -0.226411
    37  C   -0.012500
    38  C    0.148874
    39  C    0.095572
    40  C    0.074904
    41  O   -0.186403
    42  C   -0.089329
    43  C    0.283399
    44  O   -0.316677
    45  O   -0.328234
    46  C    0.121852
    47  C    0.298014
    48  C   -0.168346
    49  C   -0.178857
    50  C    0.058432
    51  C    0.002658
    52  C   -0.056239
    53  C    0.006690
    54  C   -0.191303
    55  C    0.021616
    56  C    0.033898
    57  C   -0.033248
    58  C    0.011272
    59  C   -0.187285
    60  C   -0.031749
    61  C    0.015984
    62  C   -0.035172
    63  C    0.010957
    64  C   -0.193645
    65  C    0.001533
    66  C   -0.006761
    67  H   -0.003592
    68  H   -0.037384
    69  H    0.005301
    70  H    0.031647
    71  H    0.045541
    72  H    0.042009
    73  H    0.052190
    74  H    0.026868
    75  H    0.032965
    76  H    0.034809
    77  H    0.094176
    78  H    0.040819
    79  H    0.057431
    80  H    0.027337
    81  H    0.063893
    82  H    0.057179
    83  H    0.048294
    84  H    0.054095
    85  H    0.040117
    86  H    0.029847
    87  H    0.029952
    88  H    0.053446
    89  H    0.033344
    90  H    0.042187
    91  H    0.034649
    92  H    0.031221
    93  H    0.046233
    94  H    0.052145
    95  H    0.030509
    96  H    0.068017
    97  H    0.072036
    98  H    0.058311
    99  H    0.086945
   100  H    0.073560
   101  H    0.054014
   102  H    0.026930
   103  H    0.029953
   104  H    0.022747
   105  H    0.031217
   106  H    0.054117
   107  H    0.044582
   108  H    0.011834
   109  H    0.046519
   110  H    0.034130
   111  H    0.033007
   112  H    0.024559
   113  H    0.019077
   114  H    0.016365
   115  H    0.013203
   116  H    0.017638
   117  H    0.033827
   118  H    0.006175
   119  H    0.022629
   120  H    0.024902
   121  H    0.019531
   122  H    0.021867
   123  H    0.017039
   124  H    0.008303
   125  H    0.017155
   126  H    0.038865
   127  H    0.019703
   128  H    0.017709
   129  H    0.007848
   130  H    0.022793
   131  H    0.032533
   132  H    0.018735
   133  H    0.018138
   134  H    0.024474
   135  H    0.024569
   136  H    0.025575
   137  H    0.005012
   138  H    0.028203
   139  H    0.024507
   140  H    0.028830
 Sum of Mulliken charges =  -0.00000

 Dipole moment (field-independent basis, Debye):
    X=              0.1758    Y=              1.9873    Z=              0.2513  Tot=              2.0108
 Quadrupole moment (field-independent basis, Debye-Ang):
   XX=           -406.7424   YY=           -376.2905   ZZ=           -400.1039
   XY=            -33.0473   XZ=            -17.3758   YZ=            -23.0204

 Normal termination of Gaussian 16 at Thu May  5 13:31:02 2022.
