 Gaussian 16, Revision A.03,
 Gaussian 16:  ES64L-G16RevA.03 25-Dec-2016

 --------------------
 #p ZINDO=(nstates=5)
 --------------------

 -----------------------------
 step_901_chromophore_11 ZINDO
 -----------------------------
 Symbolic Z-matrix:
 Charge =  0 Multiplicity = 1

                         Standard orientation:
 ---------------------------------------------------------------------
 Center     Atomic      Atomic             Coordinates (Angstroms)
 Number     Number       Type             X           Y           Z
 ---------------------------------------------------------------------
      1         12           0       -4.432432    1.601683    0.666517
      2          6           0       -5.547723   -1.742168    0.306737
      3          6           0       -2.079769    0.407251    2.829951
      4          6           0       -3.132783    4.650299    0.581984
      5          6           0       -6.472109    2.461622   -2.221292
      6          7           0       -3.824180   -0.468883    1.476435
      7          6           0       -4.480065   -1.664739    1.240798
      8          6           0       -4.050812   -2.731105    2.295867
      9          6           0       -3.204527   -1.901588    3.306408
     10          6           0       -3.003984   -0.567311    2.506943
     11          6           0       -3.825512   -1.764401    4.670754
     12          6           0       -3.518141   -4.073037    1.700571
     13          6           0       -2.520543   -4.068845    0.472897
     14          6           0       -1.107327   -4.627157    0.631205
     15          8           0       -0.467186   -4.910452    1.587652
     16          8           0       -0.559763   -4.686908   -0.615191
     17          7           0       -2.804758    2.414786    1.562487
     18          6           0       -1.967185    1.792645    2.483890
     19          6           0       -1.137696    2.823244    3.048932
     20          6           0       -1.399122    4.047088    2.386901
     21          6           0       -2.490065    3.770120    1.494264
     22          6           0        0.008547    2.529643    4.031200
     23          6           0       -0.668156    5.364085    2.609973
     24          8           0        0.234238    5.457331    3.344748
     25          6           0       -0.988731    6.627330    1.853402
     26          7           0       -4.732886    3.233086   -0.646391
     27          6           0       -4.136881    4.464978   -0.400613
     28          6           0       -4.624643    5.574151   -1.275923
     29          6           0       -5.545607    4.765161   -2.320238
     30          6           0       -5.608914    3.358146   -1.698776
     31          6           0       -5.322237    6.769598   -0.589804
     32          6           0       -5.011849    4.867636   -3.800487
     33          6           0       -3.664659    4.110534   -4.073427
     34          7           0       -5.893555    0.664022   -0.663186
     35          6           0       -6.606873    1.102410   -1.731719
     36          6           0       -7.595780    0.032220   -2.067424
     37          6           0       -7.185784   -1.101223   -1.315780
     38          6           0       -6.107024   -0.667718   -0.454734
     39          6           0       -8.799486    0.147979   -3.025272
     40          6           0       -7.441527   -2.485195   -1.024904
     41          8           0       -8.322480   -3.260008   -1.311477
     42          6           0       -6.224001   -2.965931   -0.131008
     43          6           0       -5.444275   -3.823965   -1.016973
     44          8           0       -4.802618   -3.444158   -2.074850
     45          8           0       -5.751386   -5.085536   -0.733658
     46          6           0       -4.986689   -6.153026   -1.391846
     47          6           0        0.798648   -5.187056   -0.810866
     48          6           0        1.843872   -4.119814   -0.888185
     49          6           0        2.729156   -3.844010    0.123584
     50          6           0        2.915496   -4.710939    1.348120
     51          6           0        3.690488   -2.662354   -0.018561
     52          6           0        4.181426   -2.290667   -1.457715
     53          6           0        5.590506   -1.731230   -1.597009
     54          6           0        5.734282   -0.303765   -0.916166
     55          6           0        5.879996    0.727209   -1.971877
     56          6           0        6.857226   -0.260295    0.159726
     57          6           0        8.195529   -0.709403   -0.396194
     58          6           0        9.268679    0.409782   -0.342914
     59          6           0       10.743091   -0.111853   -0.275748
     60          6           0       10.909511   -0.949651    1.043996
     61          6           0       11.815689    1.033954   -0.448514
     62          6           0       13.051612    0.658676   -1.343953
     63          6           0       14.356759    0.350755   -0.531277
     64          6           0       15.578915    1.111557   -1.032286
     65          6           0       16.759994    0.244802   -1.039508
     66          6           0       15.823569    2.522385   -0.379245
     67          1           0       -1.449995   -0.104751    3.560555
     68          1           0       -2.774302    5.676687    0.481775
     69          1           0       -7.103121    2.766920   -3.058150
     70          1           0       -4.947787   -3.079619    2.808620
     71          1           0       -2.220483   -2.360003    3.405878
     72          1           0       -4.177235   -0.747152    4.838888
     73          1           0       -3.132430   -2.185307    5.399409
     74          1           0       -4.752701   -2.332954    4.741730
     75          1           0       -4.334174   -4.746517    1.439041
     76          1           0       -2.984572   -4.643664    2.460935
     77          1           0       -2.388431   -3.083399    0.025719
     78          1           0       -2.977833   -4.760342   -0.235949
     79          1           0        0.906677    2.522484    3.414307
     80          1           0       -0.013432    1.550064    4.506915
     81          1           0        0.020604    3.351305    4.748118
     82          1           0       -0.777317    6.433039    0.802003
     83          1           0       -0.392806    7.497657    2.129976
     84          1           0       -2.042329    6.867857    1.996093
     85          1           0       -3.714953    5.991689   -1.707806
     86          1           0       -6.559495    5.162918   -2.290449
     87          1           0       -4.749048    7.639998   -0.910132
     88          1           0       -5.384005    6.575406    0.480907
     89          1           0       -6.283319    7.021759   -1.038616
     90          1           0       -4.901081    5.930314   -4.015166
     91          1           0       -5.694991    4.294413   -4.426213
     92          1           0       -2.980912    4.839415   -4.509923
     93          1           0       -3.857632    3.312539   -4.790063
     94          1           0       -3.147803    3.716944   -3.198115
     95          1           0       -8.886353    1.202173   -3.291086
     96          1           0       -9.628229   -0.208829   -2.414536
     97          1           0       -8.536636   -0.489457   -3.869014
     98          1           0       -6.723201   -3.517895    0.665261
     99          1           0       -4.111258   -5.816959   -1.947049
    100          1           0       -5.673557   -6.668922   -2.063022
    101          1           0       -4.654974   -6.777625   -0.561977
    102          1           0        0.627453   -5.632514   -1.791049
    103          1           0        0.973666   -5.915194   -0.018462
    104          1           0        1.925672   -3.535510   -1.805287
    105          1           0        3.996035   -4.678251    1.485569
    106          1           0        2.464658   -5.702903    1.388781
    107          1           0        2.549647   -4.125048    2.191262
    108          1           0        4.487561   -2.530216    0.713243
    109          1           0        3.022605   -1.850779    0.270547
    110          1           0        3.378743   -1.650515   -1.823438
    111          1           0        4.229521   -3.186095   -2.078086
    112          1           0        5.919801   -1.743107   -2.635644
    113          1           0        6.222905   -2.448273   -1.073694
    114          1           0        4.782767   -0.133525   -0.412016
    115          1           0        6.804797    0.634312   -2.541476
    116          1           0        6.054747    1.707302   -1.529782
    117          1           0        5.039685    0.713112   -2.665395
    118          1           0        6.484794   -0.979572    0.889835
    119          1           0        6.910967    0.690838    0.689536
    120          1           0        8.068275   -0.923347   -1.457093
    121          1           0        8.549442   -1.639143    0.049194
    122          1           0        9.189645    1.083977    0.509837
    123          1           0        9.171884    0.975329   -1.270310
    124          1           0       10.999240   -0.904764   -0.977069
    125          1           0       11.849415   -0.723639    1.548504
    126          1           0       10.840065   -2.007832    0.791784
    127          1           0       10.245376   -0.710767    1.875111
    128          1           0       11.908076    1.429585    0.562388
    129          1           0       11.344865    1.856991   -0.985968
    130          1           0       13.253132    1.544019   -1.946406
    131          1           0       12.890947   -0.181679   -2.019263
    132          1           0       14.433228   -0.733890   -0.596422
    133          1           0       14.209186    0.582438    0.523614
    134          1           0       15.392548    1.355777   -2.078167
    135          1           0       17.117597    0.012716   -2.042708
    136          1           0       16.729303   -0.694008   -0.485672
    137          1           0       17.627153    0.720768   -0.582543
    138          1           0       15.057856    2.842011    0.327517
    139          1           0       15.821582    3.252259   -1.188947
    140          1           0       16.789602    2.674627    0.100700
 ---------------------------------------------------------------------

 SCF Done:  E(RZINDO/S) =  -474.316942280     A.U. after   20 cycles

 Excitation energies and oscillator strengths:

 Excited State   1:      Singlet-A      1.2583 eV  985.29 nm  f=0.5920  <S**2>=0.000
     175 ->178        -0.19148
     176 ->177         0.66217
 This state for optimization and/or second-order correction.
 Total Energy, E(CIS/TDA) =  -474.270698824
 Copying the excited state density for this state as the 1-particle RhoCI density.

 Excited State   2:      Singlet-A      1.9383 eV  639.67 nm  f=0.0417  <S**2>=0.000
     175 ->177         0.54608
     176 ->178         0.42023

 Excited State   3:      Singlet-A      2.9304 eV  423.09 nm  f=0.5435  <S**2>=0.000
     175 ->177        -0.28734
     176 ->178         0.44028
     176 ->179        -0.40046
     176 ->182         0.10665

 Excited State   4:      Singlet-A      2.9930 eV  414.25 nm  f=0.0040  <S**2>=0.000
     168 ->177        -0.18909
     168 ->179         0.19866
     168 ->180        -0.25066
     168 ->182         0.19545
     168 ->185         0.21853
     169 ->177        -0.20494
     169 ->179         0.11135
     169 ->180        -0.21502
     169 ->182         0.18839
     169 ->185         0.16005

 Excited State   5:      Singlet-A      3.0083 eV  412.15 nm  f=0.0066  <S**2>=0.000
     168 ->177         0.17021
     168 ->178        -0.11315
     168 ->179         0.17565
     168 ->182        -0.12575
     169 ->177        -0.23096
     169 ->178         0.16354
     169 ->179        -0.33173
     169 ->182         0.14541
     169 ->185        -0.14013
     169 ->187         0.10679
     169 ->201         0.10842
     170 ->177         0.15741
     170 ->179         0.17398
     170 ->182        -0.10264

 The electronic state is 1-A.
 Alpha  occ. eigenvalues --   -1.82482  -1.80158  -1.79491  -1.74532  -1.73805
 Alpha  occ. eigenvalues --   -1.70243  -1.65720  -1.63556  -1.60452  -1.59707
 Alpha  occ. eigenvalues --   -1.54918  -1.50765  -1.48434  -1.47426  -1.45085
 Alpha  occ. eigenvalues --   -1.43260  -1.41648  -1.39968  -1.38072  -1.37320
 Alpha  occ. eigenvalues --   -1.35707  -1.33042  -1.32041  -1.31229  -1.28794
 Alpha  occ. eigenvalues --   -1.27424  -1.25186  -1.22832  -1.21510  -1.18526
 Alpha  occ. eigenvalues --   -1.17505  -1.16258  -1.15460  -1.14533  -1.13470
 Alpha  occ. eigenvalues --   -1.12646  -1.11921  -1.10586  -1.05437  -1.04435
 Alpha  occ. eigenvalues --   -1.03065  -1.01065  -0.99973  -0.98419  -0.97052
 Alpha  occ. eigenvalues --   -0.95244  -0.94430  -0.93215  -0.92819  -0.91295
 Alpha  occ. eigenvalues --   -0.90112  -0.89930  -0.88534  -0.87847  -0.85049
 Alpha  occ. eigenvalues --   -0.84638  -0.83486  -0.82112  -0.80684  -0.80023
 Alpha  occ. eigenvalues --   -0.79224  -0.78208  -0.77826  -0.76835  -0.76443
 Alpha  occ. eigenvalues --   -0.75646  -0.75208  -0.74868  -0.73976  -0.73767
 Alpha  occ. eigenvalues --   -0.73389  -0.72197  -0.72062  -0.71644  -0.71388
 Alpha  occ. eigenvalues --   -0.70841  -0.69699  -0.69627  -0.68710  -0.67835
 Alpha  occ. eigenvalues --   -0.67277  -0.66854  -0.66399  -0.66041  -0.65406
 Alpha  occ. eigenvalues --   -0.65213  -0.65001  -0.64451  -0.63993  -0.63777
 Alpha  occ. eigenvalues --   -0.63629  -0.63401  -0.62849  -0.62510  -0.62062
 Alpha  occ. eigenvalues --   -0.61773  -0.61124  -0.60920  -0.59831  -0.59658
 Alpha  occ. eigenvalues --   -0.59231  -0.58954  -0.58402  -0.57817  -0.57772
 Alpha  occ. eigenvalues --   -0.57209  -0.57069  -0.56702  -0.56244  -0.56107
 Alpha  occ. eigenvalues --   -0.55671  -0.55360  -0.55166  -0.54666  -0.54569
 Alpha  occ. eigenvalues --   -0.54177  -0.54049  -0.53122  -0.52995  -0.52649
 Alpha  occ. eigenvalues --   -0.52539  -0.52116  -0.51993  -0.51697  -0.51287
 Alpha  occ. eigenvalues --   -0.51176  -0.50754  -0.50439  -0.50272  -0.50017
 Alpha  occ. eigenvalues --   -0.49763  -0.49532  -0.49341  -0.49085  -0.48964
 Alpha  occ. eigenvalues --   -0.48383  -0.48016  -0.47761  -0.47658  -0.47520
 Alpha  occ. eigenvalues --   -0.47308  -0.47006  -0.46946  -0.46787  -0.46594
 Alpha  occ. eigenvalues --   -0.46103  -0.45769  -0.45628  -0.45555  -0.45400
 Alpha  occ. eigenvalues --   -0.44899  -0.44776  -0.44617  -0.44179  -0.44129
 Alpha  occ. eigenvalues --   -0.43635  -0.43228  -0.42923  -0.42830  -0.41767
 Alpha  occ. eigenvalues --   -0.41574  -0.41098  -0.40450  -0.38835  -0.38438
 Alpha  occ. eigenvalues --   -0.38351  -0.36893  -0.34885  -0.34709  -0.34609
 Alpha  occ. eigenvalues --   -0.33444  -0.32823  -0.31737  -0.31191  -0.26771
 Alpha  occ. eigenvalues --   -0.21936
 Alpha virt. eigenvalues --   -0.08602  -0.02250  -0.00611   0.00955   0.01444
 Alpha virt. eigenvalues --    0.02682   0.03054   0.03426   0.05040   0.05078
 Alpha virt. eigenvalues --    0.06494   0.06832   0.07299   0.07732   0.08188

 Mulliken charges:
               1
     1  Mg   0.433033
     2  C   -0.009577
     3  C   -0.058795
     4  C   -0.109928
     5  C   -0.074409
     6  N   -0.265186
     7  C    0.072765
     8  C    0.007660
     9  C    0.013605
    10  C    0.142198
    11  C   -0.044678
    12  C   -0.030584
    13  C   -0.000458
    14  C    0.473402
    15  O   -0.515570
    16  O   -0.288612
    17  N   -0.338914
    18  C    0.106516
    19  C    0.046413
    20  C   -0.051260
    21  C    0.144918
    22  C   -0.042232
    23  C    0.332053
    24  O   -0.501421
    25  C   -0.026180
    26  N   -0.295693
    27  C    0.157790
    28  C    0.000216
    29  C   -0.008365
    30  C    0.127348
    31  C   -0.052285
    32  C   -0.032097
    33  C   -0.060021
    34  N   -0.304942
    35  C    0.096266
    36  C    0.010233
    37  C   -0.053840
    38  C    0.084473
    39  C   -0.041786
    40  C    0.343912
    41  O   -0.520083
    42  C    0.064914
    43  C    0.496931
    44  O   -0.568835
    45  O   -0.250670
    46  C    0.075242
    47  C    0.108339
    48  C   -0.105359
    49  C    0.013593
    50  C   -0.042222
    51  C   -0.028845
    52  C   -0.030394
    53  C   -0.034072
    54  C   -0.007006
    55  C   -0.050032
    56  C   -0.029736
    57  C   -0.030979
    58  C   -0.030473
    59  C   -0.025315
    60  C   -0.065591
    61  C   -0.040646
    62  C   -0.036517
    63  C   -0.032480
    64  C    0.005138
    65  C   -0.050186
    66  C   -0.058767
    67  H    0.025548
    68  H    0.020377
    69  H    0.030473
    70  H    0.022430
    71  H    0.031615
    72  H    0.027689
    73  H    0.028521
    74  H    0.016994
    75  H    0.023353
    76  H    0.024049
    77  H    0.057785
    78  H    0.046515
    79  H    0.037311
    80  H    0.023560
    81  H    0.042982
    82  H    0.034129
    83  H    0.036368
    84  H    0.030055
    85  H    0.031630
    86  H    0.024064
    87  H    0.018910
    88  H    0.034493
    89  H    0.022607
    90  H    0.027025
    91  H    0.025683
    92  H    0.012220
    93  H    0.024522
    94  H    0.028315
    95  H    0.025095
    96  H    0.041908
    97  H    0.044985
    98  H    0.049920
    99  H    0.054461
   100  H    0.047145
   101  H    0.031097
   102  H    0.030156
   103  H    0.053171
   104  H    0.034684
   105  H    0.021913
   106  H    0.041145
   107  H    0.029599
   108  H    0.026469
   109  H    0.019651
   110  H    0.023293
   111  H    0.011254
   112  H    0.022234
   113  H    0.014295
   114  H    0.014316
   115  H    0.013858
   116  H    0.009505
   117  H    0.018981
   118  H    0.007458
   119  H    0.023016
   120  H    0.017985
   121  H    0.023849
   122  H    0.025232
   123  H    0.013737
   124  H    0.019727
   125  H    0.010375
   126  H    0.019944
   127  H    0.016727
   128  H    0.030797
   129  H    0.006167
   130  H    0.015765
   131  H    0.027962
   132  H    0.016852
   133  H    0.018791
   134  H    0.015580
   135  H    0.013183
   136  H    0.016953
   137  H    0.005796
   138  H    0.019889
   139  H    0.012104
   140  H    0.021834
 Sum of Mulliken charges =  -0.00000

 Dipole moment (field-independent basis, Debye):
    X=             -0.4770    Y=              3.3705    Z=              1.8763  Tot=              3.8870
 N-N= 4.405534547835D+03 E-N= 0.000000000000D+00  KE=-9.485899126697D+03
 Leave Link  601 at Thu May  5 13:50:41 2022, MaxMem=  6710886400 cpu:               0.7 elap:               0.0
 (Enter /sw/apps/gaussian-16.0/g16/l9999.exe)
 1\1\GINC-BP1-COMPUTE176\SP\RZINDO CIS\STO-3G\C55H74Mg1N4O6\OF15641\05-
 May-2022\0\\#p ZINDO=(nstates=5)\\step_901_chromophore_11 ZINDO\\0,1\M
 g,0,53.338,23.378,43.746\C,0,50.428,25.389,43.54\C,0,51.403,20.766,42.
 709\C,0,56.171,21.676,43.486\C,0,55.281,26.439,44.053\N,0,51.134,23.08
 7,43.137\C,0,50.132,24.039,43.211\C,0,48.732,23.353,43.148\C,0,49.081,
 21.838,43.24\C,0,50.632,21.872,43.01\C,0,48.618,21.17,44.507\C,0,47.77
 7,23.9,42.04\C,0,48.32,24.196,40.584\C,0,47.781,23.41,39.39\O,0,47.138

 Normal termination of Gaussian 16 at Thu May  5 13:50:41 2022.
