 Gaussian 16, Revision A.03,
 Gaussian 16:  ES64L-G16RevA.03 25-Dec-2016

 ------------------------------
 #p blyp/Def2SVP td=(nstates=5)
 ------------------------------

 --------------------------------------------------
 step_401_chromophore_27 TDDFT with blyp functional
 --------------------------------------------------
 Symbolic Z-matrix:
 Charge =  0 Multiplicity = 1

                         Standard orientation:
 ---------------------------------------------------------------------
 Center     Atomic      Atomic             Coordinates (Angstroms)
 Number     Number       Type             X           Y           Z
 ---------------------------------------------------------------------
      1         12           0       -4.664166    0.768717   -0.002713
      2          6           0       -4.089256   -2.703505    0.060494
      3          6           0       -1.312128    1.168769    0.274792
      4          6           0       -5.240351    4.114243    0.067947
      5          6           0       -8.146446    0.239748    0.107327
      6          7           0       -2.971612   -0.732142    0.076003
      7          6           0       -2.929731   -2.044573    0.063503
      8          6           0       -1.481885   -2.617239    0.085176
      9          6           0       -0.629349   -1.292962    0.164607
     10          6           0       -1.719630   -0.207251    0.113049
     11          6           0        0.365515   -1.050418    1.299316
     12          6           0       -1.107176   -3.638972   -1.051881
     13          6           0       -0.004399   -3.375443   -1.960007
     14          6           0        1.363834   -3.557520   -1.372967
     15          8           0        1.699320   -3.562541   -0.170176
     16          8           0        2.346691   -3.778035   -2.308312
     17          7           0       -3.491189    2.429963    0.186033
     18          6           0       -2.116236    2.359020    0.325089
     19          6           0       -1.602491    3.707718    0.520872
     20          6           0       -2.780936    4.605294    0.480052
     21          6           0       -3.949437    3.783166    0.188586
     22          6           0       -0.057549    4.019399    0.729670
     23          6           0       -2.864557    6.119862    0.657019
     24          8           0       -3.876943    6.791208    0.544906
     25          6           0       -1.645960    6.813711    1.230381
     26          7           0       -6.522394    1.982928    0.128939
     27          6           0       -6.409337    3.356299    0.037115
     28          6           0       -7.782234    3.943145   -0.346992
     29          6           0       -8.777329    2.697977   -0.213076
     30          6           0       -7.783458    1.577729    0.061669
     31          6           0       -8.240716    5.069338    0.546516
     32          6           0       -9.692473    2.463216   -1.526986
     33          6           0      -11.195771    2.679991   -1.334513
     34          7           0       -5.968359   -0.859483    0.173369
     35          6           0       -7.296796   -0.961332    0.268884
     36          6           0       -7.677669   -2.309263    0.403329
     37          6           0       -6.458963   -3.041297    0.319988
     38          6           0       -5.414413   -2.142020    0.234606
     39          6           0       -9.117739   -2.795946    0.518515
     40          6           0       -5.843972   -4.346473    0.250434
     41          8           0       -6.346755   -5.413306    0.170821
     42          6           0       -4.306476   -4.182584    0.156444
     43          6           0       -3.633679   -4.716743    1.321238
     44          8           0       -3.530161   -4.265264    2.456194
     45          8           0       -2.982883   -5.914820    0.962970
     46          6           0       -2.432914   -6.714101    2.090071
     47          6           0        3.773600   -3.739242   -1.956004
     48          6           0        4.335170   -2.306246   -2.160503
     49          6           0        5.615483   -1.946151   -2.041339
     50          6           0        6.806129   -2.957674   -1.719897
     51          6           0        6.019946   -0.417977   -2.349005
     52          6           0        6.658733   -0.212173   -3.765266
     53          6           0        8.180047    0.145613   -3.916543
     54          6           0        8.531100    1.638989   -3.977658
     55          6           0        8.606770    2.303401   -5.406112
     56          6           0        9.665369    2.061382   -3.134223
     57          6           0        9.288004    2.571795   -1.713339
     58          6           0       10.332915    2.158100   -0.739713
     59          6           0        9.862665    1.101435    0.287728
     60          6           0        9.890871   -0.251457   -0.351430
     61          6           0       10.787001    1.215389    1.520280
     62          6           0        9.870059    1.308054    2.803940
     63          6           0       10.379904    0.265486    3.798306
     64          6           0       10.359122    0.687835    5.256418
     65          6           0       11.586270    0.216170    6.012260
     66          6           0        8.956359    0.415766    5.928684
     67          1           0       -0.230411    1.315173    0.315668
     68          1           0       -5.415936    5.192287    0.040088
     69          1           0       -9.238747    0.237636    0.133897
     70          1           0       -1.369211   -3.117929    1.046123
     71          1           0       -0.100439   -1.068419   -0.762594
     72          1           0        1.275943   -0.641621    0.860280
     73          1           0        0.596423   -1.959033    1.857355
     74          1           0        0.008194   -0.393169    2.091576
     75          1           0       -1.999555   -3.901805   -1.618814
     76          1           0       -0.755977   -4.532288   -0.534741
     77          1           0       -0.002188   -2.357161   -2.350336
     78          1           0       -0.171623   -3.978608   -2.852343
     79          1           0        0.162405    4.895261    0.119425
     80          1           0        0.582758    3.254440    0.289539
     81          1           0        0.162171    4.210253    1.779503
     82          1           0       -1.420857    6.352068    2.191445
     83          1           0       -1.896325    7.868305    1.341126
     84          1           0       -0.870798    6.915516    0.471382
     85          1           0       -7.694615    4.239439   -1.392088
     86          1           0       -9.427502    2.869437    0.644657
     87          1           0       -7.425252    5.475249    1.144939
     88          1           0       -9.200560    5.014554    1.060127
     89          1           0       -8.414911    5.910520   -0.124914
     90          1           0       -9.620054    1.401864   -1.765406
     91          1           0       -9.420104    3.037590   -2.411823
     92          1           0      -11.338810    3.328869   -0.470922
     93          1           0      -11.612084    1.715104   -1.045899
     94          1           0      -11.615235    3.245740   -2.166756
     95          1           0       -9.732247   -1.916782    0.321589
     96          1           0       -9.420951   -3.028575    1.538670
     97          1           0       -9.408994   -3.571046   -0.190191
     98          1           0       -3.922314   -4.704324   -0.720635
     99          1           0       -2.055487   -7.623334    1.622514
    100          1           0       -3.247156   -6.946519    2.777691
    101          1           0       -1.725571   -6.088961    2.635147
    102          1           0        4.286544   -4.462843   -2.590683
    103          1           0        4.006259   -4.039812   -0.933685
    104          1           0        3.585399   -1.546471   -2.380405
    105          1           0        7.079894   -2.853263   -0.669145
    106          1           0        7.662344   -2.617750   -2.302262
    107          1           0        6.493731   -3.993870   -1.843020
    108          1           0        6.773418   -0.091225   -1.632325
    109          1           0        5.131289    0.194197   -2.196438
    110          1           0        6.179643    0.611279   -4.294902
    111          1           0        6.349495   -1.119788   -4.284643
    112          1           0        8.487209   -0.225340   -4.894953
    113          1           0        8.892785   -0.335844   -3.247062
    114          1           0        7.684014    2.153080   -3.523790
    115          1           0        8.191965    1.748139   -6.247106
    116          1           0        9.588523    2.654320   -5.725357
    117          1           0        8.011894    3.213715   -5.331173
    118          1           0       10.198032    2.871253   -3.632028
    119          1           0       10.480135    1.338000   -3.115493
    120          1           0        8.297023    2.228526   -1.412677
    121          1           0        9.281444    3.660923   -1.759440
    122          1           0       10.579271    3.122632   -0.296015
    123          1           0       11.279406    1.997384   -1.255215
    124          1           0        8.812472    1.309049    0.492395
    125          1           0        8.923059   -0.745036   -0.437707
    126          1           0       10.440699   -0.946812    0.282710
    127          1           0       10.400203   -0.215324   -1.314173
    128          1           0       11.353340    2.146802    1.506404
    129          1           0       11.489539    0.383929    1.589969
    130          1           0        8.842964    0.990120    2.620941
    131          1           0        9.925189    2.267882    3.317469
    132          1           0       11.294460   -0.275892    3.558807
    133          1           0        9.594899   -0.485209    3.701717
    134          1           0       10.386249    1.775334    5.324165
    135          1           0       11.384162   -0.434381    6.863192
    136          1           0       12.027913    1.130467    6.409497
    137          1           0       12.186973   -0.459043    5.402618
    138          1           0        9.014574   -0.147866    6.859557
    139          1           0        8.278760   -0.231600    5.372873
    140          1           0        8.301106    1.272323    6.091928
 ---------------------------------------------------------------------

 SCF Done:  E(RB-LYP) =  -3007.32958720     A.U. after   21 cycles

 Excitation energies and oscillator strengths:

 Excited State   1:      Singlet-A      1.8501 eV  670.16 nm  f=0.2676  <S**2>=0.000
     244 -> 247        0.17664
     245 -> 248        0.18363
     246 -> 247        0.66071
     246 <- 247       -0.13631
 This state for optimization and/or second-order correction.
 Total Energy, E(TD-HF/TD-DFT) =  -3007.26159838
 Copying the excited state density for this state as the 1-particle RhoCI density.

 Excited State   2:      Singlet-A      1.8768 eV  660.62 nm  f=0.0249  <S**2>=0.000
     244 -> 247        0.68174
     246 -> 247       -0.17235

 Excited State   3:      Singlet-A      1.9507 eV  635.58 nm  f=0.0192  <S**2>=0.000
     243 -> 247        0.65776
     245 -> 247        0.23843

 Excited State   4:      Singlet-A      1.9896 eV  623.16 nm  f=0.0961  <S**2>=0.000
     243 -> 247       -0.25244
     245 -> 247        0.61762
     246 -> 248       -0.17595

 Excited State   5:      Singlet-A      2.3527 eV  526.99 nm  f=0.0055  <S**2>=0.000
     242 -> 247        0.69701

 The electronic state is 1-A.
 Alpha  occ. eigenvalues --  -46.27157 -18.82321 -18.80680 -18.77293 -18.76474
 Alpha  occ. eigenvalues --  -18.75963 -18.75197 -14.03199 -14.02445 -14.01048
 Alpha  occ. eigenvalues --  -14.00187 -10.05103 -10.03256  -9.99941  -9.99028
 Alpha  occ. eigenvalues --   -9.98936  -9.97029  -9.96786  -9.96277  -9.96210
 Alpha  occ. eigenvalues --   -9.95691  -9.95600  -9.95524  -9.95157  -9.95123
 Alpha  occ. eigenvalues --   -9.94591  -9.94197  -9.94182  -9.93911  -9.93864
 Alpha  occ. eigenvalues --   -9.93813  -9.93671  -9.93546  -9.93502  -9.93452
 Alpha  occ. eigenvalues --   -9.93406  -9.93168  -9.93094  -9.93062  -9.92949
 Alpha  occ. eigenvalues --   -9.92857  -9.92603  -9.92587  -9.92478  -9.92338
 Alpha  occ. eigenvalues --   -9.91782  -9.91720  -9.91689  -9.91658  -9.91635
 Alpha  occ. eigenvalues --   -9.91603  -9.91599  -9.91598  -9.91430  -9.91400
 Alpha  occ. eigenvalues --   -9.91122  -9.91086  -9.91074  -9.90837  -9.90803
 Alpha  occ. eigenvalues --   -9.90653  -9.90637  -9.90492  -9.90329  -9.90261
 Alpha  occ. eigenvalues --   -9.90111  -2.91667  -1.72105  -1.71571  -1.71353
 Alpha  occ. eigenvalues --   -0.97786  -0.96048  -0.93164  -0.92011  -0.88996
 Alpha  occ. eigenvalues --   -0.88390  -0.87302  -0.85967  -0.85187  -0.83541
 Alpha  occ. eigenvalues --   -0.76118  -0.74153  -0.74084  -0.72843  -0.72157
 Alpha  occ. eigenvalues --   -0.72082  -0.71437  -0.71327  -0.71067  -0.69387
 Alpha  occ. eigenvalues --   -0.68933  -0.68705  -0.68294  -0.67529  -0.67378
 Alpha  occ. eigenvalues --   -0.66685  -0.65911  -0.65202  -0.65055  -0.64392
 Alpha  occ. eigenvalues --   -0.64207  -0.62568  -0.62023  -0.61461  -0.61043
 Alpha  occ. eigenvalues --   -0.60444  -0.60437  -0.60044  -0.59588  -0.59247
 Alpha  occ. eigenvalues --   -0.58785  -0.57875  -0.56859  -0.55985  -0.53963
 Alpha  occ. eigenvalues --   -0.53777  -0.53588  -0.52814  -0.52474  -0.51511
 Alpha  occ. eigenvalues --   -0.51271  -0.51095  -0.50803  -0.50703  -0.50176
 Alpha  occ. eigenvalues --   -0.49647  -0.49265  -0.49009  -0.47732  -0.46828
 Alpha  occ. eigenvalues --   -0.46553  -0.46126  -0.45972  -0.45033  -0.44816
 Alpha  occ. eigenvalues --   -0.44453  -0.43760  -0.43276  -0.42318  -0.42065
 Alpha  occ. eigenvalues --   -0.42043  -0.41832  -0.41173  -0.41073  -0.40962
 Alpha  occ. eigenvalues --   -0.40843  -0.40703  -0.40391  -0.40257  -0.40171
 Alpha  occ. eigenvalues --   -0.39967  -0.39874  -0.39335  -0.39146  -0.39017
 Alpha  occ. eigenvalues --   -0.38813  -0.38492  -0.38368  -0.38158  -0.38114
 Alpha  occ. eigenvalues --   -0.38011  -0.37755  -0.37666  -0.37449  -0.37270
 Alpha  occ. eigenvalues --   -0.37185  -0.36770  -0.36429  -0.36348  -0.36279
 Alpha  occ. eigenvalues --   -0.36073  -0.35836  -0.35774  -0.35588  -0.35536
 Alpha  occ. eigenvalues --   -0.35310  -0.35080  -0.35038  -0.34810  -0.34704
 Alpha  occ. eigenvalues --   -0.34532  -0.34490  -0.34347  -0.34205  -0.34179
 Alpha  occ. eigenvalues --   -0.34058  -0.33995  -0.33502  -0.33214  -0.33094
 Alpha  occ. eigenvalues --   -0.32925  -0.32833  -0.32612  -0.32436  -0.32330
 Alpha  occ. eigenvalues --   -0.32115  -0.31744  -0.31669  -0.31636  -0.31436
 Alpha  occ. eigenvalues --   -0.31192  -0.31057  -0.30765  -0.30634  -0.30555
 Alpha  occ. eigenvalues --   -0.30523  -0.30369  -0.30245  -0.30025  -0.29863
 Alpha  occ. eigenvalues --   -0.29631  -0.29587  -0.28951  -0.28907  -0.28716
 Alpha  occ. eigenvalues --   -0.28670  -0.28466  -0.28254  -0.27986  -0.27891
 Alpha  occ. eigenvalues --   -0.27733  -0.27498  -0.26895  -0.26513  -0.26451
 Alpha  occ. eigenvalues --   -0.26303  -0.25938  -0.25815  -0.25292  -0.25073
 Alpha  occ. eigenvalues --   -0.24905  -0.24519  -0.24093  -0.23745  -0.22914
 Alpha  occ. eigenvalues --   -0.22387  -0.22304  -0.22088  -0.21550  -0.21151
 Alpha  occ. eigenvalues --   -0.20422  -0.19776  -0.18804  -0.18523  -0.17040
 Alpha  occ. eigenvalues --   -0.16184
 Alpha virt. eigenvalues --   -0.11710  -0.06895  -0.05608  -0.04071  -0.03949
 Alpha virt. eigenvalues --   -0.02590  -0.01945  -0.01571  -0.00708   0.00421
 Alpha virt. eigenvalues --    0.01548   0.01606   0.01854   0.02230   0.02721

 Mulliken charges:
               1
     1  Mg   0.674350
     2  C   -0.002851
     3  C   -0.065899
     4  C   -0.048596
     5  C   -0.036550
     6  N   -0.162875
     7  C   -0.138734
     8  C    0.108743
     9  C   -0.031251
    10  C   -0.003404
    11  C    0.156991
    12  C    0.162284
    13  C    0.123834
    14  C    0.074628
    15  O   -0.213385
    16  O   -0.271818
    17  N   -0.366418
    18  C    0.177327
    19  C   -0.152888
    20  C    0.022607
    21  C    0.137880
    22  C    0.166422
    23  C   -0.084705
    24  O   -0.154322
    25  C    0.135324
    26  N   -0.174238
    27  C    0.023657
    28  C   -0.002108
    29  C    0.070421
    30  C   -0.070495
    31  C    0.128015
    32  C    0.066430
    33  C    0.059379
    34  N   -0.259076
    35  C    0.125193
    36  C   -0.177877
    37  C    0.109312
    38  C    0.072511
    39  C    0.181387
    40  C   -0.091556
    41  O   -0.081369
    42  C    0.093929
    43  C    0.105733
    44  O   -0.184904
    45  O   -0.311416
    46  C    0.232437
    47  C    0.300915
    48  C   -0.097688
    49  C   -0.153380
    50  C    0.123178
    51  C    0.122174
    52  C    0.064490
    53  C    0.148999
    54  C   -0.070508
    55  C    0.089683
    56  C    0.088223
    57  C    0.084319
    58  C    0.085606
    59  C   -0.060924
    60  C    0.124410
    61  C    0.141717
    62  C    0.069977
    63  C    0.079470
    64  C   -0.086462
    65  C    0.126217
    66  C    0.078021
    67  H   -0.066794
    68  H   -0.043779
    69  H   -0.061364
    70  H   -0.009731
    71  H   -0.029122
    72  H   -0.012163
    73  H   -0.000143
    74  H   -0.013127
    75  H   -0.025880
    76  H   -0.019034
    77  H    0.001870
    78  H   -0.000105
    79  H   -0.006628
    80  H   -0.005502
    81  H    0.019783
    82  H    0.023234
    83  H   -0.022646
    84  H   -0.000654
    85  H   -0.007196
    86  H   -0.022256
    87  H    0.002931
    88  H   -0.003089
    89  H   -0.030055
    90  H   -0.019985
    91  H   -0.018762
    92  H   -0.021460
    93  H    0.000234
    94  H   -0.002544
    95  H   -0.042900
    96  H    0.000452
    97  H    0.012090
    98  H   -0.002485
    99  H    0.019021
   100  H    0.011686
   101  H    0.016308
   102  H    0.010793
   103  H    0.014318
   104  H   -0.035500
   105  H    0.011307
   106  H    0.011055
   107  H   -0.009388
   108  H   -0.022885
   109  H   -0.029474
   110  H   -0.027398
   111  H   -0.025385
   112  H   -0.046872
   113  H   -0.044988
   114  H   -0.042865
   115  H   -0.022463
   116  H   -0.014625
   117  H   -0.021938
   118  H   -0.057016
   119  H   -0.040410
   120  H   -0.025747
   121  H   -0.034808
   122  H   -0.061267
   123  H   -0.042709
   124  H   -0.033766
   125  H   -0.020723
   126  H   -0.038713
   127  H   -0.003970
   128  H   -0.032634
   129  H   -0.025454
   130  H   -0.021294
   131  H   -0.024071
   132  H   -0.032359
   133  H   -0.045618
   134  H   -0.034177
   135  H   -0.030420
   136  H   -0.005446
   137  H   -0.019756
   138  H   -0.024770
   139  H   -0.033348
   140  H   -0.015912
 Sum of Mulliken charges =  -0.00000

 Dipole moment (field-independent basis, Debye):
    X=              4.5683    Y=              1.8965    Z=             -3.0347  Tot=              5.8030
 Quadrupole moment (field-independent basis, Debye-Ang):
   XX=           -384.6151   YY=           -426.2426   ZZ=           -406.9862
   XY=            -20.3550   XZ=              7.3083   YZ=              2.4900

 Normal termination of Gaussian 16 at Fri Apr 29 18:29:23 2022.
