 Gaussian 16, Revision A.03,
 Gaussian 16:  ES64L-G16RevA.03 25-Dec-2016

 -----------------------------------
 #p cam-b3lyp/Def2SVP td=(nstates=5)
 -----------------------------------

 -------------------------------------------------------
 step_401_chromophore_27 TDDFT with cam-b3lyp functional
 -------------------------------------------------------
 Symbolic Z-matrix:
 Charge =  0 Multiplicity = 1

                         Standard orientation:
 ---------------------------------------------------------------------
 Center     Atomic      Atomic             Coordinates (Angstroms)
 Number     Number       Type             X           Y           Z
 ---------------------------------------------------------------------
      1         12           0       -4.664166    0.768717   -0.002713
      2          6           0       -4.089256   -2.703505    0.060494
      3          6           0       -1.312128    1.168769    0.274792
      4          6           0       -5.240351    4.114243    0.067947
      5          6           0       -8.146446    0.239748    0.107327
      6          7           0       -2.971612   -0.732142    0.076003
      7          6           0       -2.929731   -2.044573    0.063503
      8          6           0       -1.481885   -2.617239    0.085176
      9          6           0       -0.629349   -1.292962    0.164607
     10          6           0       -1.719630   -0.207251    0.113049
     11          6           0        0.365515   -1.050418    1.299316
     12          6           0       -1.107176   -3.638972   -1.051881
     13          6           0       -0.004399   -3.375443   -1.960007
     14          6           0        1.363834   -3.557520   -1.372967
     15          8           0        1.699320   -3.562541   -0.170176
     16          8           0        2.346691   -3.778035   -2.308312
     17          7           0       -3.491189    2.429963    0.186033
     18          6           0       -2.116236    2.359020    0.325089
     19          6           0       -1.602491    3.707718    0.520872
     20          6           0       -2.780936    4.605294    0.480052
     21          6           0       -3.949437    3.783166    0.188586
     22          6           0       -0.057549    4.019399    0.729670
     23          6           0       -2.864557    6.119862    0.657019
     24          8           0       -3.876943    6.791208    0.544906
     25          6           0       -1.645960    6.813711    1.230381
     26          7           0       -6.522394    1.982928    0.128939
     27          6           0       -6.409337    3.356299    0.037115
     28          6           0       -7.782234    3.943145   -0.346992
     29          6           0       -8.777329    2.697977   -0.213076
     30          6           0       -7.783458    1.577729    0.061669
     31          6           0       -8.240716    5.069338    0.546516
     32          6           0       -9.692473    2.463216   -1.526986
     33          6           0      -11.195771    2.679991   -1.334513
     34          7           0       -5.968359   -0.859483    0.173369
     35          6           0       -7.296796   -0.961332    0.268884
     36          6           0       -7.677669   -2.309263    0.403329
     37          6           0       -6.458963   -3.041297    0.319988
     38          6           0       -5.414413   -2.142020    0.234606
     39          6           0       -9.117739   -2.795946    0.518515
     40          6           0       -5.843972   -4.346473    0.250434
     41          8           0       -6.346755   -5.413306    0.170821
     42          6           0       -4.306476   -4.182584    0.156444
     43          6           0       -3.633679   -4.716743    1.321238
     44          8           0       -3.530161   -4.265264    2.456194
     45          8           0       -2.982883   -5.914820    0.962970
     46          6           0       -2.432914   -6.714101    2.090071
     47          6           0        3.773600   -3.739242   -1.956004
     48          6           0        4.335170   -2.306246   -2.160503
     49          6           0        5.615483   -1.946151   -2.041339
     50          6           0        6.806129   -2.957674   -1.719897
     51          6           0        6.019946   -0.417977   -2.349005
     52          6           0        6.658733   -0.212173   -3.765266
     53          6           0        8.180047    0.145613   -3.916543
     54          6           0        8.531100    1.638989   -3.977658
     55          6           0        8.606770    2.303401   -5.406112
     56          6           0        9.665369    2.061382   -3.134223
     57          6           0        9.288004    2.571795   -1.713339
     58          6           0       10.332915    2.158100   -0.739713
     59          6           0        9.862665    1.101435    0.287728
     60          6           0        9.890871   -0.251457   -0.351430
     61          6           0       10.787001    1.215389    1.520280
     62          6           0        9.870059    1.308054    2.803940
     63          6           0       10.379904    0.265486    3.798306
     64          6           0       10.359122    0.687835    5.256418
     65          6           0       11.586270    0.216170    6.012260
     66          6           0        8.956359    0.415766    5.928684
     67          1           0       -0.230411    1.315173    0.315668
     68          1           0       -5.415936    5.192287    0.040088
     69          1           0       -9.238747    0.237636    0.133897
     70          1           0       -1.369211   -3.117929    1.046123
     71          1           0       -0.100439   -1.068419   -0.762594
     72          1           0        1.275943   -0.641621    0.860280
     73          1           0        0.596423   -1.959033    1.857355
     74          1           0        0.008194   -0.393169    2.091576
     75          1           0       -1.999555   -3.901805   -1.618814
     76          1           0       -0.755977   -4.532288   -0.534741
     77          1           0       -0.002188   -2.357161   -2.350336
     78          1           0       -0.171623   -3.978608   -2.852343
     79          1           0        0.162405    4.895261    0.119425
     80          1           0        0.582758    3.254440    0.289539
     81          1           0        0.162171    4.210253    1.779503
     82          1           0       -1.420857    6.352068    2.191445
     83          1           0       -1.896325    7.868305    1.341126
     84          1           0       -0.870798    6.915516    0.471382
     85          1           0       -7.694615    4.239439   -1.392088
     86          1           0       -9.427502    2.869437    0.644657
     87          1           0       -7.425252    5.475249    1.144939
     88          1           0       -9.200560    5.014554    1.060127
     89          1           0       -8.414911    5.910520   -0.124914
     90          1           0       -9.620054    1.401864   -1.765406
     91          1           0       -9.420104    3.037590   -2.411823
     92          1           0      -11.338810    3.328869   -0.470922
     93          1           0      -11.612084    1.715104   -1.045899
     94          1           0      -11.615235    3.245740   -2.166756
     95          1           0       -9.732247   -1.916782    0.321589
     96          1           0       -9.420951   -3.028575    1.538670
     97          1           0       -9.408994   -3.571046   -0.190191
     98          1           0       -3.922314   -4.704324   -0.720635
     99          1           0       -2.055487   -7.623334    1.622514
    100          1           0       -3.247156   -6.946519    2.777691
    101          1           0       -1.725571   -6.088961    2.635147
    102          1           0        4.286544   -4.462843   -2.590683
    103          1           0        4.006259   -4.039812   -0.933685
    104          1           0        3.585399   -1.546471   -2.380405
    105          1           0        7.079894   -2.853263   -0.669145
    106          1           0        7.662344   -2.617750   -2.302262
    107          1           0        6.493731   -3.993870   -1.843020
    108          1           0        6.773418   -0.091225   -1.632325
    109          1           0        5.131289    0.194197   -2.196438
    110          1           0        6.179643    0.611279   -4.294902
    111          1           0        6.349495   -1.119788   -4.284643
    112          1           0        8.487209   -0.225340   -4.894953
    113          1           0        8.892785   -0.335844   -3.247062
    114          1           0        7.684014    2.153080   -3.523790
    115          1           0        8.191965    1.748139   -6.247106
    116          1           0        9.588523    2.654320   -5.725357
    117          1           0        8.011894    3.213715   -5.331173
    118          1           0       10.198032    2.871253   -3.632028
    119          1           0       10.480135    1.338000   -3.115493
    120          1           0        8.297023    2.228526   -1.412677
    121          1           0        9.281444    3.660923   -1.759440
    122          1           0       10.579271    3.122632   -0.296015
    123          1           0       11.279406    1.997384   -1.255215
    124          1           0        8.812472    1.309049    0.492395
    125          1           0        8.923059   -0.745036   -0.437707
    126          1           0       10.440699   -0.946812    0.282710
    127          1           0       10.400203   -0.215324   -1.314173
    128          1           0       11.353340    2.146802    1.506404
    129          1           0       11.489539    0.383929    1.589969
    130          1           0        8.842964    0.990120    2.620941
    131          1           0        9.925189    2.267882    3.317469
    132          1           0       11.294460   -0.275892    3.558807
    133          1           0        9.594899   -0.485209    3.701717
    134          1           0       10.386249    1.775334    5.324165
    135          1           0       11.384162   -0.434381    6.863192
    136          1           0       12.027913    1.130467    6.409497
    137          1           0       12.186973   -0.459043    5.402618
    138          1           0        9.014574   -0.147866    6.859557
    139          1           0        8.278760   -0.231600    5.372873
    140          1           0        8.301106    1.272323    6.091928
 ---------------------------------------------------------------------

 SCF Done:  E(RCAM-B3LYP) =  -3007.12614461     A.U. after   18 cycles

 Excitation energies and oscillator strengths:

 Excited State   1:      Singlet-A      1.7885 eV  693.24 nm  f=0.3807  <S**2>=0.000
     245 -> 248        0.17472
     246 -> 247        0.68450
 This state for optimization and/or second-order correction.
 Total Energy, E(TD-HF/TD-DFT) =  -3007.06041983
 Copying the excited state density for this state as the 1-particle RhoCI density.

 Excited State   2:      Singlet-A      2.1792 eV  568.93 nm  f=0.1801  <S**2>=0.000
     245 -> 247        0.66155
     246 -> 248       -0.22408

 Excited State   3:      Singlet-A      3.1815 eV  389.71 nm  f=0.0018  <S**2>=0.000
     242 -> 247        0.13346
     243 -> 247       -0.22465
     244 -> 247        0.64592

 Excited State   4:      Singlet-A      3.3595 eV  369.06 nm  f=0.0064  <S**2>=0.000
     242 -> 247       -0.30869
     243 -> 247        0.53732
     244 -> 247        0.25074
     246 -> 248        0.16555

 Excited State   5:      Singlet-A      3.5479 eV  349.45 nm  f=0.0097  <S**2>=0.000
     239 -> 247        0.34058
     239 -> 248       -0.13111
     239 -> 249        0.17535
     240 -> 247        0.45586
     240 -> 248       -0.17222
     240 -> 249        0.22601

 The electronic state is 1-A.
 Alpha  occ. eigenvalues --  -46.88682 -19.25154 -19.23495 -19.20264 -19.19617
 Alpha  occ. eigenvalues --  -19.19538 -19.17927 -14.42033 -14.41368 -14.39675
 Alpha  occ. eigenvalues --  -14.38227 -10.40436 -10.38701 -10.35565 -10.33822
 Alpha  occ. eigenvalues --  -10.32981 -10.31643 -10.31213 -10.31085 -10.30937
 Alpha  occ. eigenvalues --  -10.30568 -10.30508 -10.29660 -10.29541 -10.28749
 Alpha  occ. eigenvalues --  -10.28512 -10.28492 -10.28257 -10.28207 -10.28134
 Alpha  occ. eigenvalues --  -10.27991 -10.27774 -10.27758 -10.27741 -10.27581
 Alpha  occ. eigenvalues --  -10.27143 -10.27097 -10.26990 -10.26936 -10.26912
 Alpha  occ. eigenvalues --  -10.26530 -10.26498 -10.26480 -10.26285 -10.26083
 Alpha  occ. eigenvalues --  -10.25994 -10.25846 -10.25425 -10.25374 -10.25361
 Alpha  occ. eigenvalues --  -10.25325 -10.25245 -10.25176 -10.25156 -10.25078
 Alpha  occ. eigenvalues --  -10.24831 -10.24770 -10.24747 -10.24515 -10.24419
 Alpha  occ. eigenvalues --  -10.24301 -10.24222 -10.24174 -10.23913 -10.23828
 Alpha  occ. eigenvalues --  -10.23745  -3.17092  -1.92009  -1.91556  -1.91376
 Alpha  occ. eigenvalues --   -1.16185  -1.14511  -1.11260  -1.10853  -1.06767
 Alpha  occ. eigenvalues --   -1.06164  -1.05032  -1.03603  -1.02401  -1.01369
 Alpha  occ. eigenvalues --   -0.93037  -0.91022  -0.90947  -0.89643  -0.89066
 Alpha  occ. eigenvalues --   -0.88845  -0.88062  -0.87954  -0.87678  -0.85928
 Alpha  occ. eigenvalues --   -0.85813  -0.84847  -0.84527  -0.83659  -0.83435
 Alpha  occ. eigenvalues --   -0.82759  -0.82046  -0.81291  -0.80989  -0.80162
 Alpha  occ. eigenvalues --   -0.80096  -0.78149  -0.77984  -0.76836  -0.76443
 Alpha  occ. eigenvalues --   -0.75847  -0.75712  -0.75427  -0.74866  -0.74440
 Alpha  occ. eigenvalues --   -0.73990  -0.72729  -0.71803  -0.70859  -0.68579
 Alpha  occ. eigenvalues --   -0.68245  -0.68054  -0.67406  -0.66951  -0.65592
 Alpha  occ. eigenvalues --   -0.65457  -0.65332  -0.64902  -0.64808  -0.64104
 Alpha  occ. eigenvalues --   -0.63653  -0.63068  -0.62756  -0.61379  -0.60384
 Alpha  occ. eigenvalues --   -0.60088  -0.59991  -0.59460  -0.58494  -0.58271
 Alpha  occ. eigenvalues --   -0.57721  -0.57069  -0.56393  -0.55555  -0.55142
 Alpha  occ. eigenvalues --   -0.54972  -0.54813  -0.54427  -0.53971  -0.53714
 Alpha  occ. eigenvalues --   -0.53543  -0.53394  -0.53316  -0.53175  -0.52834
 Alpha  occ. eigenvalues --   -0.52578  -0.52461  -0.52088  -0.51858  -0.51674
 Alpha  occ. eigenvalues --   -0.51505  -0.51209  -0.51084  -0.50803  -0.50679
 Alpha  occ. eigenvalues --   -0.50410  -0.50150  -0.49840  -0.49723  -0.49591
 Alpha  occ. eigenvalues --   -0.49483  -0.49419  -0.48901  -0.48774  -0.48371
 Alpha  occ. eigenvalues --   -0.48315  -0.48278  -0.48121  -0.47839  -0.47537
 Alpha  occ. eigenvalues --   -0.47414  -0.47036  -0.47016  -0.46910  -0.46734
 Alpha  occ. eigenvalues --   -0.46481  -0.46302  -0.46206  -0.46092  -0.45959
 Alpha  occ. eigenvalues --   -0.45823  -0.45778  -0.45251  -0.45053  -0.44814
 Alpha  occ. eigenvalues --   -0.44595  -0.44499  -0.44057  -0.44022  -0.43898
 Alpha  occ. eigenvalues --   -0.43815  -0.43722  -0.43224  -0.43107  -0.43046
 Alpha  occ. eigenvalues --   -0.42732  -0.42493  -0.42342  -0.42244  -0.42060
 Alpha  occ. eigenvalues --   -0.41815  -0.41739  -0.41671  -0.41595  -0.41495
 Alpha  occ. eigenvalues --   -0.40987  -0.40693  -0.40234  -0.40047  -0.39797
 Alpha  occ. eigenvalues --   -0.39733  -0.39430  -0.39194  -0.39030  -0.38943
 Alpha  occ. eigenvalues --   -0.38599  -0.38426  -0.37798  -0.37349  -0.37142
 Alpha  occ. eigenvalues --   -0.37079  -0.37038  -0.36733  -0.36391  -0.36041
 Alpha  occ. eigenvalues --   -0.35708  -0.35608  -0.35093  -0.34638  -0.34023
 Alpha  occ. eigenvalues --   -0.33718  -0.32926  -0.32742  -0.31418  -0.31304
 Alpha  occ. eigenvalues --   -0.30905  -0.30125  -0.30007  -0.28585  -0.23702
 Alpha  occ. eigenvalues --   -0.21698
 Alpha virt. eigenvalues --   -0.08920  -0.01565   0.00743   0.02952   0.03190
 Alpha virt. eigenvalues --    0.03983   0.05221   0.05877   0.06237   0.07128
 Alpha virt. eigenvalues --    0.07734   0.08149   0.08384   0.08952   0.09207

 Mulliken charges:
               1
     1  Mg   0.805211
     2  C   -0.028575
     3  C   -0.087907
     4  C   -0.074087
     5  C   -0.042298
     6  N   -0.235751
     7  C   -0.100914
     8  C    0.065591
     9  C   -0.088194
    10  C    0.030653
    11  C    0.090970
    12  C    0.104954
    13  C    0.044872
    14  C    0.160120
    15  O   -0.255257
    16  O   -0.338005
    17  N   -0.458089
    18  C    0.192206
    19  C   -0.157656
    20  C   -0.046432
    21  C    0.166790
    22  C    0.117310
    23  C   -0.000040
    24  O   -0.193138
    25  C    0.048796
    26  N   -0.244809
    27  C    0.051501
    28  C   -0.056443
    29  C    0.014277
    30  C   -0.047008
    31  C    0.063872
    32  C    0.010639
    33  C    0.000611
    34  N   -0.347865
    35  C    0.127162
    36  C   -0.182656
    37  C    0.029002
    38  C    0.109865
    39  C    0.137886
    40  C    0.004527
    41  O   -0.123803
    42  C    0.007304
    43  C    0.197858
    44  O   -0.219941
    45  O   -0.375119
    46  C    0.191164
    47  C    0.270632
    48  C   -0.117427
    49  C   -0.180454
    50  C    0.069039
    51  C    0.073372
    52  C    0.009509
    53  C    0.093001
    54  C   -0.127238
    55  C    0.031888
    56  C    0.033487
    57  C    0.033262
    58  C    0.026564
    59  C   -0.119518
    60  C    0.071027
    61  C    0.084703
    62  C    0.019032
    63  C    0.025000
    64  C   -0.148431
    65  C    0.065813
    66  C    0.021907
    67  H   -0.030838
    68  H   -0.002497
    69  H   -0.029101
    70  H    0.025939
    71  H    0.002413
    72  H    0.011207
    73  H    0.028593
    74  H    0.014806
    75  H    0.006410
    76  H    0.014022
    77  H    0.033453
    78  H    0.037952
    79  H    0.019377
    80  H    0.023120
    81  H    0.047219
    82  H    0.050510
    83  H    0.015442
    84  H    0.028947
    85  H    0.026751
    86  H    0.011932
    87  H    0.028275
    88  H    0.022895
    89  H   -0.003112
    90  H    0.010940
    91  H    0.008799
    92  H   -0.000358
    93  H    0.022162
    94  H    0.021595
    95  H   -0.020928
    96  H    0.024592
    97  H    0.035210
    98  H    0.042091
    99  H    0.042574
   100  H    0.035081
   101  H    0.039318
   102  H    0.037012
   103  H    0.045349
   104  H   -0.004160
   105  H    0.033939
   106  H    0.030712
   107  H    0.014156
   108  H   -0.000551
   109  H    0.000675
   110  H    0.000201
   111  H    0.005120
   112  H   -0.014847
   113  H   -0.019304
   114  H   -0.010611
   115  H    0.002577
   116  H    0.009363
   117  H    0.002222
   118  H   -0.023740
   119  H   -0.012841
   120  H   -0.001487
   121  H   -0.004076
   122  H   -0.028530
   123  H   -0.012000
   124  H   -0.002206
   125  H   -0.001734
   126  H   -0.011581
   127  H    0.016955
   128  H   -0.001884
   129  H    0.002280
   130  H    0.005035
   131  H    0.003042
   132  H   -0.004802
   133  H   -0.016554
   134  H   -0.002641
   135  H   -0.005332
   136  H    0.018104
   137  H    0.004542
   138  H   -0.000133
   139  H   -0.009361
   140  H    0.007978
 Sum of Mulliken charges =  -0.00000

 Dipole moment (field-independent basis, Debye):
    X=              5.4368    Y=              3.2173    Z=             -3.0476  Tot=              7.0141
 Quadrupole moment (field-independent basis, Debye-Ang):
   XX=           -389.5886   YY=           -420.8833   ZZ=           -406.8469
   XY=            -24.8606   XZ=              7.8398   YZ=              2.8427

 Normal termination of Gaussian 16 at Fri Apr 29 17:30:57 2022.
