 Gaussian 16, Revision A.03,
 Gaussian 16:  ES64L-G16RevA.03 25-Dec-2016

 ---------------------------------
 #p PBE1PBE/Def2SVP td=(nstates=5)
 ---------------------------------

 -----------------------------------------------------
 step_401_chromophore_27 TDDFT with PBE1PBE functional
 -----------------------------------------------------
 Symbolic Z-matrix:
 Charge =  0 Multiplicity = 1

                         Standard orientation:
 ---------------------------------------------------------------------
 Center     Atomic      Atomic             Coordinates (Angstroms)
 Number     Number       Type             X           Y           Z
 ---------------------------------------------------------------------
      1         12           0       -4.664166    0.768717   -0.002713
      2          6           0       -4.089256   -2.703505    0.060494
      3          6           0       -1.312128    1.168769    0.274792
      4          6           0       -5.240351    4.114243    0.067947
      5          6           0       -8.146446    0.239748    0.107327
      6          7           0       -2.971612   -0.732142    0.076003
      7          6           0       -2.929731   -2.044573    0.063503
      8          6           0       -1.481885   -2.617239    0.085176
      9          6           0       -0.629349   -1.292962    0.164607
     10          6           0       -1.719630   -0.207251    0.113049
     11          6           0        0.365515   -1.050418    1.299316
     12          6           0       -1.107176   -3.638972   -1.051881
     13          6           0       -0.004399   -3.375443   -1.960007
     14          6           0        1.363834   -3.557520   -1.372967
     15          8           0        1.699320   -3.562541   -0.170176
     16          8           0        2.346691   -3.778035   -2.308312
     17          7           0       -3.491189    2.429963    0.186033
     18          6           0       -2.116236    2.359020    0.325089
     19          6           0       -1.602491    3.707718    0.520872
     20          6           0       -2.780936    4.605294    0.480052
     21          6           0       -3.949437    3.783166    0.188586
     22          6           0       -0.057549    4.019399    0.729670
     23          6           0       -2.864557    6.119862    0.657019
     24          8           0       -3.876943    6.791208    0.544906
     25          6           0       -1.645960    6.813711    1.230381
     26          7           0       -6.522394    1.982928    0.128939
     27          6           0       -6.409337    3.356299    0.037115
     28          6           0       -7.782234    3.943145   -0.346992
     29          6           0       -8.777329    2.697977   -0.213076
     30          6           0       -7.783458    1.577729    0.061669
     31          6           0       -8.240716    5.069338    0.546516
     32          6           0       -9.692473    2.463216   -1.526986
     33          6           0      -11.195771    2.679991   -1.334513
     34          7           0       -5.968359   -0.859483    0.173369
     35          6           0       -7.296796   -0.961332    0.268884
     36          6           0       -7.677669   -2.309263    0.403329
     37          6           0       -6.458963   -3.041297    0.319988
     38          6           0       -5.414413   -2.142020    0.234606
     39          6           0       -9.117739   -2.795946    0.518515
     40          6           0       -5.843972   -4.346473    0.250434
     41          8           0       -6.346755   -5.413306    0.170821
     42          6           0       -4.306476   -4.182584    0.156444
     43          6           0       -3.633679   -4.716743    1.321238
     44          8           0       -3.530161   -4.265264    2.456194
     45          8           0       -2.982883   -5.914820    0.962970
     46          6           0       -2.432914   -6.714101    2.090071
     47          6           0        3.773600   -3.739242   -1.956004
     48          6           0        4.335170   -2.306246   -2.160503
     49          6           0        5.615483   -1.946151   -2.041339
     50          6           0        6.806129   -2.957674   -1.719897
     51          6           0        6.019946   -0.417977   -2.349005
     52          6           0        6.658733   -0.212173   -3.765266
     53          6           0        8.180047    0.145613   -3.916543
     54          6           0        8.531100    1.638989   -3.977658
     55          6           0        8.606770    2.303401   -5.406112
     56          6           0        9.665369    2.061382   -3.134223
     57          6           0        9.288004    2.571795   -1.713339
     58          6           0       10.332915    2.158100   -0.739713
     59          6           0        9.862665    1.101435    0.287728
     60          6           0        9.890871   -0.251457   -0.351430
     61          6           0       10.787001    1.215389    1.520280
     62          6           0        9.870059    1.308054    2.803940
     63          6           0       10.379904    0.265486    3.798306
     64          6           0       10.359122    0.687835    5.256418
     65          6           0       11.586270    0.216170    6.012260
     66          6           0        8.956359    0.415766    5.928684
     67          1           0       -0.230411    1.315173    0.315668
     68          1           0       -5.415936    5.192287    0.040088
     69          1           0       -9.238747    0.237636    0.133897
     70          1           0       -1.369211   -3.117929    1.046123
     71          1           0       -0.100439   -1.068419   -0.762594
     72          1           0        1.275943   -0.641621    0.860280
     73          1           0        0.596423   -1.959033    1.857355
     74          1           0        0.008194   -0.393169    2.091576
     75          1           0       -1.999555   -3.901805   -1.618814
     76          1           0       -0.755977   -4.532288   -0.534741
     77          1           0       -0.002188   -2.357161   -2.350336
     78          1           0       -0.171623   -3.978608   -2.852343
     79          1           0        0.162405    4.895261    0.119425
     80          1           0        0.582758    3.254440    0.289539
     81          1           0        0.162171    4.210253    1.779503
     82          1           0       -1.420857    6.352068    2.191445
     83          1           0       -1.896325    7.868305    1.341126
     84          1           0       -0.870798    6.915516    0.471382
     85          1           0       -7.694615    4.239439   -1.392088
     86          1           0       -9.427502    2.869437    0.644657
     87          1           0       -7.425252    5.475249    1.144939
     88          1           0       -9.200560    5.014554    1.060127
     89          1           0       -8.414911    5.910520   -0.124914
     90          1           0       -9.620054    1.401864   -1.765406
     91          1           0       -9.420104    3.037590   -2.411823
     92          1           0      -11.338810    3.328869   -0.470922
     93          1           0      -11.612084    1.715104   -1.045899
     94          1           0      -11.615235    3.245740   -2.166756
     95          1           0       -9.732247   -1.916782    0.321589
     96          1           0       -9.420951   -3.028575    1.538670
     97          1           0       -9.408994   -3.571046   -0.190191
     98          1           0       -3.922314   -4.704324   -0.720635
     99          1           0       -2.055487   -7.623334    1.622514
    100          1           0       -3.247156   -6.946519    2.777691
    101          1           0       -1.725571   -6.088961    2.635147
    102          1           0        4.286544   -4.462843   -2.590683
    103          1           0        4.006259   -4.039812   -0.933685
    104          1           0        3.585399   -1.546471   -2.380405
    105          1           0        7.079894   -2.853263   -0.669145
    106          1           0        7.662344   -2.617750   -2.302262
    107          1           0        6.493731   -3.993870   -1.843020
    108          1           0        6.773418   -0.091225   -1.632325
    109          1           0        5.131289    0.194197   -2.196438
    110          1           0        6.179643    0.611279   -4.294902
    111          1           0        6.349495   -1.119788   -4.284643
    112          1           0        8.487209   -0.225340   -4.894953
    113          1           0        8.892785   -0.335844   -3.247062
    114          1           0        7.684014    2.153080   -3.523790
    115          1           0        8.191965    1.748139   -6.247106
    116          1           0        9.588523    2.654320   -5.725357
    117          1           0        8.011894    3.213715   -5.331173
    118          1           0       10.198032    2.871253   -3.632028
    119          1           0       10.480135    1.338000   -3.115493
    120          1           0        8.297023    2.228526   -1.412677
    121          1           0        9.281444    3.660923   -1.759440
    122          1           0       10.579271    3.122632   -0.296015
    123          1           0       11.279406    1.997384   -1.255215
    124          1           0        8.812472    1.309049    0.492395
    125          1           0        8.923059   -0.745036   -0.437707
    126          1           0       10.440699   -0.946812    0.282710
    127          1           0       10.400203   -0.215324   -1.314173
    128          1           0       11.353340    2.146802    1.506404
    129          1           0       11.489539    0.383929    1.589969
    130          1           0        8.842964    0.990120    2.620941
    131          1           0        9.925189    2.267882    3.317469
    132          1           0       11.294460   -0.275892    3.558807
    133          1           0        9.594899   -0.485209    3.701717
    134          1           0       10.386249    1.775334    5.324165
    135          1           0       11.384162   -0.434381    6.863192
    136          1           0       12.027913    1.130467    6.409497
    137          1           0       12.186973   -0.459043    5.402618
    138          1           0        9.014574   -0.147866    6.859557
    139          1           0        8.278760   -0.231600    5.372873
    140          1           0        8.301106    1.272323    6.091928
 ---------------------------------------------------------------------

 SCF Done:  E(RPBE1PBE) =  -3005.31312987     A.U. after   16 cycles

 Excitation energies and oscillator strengths:

 Excited State   1:      Singlet-A      1.9100 eV  649.14 nm  f=0.3632  <S**2>=0.000
     245 -> 248        0.17153
     246 -> 247        0.68959
 This state for optimization and/or second-order correction.
 Total Energy, E(TD-HF/TD-DFT) =  -3005.24293984
 Copying the excited state density for this state as the 1-particle RhoCI density.

 Excited State   2:      Singlet-A      2.1858 eV  567.22 nm  f=0.1638  <S**2>=0.000
     245 -> 247        0.66929
     246 -> 248       -0.20225

 Excited State   3:      Singlet-A      2.8317 eV  437.84 nm  f=0.0037  <S**2>=0.000
     244 -> 247        0.69687

 Excited State   4:      Singlet-A      2.9645 eV  418.23 nm  f=0.0003  <S**2>=0.000
     243 -> 247        0.68936
     243 -> 249       -0.10414

 Excited State   5:      Singlet-A      3.0230 eV  410.13 nm  f=0.0060  <S**2>=0.000
     241 -> 247        0.53897
     241 -> 248       -0.11484
     241 -> 249        0.11913
     242 -> 247       -0.41386

 The electronic state is 1-A.
 Alpha  occ. eigenvalues --  -46.92091 -19.25853 -19.24250 -19.20543 -19.19828
 Alpha  occ. eigenvalues --  -19.19561 -19.18435 -14.41525 -14.40819 -14.39262
 Alpha  occ. eigenvalues --  -14.38128 -10.37470 -10.35788 -10.32433 -10.31231
 Alpha  occ. eigenvalues --  -10.30412 -10.29172 -10.28564 -10.28552 -10.28228
 Alpha  occ. eigenvalues --  -10.27925 -10.27822 -10.27568 -10.27437 -10.26865
 Alpha  occ. eigenvalues --  -10.26094 -10.26077 -10.25995 -10.25898 -10.25847
 Alpha  occ. eigenvalues --  -10.25651 -10.25521 -10.25433 -10.25390 -10.25324
 Alpha  occ. eigenvalues --  -10.24906 -10.24884 -10.24679 -10.24634 -10.24524
 Alpha  occ. eigenvalues --  -10.24462 -10.24334 -10.24022 -10.24005 -10.23615
 Alpha  occ. eigenvalues --  -10.23321 -10.23108 -10.23058 -10.23037 -10.23020
 Alpha  occ. eigenvalues --  -10.22861 -10.22789 -10.22724 -10.22613 -10.22570
 Alpha  occ. eigenvalues --  -10.22412 -10.22315 -10.22142 -10.22026 -10.21932
 Alpha  occ. eigenvalues --  -10.21771 -10.21718 -10.21691 -10.21594 -10.21472
 Alpha  occ. eigenvalues --  -10.21300  -3.14087  -1.86944  -1.86467  -1.86294
 Alpha  occ. eigenvalues --   -1.10991  -1.09320  -1.06320  -1.05325  -1.01607
 Alpha  occ. eigenvalues --   -1.01066  -0.99695  -0.98248  -0.97337  -0.95777
 Alpha  occ. eigenvalues --   -0.87604  -0.85199  -0.85080  -0.83738  -0.83284
 Alpha  occ. eigenvalues --   -0.82970  -0.82321  -0.82100  -0.81968  -0.80106
 Alpha  occ. eigenvalues --   -0.79859  -0.79404  -0.78719  -0.77982  -0.77854
 Alpha  occ. eigenvalues --   -0.76936  -0.76262  -0.75437  -0.75205  -0.74450
 Alpha  occ. eigenvalues --   -0.74325  -0.72445  -0.72090  -0.71208  -0.70574
 Alpha  occ. eigenvalues --   -0.70105  -0.69922  -0.69519  -0.69216  -0.68685
 Alpha  occ. eigenvalues --   -0.68211  -0.67310  -0.66124  -0.65246  -0.62958
 Alpha  occ. eigenvalues --   -0.62666  -0.62466  -0.61752  -0.61180  -0.60088
 Alpha  occ. eigenvalues --   -0.59813  -0.59531  -0.59365  -0.58974  -0.58741
 Alpha  occ. eigenvalues --   -0.57814  -0.57446  -0.57132  -0.56048  -0.54825
 Alpha  occ. eigenvalues --   -0.54470  -0.54348  -0.54086  -0.52992  -0.52787
 Alpha  occ. eigenvalues --   -0.52375  -0.51733  -0.50987  -0.50108  -0.49794
 Alpha  occ. eigenvalues --   -0.49491  -0.49175  -0.49016  -0.48448  -0.48216
 Alpha  occ. eigenvalues --   -0.48009  -0.47893  -0.47825  -0.47517  -0.47389
 Alpha  occ. eigenvalues --   -0.47152  -0.46943  -0.46506  -0.46382  -0.46194
 Alpha  occ. eigenvalues --   -0.46026  -0.45791  -0.45676  -0.45400  -0.45187
 Alpha  occ. eigenvalues --   -0.45015  -0.44845  -0.44418  -0.44319  -0.44104
 Alpha  occ. eigenvalues --   -0.44071  -0.43957  -0.43620  -0.43455  -0.42958
 Alpha  occ. eigenvalues --   -0.42925  -0.42790  -0.42710  -0.42464  -0.42118
 Alpha  occ. eigenvalues --   -0.42090  -0.41683  -0.41558  -0.41464  -0.41437
 Alpha  occ. eigenvalues --   -0.41150  -0.40972  -0.40803  -0.40794  -0.40640
 Alpha  occ. eigenvalues --   -0.40541  -0.40372  -0.40081  -0.39902  -0.39658
 Alpha  occ. eigenvalues --   -0.39389  -0.39217  -0.39037  -0.38736  -0.38624
 Alpha  occ. eigenvalues --   -0.38519  -0.38346  -0.38091  -0.37955  -0.37778
 Alpha  occ. eigenvalues --   -0.37591  -0.37216  -0.37094  -0.37005  -0.36836
 Alpha  occ. eigenvalues --   -0.36695  -0.36616  -0.36564  -0.36474  -0.36301
 Alpha  occ. eigenvalues --   -0.35791  -0.35588  -0.35122  -0.34786  -0.34777
 Alpha  occ. eigenvalues --   -0.34496  -0.34201  -0.33984  -0.33954  -0.33893
 Alpha  occ. eigenvalues --   -0.33451  -0.33230  -0.32539  -0.32317  -0.32186
 Alpha  occ. eigenvalues --   -0.32079  -0.31880  -0.31548  -0.31409  -0.31030
 Alpha  occ. eigenvalues --   -0.30581  -0.30499  -0.29922  -0.29404  -0.29045
 Alpha  occ. eigenvalues --   -0.28943  -0.28458  -0.27695  -0.27023  -0.26134
 Alpha  occ. eigenvalues --   -0.25887  -0.25462  -0.25238  -0.24527  -0.20682
 Alpha  occ. eigenvalues --   -0.19229
 Alpha virt. eigenvalues --   -0.11369  -0.05155  -0.03393  -0.01371  -0.00691
 Alpha virt. eigenvalues --    0.00133   0.00637   0.01486   0.02131   0.03366
 Alpha virt. eigenvalues --    0.04128   0.04506   0.04815   0.05112   0.05684

 Mulliken charges:
               1
     1  Mg   0.953058
     2  C   -0.049866
     3  C   -0.075823
     4  C   -0.073781
     5  C   -0.049044
     6  N   -0.345400
     7  C   -0.031832
     8  C    0.006113
     9  C   -0.169177
    10  C    0.071704
    11  C    0.031658
    12  C    0.049870
    13  C   -0.034725
    14  C    0.230824
    15  O   -0.286874
    16  O   -0.372039
    17  N   -0.570613
    18  C    0.211615
    19  C   -0.182127
    20  C   -0.097203
    21  C    0.197497
    22  C    0.056323
    23  C    0.052944
    24  O   -0.232797
    25  C   -0.026935
    26  N   -0.350287
    27  C    0.087569
    28  C   -0.135859
    29  C   -0.063478
    30  C    0.007265
    31  C    0.008619
    32  C   -0.047932
    33  C   -0.071675
    34  N   -0.471304
    35  C    0.161673
    36  C   -0.202011
    37  C   -0.030939
    38  C    0.178698
    39  C    0.087214
    40  C    0.109712
    41  O   -0.169921
    42  C   -0.110235
    43  C    0.292944
    44  O   -0.255714
    45  O   -0.406633
    46  C    0.134691
    47  C    0.231195
    48  C   -0.124010
    49  C   -0.228527
    50  C    0.002866
    51  C    0.008769
    52  C   -0.056090
    53  C    0.035455
    54  C   -0.216245
    55  C   -0.028255
    56  C   -0.016101
    57  C   -0.028039
    58  C   -0.029978
    59  C   -0.213315
    60  C    0.014856
    61  C    0.030496
    62  C   -0.043270
    63  C   -0.030378
    64  C   -0.242213
    65  C    0.007016
    66  C   -0.033392
    67  H    0.001909
    68  H    0.029169
    69  H    0.004582
    70  H    0.064771
    71  H    0.041954
    72  H    0.037972
    73  H    0.055622
    74  H    0.043570
    75  H    0.039413
    76  H    0.048357
    77  H    0.066649
    78  H    0.069538
    79  H    0.046617
    80  H    0.047736
    81  H    0.072604
    82  H    0.076210
    83  H    0.042643
    84  H    0.054887
    85  H    0.062668
    86  H    0.048016
    87  H    0.055925
    88  H    0.048214
    89  H    0.025254
    90  H    0.044300
    91  H    0.040613
    92  H    0.028820
    93  H    0.048921
    94  H    0.049458
    95  H    0.010248
    96  H    0.054398
    97  H    0.063209
    98  H    0.079658
    99  H    0.064434
   100  H    0.057627
   101  H    0.061379
   102  H    0.062571
   103  H    0.071354
   104  H    0.025138
   105  H    0.061506
   106  H    0.059473
   107  H    0.040889
   108  H    0.038177
   109  H    0.031970
   110  H    0.033561
   111  H    0.038370
   112  H    0.019692
   113  H    0.015861
   114  H    0.030385
   115  H    0.029438
   116  H    0.036063
   117  H    0.030170
   118  H    0.010465
   119  H    0.018234
   120  H    0.030971
   121  H    0.029816
   122  H    0.005625
   123  H    0.020808
   124  H    0.034569
   125  H    0.029700
   126  H    0.016689
   127  H    0.043048
   128  H    0.030966
   129  H    0.032746
   130  H    0.036706
   131  H    0.035115
   132  H    0.025232
   133  H    0.018908
   134  H    0.035736
   135  H    0.022037
   136  H    0.044741
   137  H    0.030978
   138  H    0.026698
   139  H    0.017014
   140  H    0.034629
 Sum of Mulliken charges =  -0.00000

 Dipole moment (field-independent basis, Debye):
    X=              4.9681    Y=              2.6162    Z=             -3.1035  Tot=              6.4155
 Quadrupole moment (field-independent basis, Debye-Ang):
   XX=           -380.0831   YY=           -418.9406   ZZ=           -404.4626
   XY=            -22.8086   XZ=              8.0024   YZ=              2.3107

 Normal termination of Gaussian 16 at Fri Apr 29 17:49:15 2022.
