 Gaussian 16, Revision A.03,
 Gaussian 16:  ES64L-G16RevA.03 25-Dec-2016

 --------------------------------
 #p wB97XD/Def2SVP td=(nstates=5)
 --------------------------------

 ----------------------------------------------------
 step_401_chromophore_27 TDDFT with wB97XD functional
 ----------------------------------------------------
 Symbolic Z-matrix:
 Charge =  0 Multiplicity = 1

                         Standard orientation:
 ---------------------------------------------------------------------
 Center     Atomic      Atomic             Coordinates (Angstroms)
 Number     Number       Type             X           Y           Z
 ---------------------------------------------------------------------
      1         12           0       -4.664166    0.768717   -0.002713
      2          6           0       -4.089256   -2.703505    0.060494
      3          6           0       -1.312128    1.168769    0.274792
      4          6           0       -5.240351    4.114243    0.067947
      5          6           0       -8.146446    0.239748    0.107327
      6          7           0       -2.971612   -0.732142    0.076003
      7          6           0       -2.929731   -2.044573    0.063503
      8          6           0       -1.481885   -2.617239    0.085176
      9          6           0       -0.629349   -1.292962    0.164607
     10          6           0       -1.719630   -0.207251    0.113049
     11          6           0        0.365515   -1.050418    1.299316
     12          6           0       -1.107176   -3.638972   -1.051881
     13          6           0       -0.004399   -3.375443   -1.960007
     14          6           0        1.363834   -3.557520   -1.372967
     15          8           0        1.699320   -3.562541   -0.170176
     16          8           0        2.346691   -3.778035   -2.308312
     17          7           0       -3.491189    2.429963    0.186033
     18          6           0       -2.116236    2.359020    0.325089
     19          6           0       -1.602491    3.707718    0.520872
     20          6           0       -2.780936    4.605294    0.480052
     21          6           0       -3.949437    3.783166    0.188586
     22          6           0       -0.057549    4.019399    0.729670
     23          6           0       -2.864557    6.119862    0.657019
     24          8           0       -3.876943    6.791208    0.544906
     25          6           0       -1.645960    6.813711    1.230381
     26          7           0       -6.522394    1.982928    0.128939
     27          6           0       -6.409337    3.356299    0.037115
     28          6           0       -7.782234    3.943145   -0.346992
     29          6           0       -8.777329    2.697977   -0.213076
     30          6           0       -7.783458    1.577729    0.061669
     31          6           0       -8.240716    5.069338    0.546516
     32          6           0       -9.692473    2.463216   -1.526986
     33          6           0      -11.195771    2.679991   -1.334513
     34          7           0       -5.968359   -0.859483    0.173369
     35          6           0       -7.296796   -0.961332    0.268884
     36          6           0       -7.677669   -2.309263    0.403329
     37          6           0       -6.458963   -3.041297    0.319988
     38          6           0       -5.414413   -2.142020    0.234606
     39          6           0       -9.117739   -2.795946    0.518515
     40          6           0       -5.843972   -4.346473    0.250434
     41          8           0       -6.346755   -5.413306    0.170821
     42          6           0       -4.306476   -4.182584    0.156444
     43          6           0       -3.633679   -4.716743    1.321238
     44          8           0       -3.530161   -4.265264    2.456194
     45          8           0       -2.982883   -5.914820    0.962970
     46          6           0       -2.432914   -6.714101    2.090071
     47          6           0        3.773600   -3.739242   -1.956004
     48          6           0        4.335170   -2.306246   -2.160503
     49          6           0        5.615483   -1.946151   -2.041339
     50          6           0        6.806129   -2.957674   -1.719897
     51          6           0        6.019946   -0.417977   -2.349005
     52          6           0        6.658733   -0.212173   -3.765266
     53          6           0        8.180047    0.145613   -3.916543
     54          6           0        8.531100    1.638989   -3.977658
     55          6           0        8.606770    2.303401   -5.406112
     56          6           0        9.665369    2.061382   -3.134223
     57          6           0        9.288004    2.571795   -1.713339
     58          6           0       10.332915    2.158100   -0.739713
     59          6           0        9.862665    1.101435    0.287728
     60          6           0        9.890871   -0.251457   -0.351430
     61          6           0       10.787001    1.215389    1.520280
     62          6           0        9.870059    1.308054    2.803940
     63          6           0       10.379904    0.265486    3.798306
     64          6           0       10.359122    0.687835    5.256418
     65          6           0       11.586270    0.216170    6.012260
     66          6           0        8.956359    0.415766    5.928684
     67          1           0       -0.230411    1.315173    0.315668
     68          1           0       -5.415936    5.192287    0.040088
     69          1           0       -9.238747    0.237636    0.133897
     70          1           0       -1.369211   -3.117929    1.046123
     71          1           0       -0.100439   -1.068419   -0.762594
     72          1           0        1.275943   -0.641621    0.860280
     73          1           0        0.596423   -1.959033    1.857355
     74          1           0        0.008194   -0.393169    2.091576
     75          1           0       -1.999555   -3.901805   -1.618814
     76          1           0       -0.755977   -4.532288   -0.534741
     77          1           0       -0.002188   -2.357161   -2.350336
     78          1           0       -0.171623   -3.978608   -2.852343
     79          1           0        0.162405    4.895261    0.119425
     80          1           0        0.582758    3.254440    0.289539
     81          1           0        0.162171    4.210253    1.779503
     82          1           0       -1.420857    6.352068    2.191445
     83          1           0       -1.896325    7.868305    1.341126
     84          1           0       -0.870798    6.915516    0.471382
     85          1           0       -7.694615    4.239439   -1.392088
     86          1           0       -9.427502    2.869437    0.644657
     87          1           0       -7.425252    5.475249    1.144939
     88          1           0       -9.200560    5.014554    1.060127
     89          1           0       -8.414911    5.910520   -0.124914
     90          1           0       -9.620054    1.401864   -1.765406
     91          1           0       -9.420104    3.037590   -2.411823
     92          1           0      -11.338810    3.328869   -0.470922
     93          1           0      -11.612084    1.715104   -1.045899
     94          1           0      -11.615235    3.245740   -2.166756
     95          1           0       -9.732247   -1.916782    0.321589
     96          1           0       -9.420951   -3.028575    1.538670
     97          1           0       -9.408994   -3.571046   -0.190191
     98          1           0       -3.922314   -4.704324   -0.720635
     99          1           0       -2.055487   -7.623334    1.622514
    100          1           0       -3.247156   -6.946519    2.777691
    101          1           0       -1.725571   -6.088961    2.635147
    102          1           0        4.286544   -4.462843   -2.590683
    103          1           0        4.006259   -4.039812   -0.933685
    104          1           0        3.585399   -1.546471   -2.380405
    105          1           0        7.079894   -2.853263   -0.669145
    106          1           0        7.662344   -2.617750   -2.302262
    107          1           0        6.493731   -3.993870   -1.843020
    108          1           0        6.773418   -0.091225   -1.632325
    109          1           0        5.131289    0.194197   -2.196438
    110          1           0        6.179643    0.611279   -4.294902
    111          1           0        6.349495   -1.119788   -4.284643
    112          1           0        8.487209   -0.225340   -4.894953
    113          1           0        8.892785   -0.335844   -3.247062
    114          1           0        7.684014    2.153080   -3.523790
    115          1           0        8.191965    1.748139   -6.247106
    116          1           0        9.588523    2.654320   -5.725357
    117          1           0        8.011894    3.213715   -5.331173
    118          1           0       10.198032    2.871253   -3.632028
    119          1           0       10.480135    1.338000   -3.115493
    120          1           0        8.297023    2.228526   -1.412677
    121          1           0        9.281444    3.660923   -1.759440
    122          1           0       10.579271    3.122632   -0.296015
    123          1           0       11.279406    1.997384   -1.255215
    124          1           0        8.812472    1.309049    0.492395
    125          1           0        8.923059   -0.745036   -0.437707
    126          1           0       10.440699   -0.946812    0.282710
    127          1           0       10.400203   -0.215324   -1.314173
    128          1           0       11.353340    2.146802    1.506404
    129          1           0       11.489539    0.383929    1.589969
    130          1           0        8.842964    0.990120    2.620941
    131          1           0        9.925189    2.267882    3.317469
    132          1           0       11.294460   -0.275892    3.558807
    133          1           0        9.594899   -0.485209    3.701717
    134          1           0       10.386249    1.775334    5.324165
    135          1           0       11.384162   -0.434381    6.863192
    136          1           0       12.027913    1.130467    6.409497
    137          1           0       12.186973   -0.459043    5.402618
    138          1           0        9.014574   -0.147866    6.859557
    139          1           0        8.278760   -0.231600    5.372873
    140          1           0        8.301106    1.272323    6.091928
 ---------------------------------------------------------------------

 SCF Done:  E(RwB97XD) =  -3007.82409147     A.U. after   19 cycles

 Excitation energies and oscillator strengths:

 Excited State   1:      Singlet-A      1.7500 eV  708.49 nm  f=0.3804  <S**2>=0.000
     245 -> 248        0.17799
     246 -> 247        0.68272
     245 <- 248        0.10716
 This state for optimization and/or second-order correction.
 Total Energy, E(TD-HF/TD-DFT) =  -3007.75978115
 Copying the excited state density for this state as the 1-particle RhoCI density.

 Excited State   2:      Singlet-A      2.1263 eV  583.10 nm  f=0.1750  <S**2>=0.000
     245 -> 247        0.65840
     246 -> 248       -0.22662

 Excited State   3:      Singlet-A      3.2145 eV  385.71 nm  f=0.0009  <S**2>=0.000
     242 -> 247       -0.36499
     244 -> 247        0.58260

 Excited State   4:      Singlet-A      3.3783 eV  367.00 nm  f=0.0060  <S**2>=0.000
     239 -> 247        0.10885
     242 -> 247        0.53622
     243 -> 247        0.11500
     244 -> 247        0.36103
     246 -> 248        0.18768

 Excited State   5:      Singlet-A      3.5477 eV  349.48 nm  f=0.0079  <S**2>=0.000
     240 -> 247        0.55170
     240 -> 248       -0.21331
     240 -> 249        0.30145
     240 -> 250       -0.12396

 The electronic state is 1-A.
 Alpha  occ. eigenvalues --  -46.95022 -19.30410 -19.28694 -19.25199 -19.24700
 Alpha  occ. eigenvalues --  -19.24426 -19.22894 -14.46609 -14.45977 -14.44348
 Alpha  occ. eigenvalues --  -14.42786 -10.44247 -10.42506 -10.39593 -10.37746
 Alpha  occ. eigenvalues --  -10.36895 -10.35744 -10.35375 -10.35187 -10.34823
 Alpha  occ. eigenvalues --  -10.34703 -10.34649 -10.33600 -10.33489 -10.32724
 Alpha  occ. eigenvalues --  -10.32680 -10.32393 -10.32278 -10.32278 -10.32174
 Alpha  occ. eigenvalues --  -10.31945 -10.31911 -10.31835 -10.31811 -10.31642
 Alpha  occ. eigenvalues --  -10.31089 -10.30996 -10.30987 -10.30948 -10.30873
 Alpha  occ. eigenvalues --  -10.30577 -10.30519 -10.30425 -10.30232 -10.30030
 Alpha  occ. eigenvalues --  -10.29911 -10.29909 -10.29419 -10.29364 -10.29315
 Alpha  occ. eigenvalues --  -10.29279 -10.29078 -10.29055 -10.29042 -10.28890
 Alpha  occ. eigenvalues --  -10.28786 -10.28691 -10.28600 -10.28431 -10.28260
 Alpha  occ. eigenvalues --  -10.28129 -10.28116 -10.28031 -10.27847 -10.27790
 Alpha  occ. eigenvalues --  -10.27663  -3.20887  -1.94491  -1.94015  -1.93838
 Alpha  occ. eigenvalues --   -1.18367  -1.16612  -1.13434  -1.13127  -1.08955
 Alpha  occ. eigenvalues --   -1.08322  -1.07034  -1.05609  -1.04396  -1.03480
 Alpha  occ. eigenvalues --   -0.94975  -0.92823  -0.92756  -0.91427  -0.91057
 Alpha  occ. eigenvalues --   -0.90661  -0.89929  -0.89756  -0.89585  -0.87938
 Alpha  occ. eigenvalues --   -0.87744  -0.86744  -0.86362  -0.85551  -0.85332
 Alpha  occ. eigenvalues --   -0.84611  -0.83996  -0.83218  -0.82850  -0.82136
 Alpha  occ. eigenvalues --   -0.81973  -0.80107  -0.79935  -0.78743  -0.78285
 Alpha  occ. eigenvalues --   -0.77634  -0.77623  -0.77238  -0.76837  -0.76336
 Alpha  occ. eigenvalues --   -0.75866  -0.74680  -0.73737  -0.72847  -0.70518
 Alpha  occ. eigenvalues --   -0.70198  -0.69977  -0.69424  -0.68846  -0.67541
 Alpha  occ. eigenvalues --   -0.67381  -0.67190  -0.66860  -0.66682  -0.66100
 Alpha  occ. eigenvalues --   -0.65471  -0.64957  -0.64695  -0.63355  -0.62309
 Alpha  occ. eigenvalues --   -0.62065  -0.61973  -0.61442  -0.60413  -0.60184
 Alpha  occ. eigenvalues --   -0.59716  -0.59057  -0.58337  -0.57577  -0.57078
 Alpha  occ. eigenvalues --   -0.56916  -0.56675  -0.56408  -0.55870  -0.55624
 Alpha  occ. eigenvalues --   -0.55439  -0.55328  -0.55194  -0.55074  -0.54749
 Alpha  occ. eigenvalues --   -0.54490  -0.54352  -0.54056  -0.53757  -0.53563
 Alpha  occ. eigenvalues --   -0.53410  -0.53116  -0.52975  -0.52778  -0.52610
 Alpha  occ. eigenvalues --   -0.52321  -0.52049  -0.51744  -0.51675  -0.51551
 Alpha  occ. eigenvalues --   -0.51393  -0.51301  -0.50793  -0.50709  -0.50303
 Alpha  occ. eigenvalues --   -0.50233  -0.50213  -0.50027  -0.49797  -0.49425
 Alpha  occ. eigenvalues --   -0.49339  -0.48993  -0.48945  -0.48784  -0.48660
 Alpha  occ. eigenvalues --   -0.48387  -0.48207  -0.48067  -0.48035  -0.47818
 Alpha  occ. eigenvalues --   -0.47731  -0.47646  -0.47170  -0.46958  -0.46787
 Alpha  occ. eigenvalues --   -0.46539  -0.46406  -0.45948  -0.45926  -0.45816
 Alpha  occ. eigenvalues --   -0.45782  -0.45623  -0.45182  -0.45045  -0.44948
 Alpha  occ. eigenvalues --   -0.44646  -0.44415  -0.44325  -0.44173  -0.43971
 Alpha  occ. eigenvalues --   -0.43689  -0.43669  -0.43585  -0.43497  -0.43405
 Alpha  occ. eigenvalues --   -0.42869  -0.42603  -0.42106  -0.41903  -0.41686
 Alpha  occ. eigenvalues --   -0.41592  -0.41280  -0.41054  -0.40952  -0.40844
 Alpha  occ. eigenvalues --   -0.40497  -0.40296  -0.39653  -0.39369  -0.39192
 Alpha  occ. eigenvalues --   -0.39032  -0.38933  -0.38598  -0.38316  -0.37994
 Alpha  occ. eigenvalues --   -0.37573  -0.37558  -0.36948  -0.36518  -0.35947
 Alpha  occ. eigenvalues --   -0.35692  -0.35131  -0.34580  -0.33647  -0.33329
 Alpha  occ. eigenvalues --   -0.32935  -0.32300  -0.32003  -0.30710  -0.25640
 Alpha  occ. eigenvalues --   -0.23536
 Alpha virt. eigenvalues --   -0.07277   0.00358   0.02761   0.05285   0.05990
 Alpha virt. eigenvalues --    0.06252   0.07465   0.08194   0.08792   0.09788
 Alpha virt. eigenvalues --    0.10456   0.11223   0.11484   0.11867   0.12491

 Mulliken charges:
               1
     1  Mg   0.943488
     2  C   -0.042956
     3  C   -0.095452
     4  C   -0.089371
     5  C   -0.055605
     6  N   -0.308236
     7  C   -0.062336
     8  C    0.023615
     9  C   -0.138034
    10  C    0.060034
    11  C    0.039986
    12  C    0.061212
    13  C   -0.014297
    14  C    0.213819
    15  O   -0.282631
    16  O   -0.369643
    17  N   -0.542411
    18  C    0.209582
    19  C   -0.174545
    20  C   -0.089203
    21  C    0.192956
    22  C    0.072205
    23  C    0.049715
    24  O   -0.225039
    25  C   -0.016264
    26  N   -0.315678
    27  C    0.077918
    28  C   -0.109449
    29  C   -0.035609
    30  C   -0.014386
    31  C    0.016764
    32  C   -0.034049
    33  C   -0.054204
    34  N   -0.435934
    35  C    0.146873
    36  C   -0.202706
    37  C   -0.020673
    38  C    0.149150
    39  C    0.100891
    40  C    0.087638
    41  O   -0.163898
    42  C   -0.068916
    43  C    0.265243
    44  O   -0.249162
    45  O   -0.404936
    46  C    0.149598
    47  C    0.244538
    48  C   -0.135778
    49  C   -0.213795
    50  C    0.020385
    51  C    0.031801
    52  C   -0.036690
    53  C    0.051980
    54  C   -0.181635
    55  C   -0.016419
    56  C   -0.002247
    57  C   -0.012096
    58  C   -0.010700
    59  C   -0.179390
    60  C    0.029367
    61  C    0.044898
    62  C   -0.026305
    63  C   -0.010407
    64  C   -0.212579
    65  C    0.018589
    66  C   -0.022632
    67  H   -0.008535
    68  H    0.023139
    69  H   -0.005327
    70  H    0.053524
    71  H    0.025215
    72  H    0.033477
    73  H    0.052582
    74  H    0.036843
    75  H    0.031144
    76  H    0.040058
    77  H    0.058491
    78  H    0.066372
    79  H    0.040608
    80  H    0.046029
    81  H    0.070464
    82  H    0.072363
    83  H    0.042121
    84  H    0.050887
    85  H    0.053025
    86  H    0.035951
    87  H    0.049357
    88  H    0.044315
    89  H    0.019570
    90  H    0.034452
    91  H    0.033358
    92  H    0.019619
    93  H    0.043526
    94  H    0.044468
    95  H   -0.000032
    96  H    0.047740
    97  H    0.057716
    98  H    0.072269
    99  H    0.061551
   100  H    0.053166
   101  H    0.056780
   102  H    0.058165
   103  H    0.067084
   104  H    0.021524
   105  H    0.055623
   106  H    0.051517
   107  H    0.035916
   108  H    0.020390
   109  H    0.026065
   110  H    0.024531
   111  H    0.029262
   112  H    0.011690
   113  H   -0.000161
   114  H    0.012704
   115  H    0.024323
   116  H    0.030068
   117  H    0.024105
   118  H    0.001749
   119  H    0.006784
   120  H    0.017899
   121  H    0.023038
   122  H   -0.003726
   123  H    0.010941
   124  H    0.020535
   125  H    0.019245
   126  H    0.010925
   127  H    0.033390
   128  H    0.023002
   129  H    0.022918
   130  H    0.027448
   131  H    0.026454
   132  H    0.014415
   133  H    0.006508
   134  H    0.022635
   135  H    0.015871
   136  H    0.039904
   137  H    0.025008
   138  H    0.020656
   139  H    0.009836
   140  H    0.029524
 Sum of Mulliken charges =  -0.00000

 Dipole moment (field-independent basis, Debye):
    X=              5.5835    Y=              3.4557    Z=             -3.0805  Tot=              7.2531
 Quadrupole moment (field-independent basis, Debye-Ang):
   XX=           -385.6659   YY=           -416.2912   ZZ=           -403.9344
   XY=            -25.7460   XZ=              8.2121   YZ=              2.8228

 Normal termination of Gaussian 16 at Fri Apr 29 18:16:15 2022.
