 Gaussian 16, Revision A.03,
 Gaussian 16:  ES64L-G16RevA.03 25-Dec-2016

 --------------------
 #p ZINDO=(nstates=5)
 --------------------

 -----------------------------
 step_401_chromophore_27 ZINDO
 -----------------------------
 Symbolic Z-matrix:
 Charge =  0 Multiplicity = 1

                         Standard orientation:
 ---------------------------------------------------------------------
 Center     Atomic      Atomic             Coordinates (Angstroms)
 Number     Number       Type             X           Y           Z
 ---------------------------------------------------------------------
      1         12           0       -4.664166    0.768717   -0.002713
      2          6           0       -4.089256   -2.703505    0.060494
      3          6           0       -1.312128    1.168769    0.274792
      4          6           0       -5.240351    4.114243    0.067947
      5          6           0       -8.146446    0.239748    0.107327
      6          7           0       -2.971612   -0.732142    0.076003
      7          6           0       -2.929731   -2.044573    0.063503
      8          6           0       -1.481885   -2.617239    0.085176
      9          6           0       -0.629349   -1.292962    0.164607
     10          6           0       -1.719630   -0.207251    0.113049
     11          6           0        0.365515   -1.050418    1.299316
     12          6           0       -1.107176   -3.638972   -1.051881
     13          6           0       -0.004399   -3.375443   -1.960007
     14          6           0        1.363834   -3.557520   -1.372967
     15          8           0        1.699320   -3.562541   -0.170176
     16          8           0        2.346691   -3.778035   -2.308312
     17          7           0       -3.491189    2.429963    0.186033
     18          6           0       -2.116236    2.359020    0.325089
     19          6           0       -1.602491    3.707718    0.520872
     20          6           0       -2.780936    4.605294    0.480052
     21          6           0       -3.949437    3.783166    0.188586
     22          6           0       -0.057549    4.019399    0.729670
     23          6           0       -2.864557    6.119862    0.657019
     24          8           0       -3.876943    6.791208    0.544906
     25          6           0       -1.645960    6.813711    1.230381
     26          7           0       -6.522394    1.982928    0.128939
     27          6           0       -6.409337    3.356299    0.037115
     28          6           0       -7.782234    3.943145   -0.346992
     29          6           0       -8.777329    2.697977   -0.213076
     30          6           0       -7.783458    1.577729    0.061669
     31          6           0       -8.240716    5.069338    0.546516
     32          6           0       -9.692473    2.463216   -1.526986
     33          6           0      -11.195771    2.679991   -1.334513
     34          7           0       -5.968359   -0.859483    0.173369
     35          6           0       -7.296796   -0.961332    0.268884
     36          6           0       -7.677669   -2.309263    0.403329
     37          6           0       -6.458963   -3.041297    0.319988
     38          6           0       -5.414413   -2.142020    0.234606
     39          6           0       -9.117739   -2.795946    0.518515
     40          6           0       -5.843972   -4.346473    0.250434
     41          8           0       -6.346755   -5.413306    0.170821
     42          6           0       -4.306476   -4.182584    0.156444
     43          6           0       -3.633679   -4.716743    1.321238
     44          8           0       -3.530161   -4.265264    2.456194
     45          8           0       -2.982883   -5.914820    0.962970
     46          6           0       -2.432914   -6.714101    2.090071
     47          6           0        3.773600   -3.739242   -1.956004
     48          6           0        4.335170   -2.306246   -2.160503
     49          6           0        5.615483   -1.946151   -2.041339
     50          6           0        6.806129   -2.957674   -1.719897
     51          6           0        6.019946   -0.417977   -2.349005
     52          6           0        6.658733   -0.212173   -3.765266
     53          6           0        8.180047    0.145613   -3.916543
     54          6           0        8.531100    1.638989   -3.977658
     55          6           0        8.606770    2.303401   -5.406112
     56          6           0        9.665369    2.061382   -3.134223
     57          6           0        9.288004    2.571795   -1.713339
     58          6           0       10.332915    2.158100   -0.739713
     59          6           0        9.862665    1.101435    0.287728
     60          6           0        9.890871   -0.251457   -0.351430
     61          6           0       10.787001    1.215389    1.520280
     62          6           0        9.870059    1.308054    2.803940
     63          6           0       10.379904    0.265486    3.798306
     64          6           0       10.359122    0.687835    5.256418
     65          6           0       11.586270    0.216170    6.012260
     66          6           0        8.956359    0.415766    5.928684
     67          1           0       -0.230411    1.315173    0.315668
     68          1           0       -5.415936    5.192287    0.040088
     69          1           0       -9.238747    0.237636    0.133897
     70          1           0       -1.369211   -3.117929    1.046123
     71          1           0       -0.100439   -1.068419   -0.762594
     72          1           0        1.275943   -0.641621    0.860280
     73          1           0        0.596423   -1.959033    1.857355
     74          1           0        0.008194   -0.393169    2.091576
     75          1           0       -1.999555   -3.901805   -1.618814
     76          1           0       -0.755977   -4.532288   -0.534741
     77          1           0       -0.002188   -2.357161   -2.350336
     78          1           0       -0.171623   -3.978608   -2.852343
     79          1           0        0.162405    4.895261    0.119425
     80          1           0        0.582758    3.254440    0.289539
     81          1           0        0.162171    4.210253    1.779503
     82          1           0       -1.420857    6.352068    2.191445
     83          1           0       -1.896325    7.868305    1.341126
     84          1           0       -0.870798    6.915516    0.471382
     85          1           0       -7.694615    4.239439   -1.392088
     86          1           0       -9.427502    2.869437    0.644657
     87          1           0       -7.425252    5.475249    1.144939
     88          1           0       -9.200560    5.014554    1.060127
     89          1           0       -8.414911    5.910520   -0.124914
     90          1           0       -9.620054    1.401864   -1.765406
     91          1           0       -9.420104    3.037590   -2.411823
     92          1           0      -11.338810    3.328869   -0.470922
     93          1           0      -11.612084    1.715104   -1.045899
     94          1           0      -11.615235    3.245740   -2.166756
     95          1           0       -9.732247   -1.916782    0.321589
     96          1           0       -9.420951   -3.028575    1.538670
     97          1           0       -9.408994   -3.571046   -0.190191
     98          1           0       -3.922314   -4.704324   -0.720635
     99          1           0       -2.055487   -7.623334    1.622514
    100          1           0       -3.247156   -6.946519    2.777691
    101          1           0       -1.725571   -6.088961    2.635147
    102          1           0        4.286544   -4.462843   -2.590683
    103          1           0        4.006259   -4.039812   -0.933685
    104          1           0        3.585399   -1.546471   -2.380405
    105          1           0        7.079894   -2.853263   -0.669145
    106          1           0        7.662344   -2.617750   -2.302262
    107          1           0        6.493731   -3.993870   -1.843020
    108          1           0        6.773418   -0.091225   -1.632325
    109          1           0        5.131289    0.194197   -2.196438
    110          1           0        6.179643    0.611279   -4.294902
    111          1           0        6.349495   -1.119788   -4.284643
    112          1           0        8.487209   -0.225340   -4.894953
    113          1           0        8.892785   -0.335844   -3.247062
    114          1           0        7.684014    2.153080   -3.523790
    115          1           0        8.191965    1.748139   -6.247106
    116          1           0        9.588523    2.654320   -5.725357
    117          1           0        8.011894    3.213715   -5.331173
    118          1           0       10.198032    2.871253   -3.632028
    119          1           0       10.480135    1.338000   -3.115493
    120          1           0        8.297023    2.228526   -1.412677
    121          1           0        9.281444    3.660923   -1.759440
    122          1           0       10.579271    3.122632   -0.296015
    123          1           0       11.279406    1.997384   -1.255215
    124          1           0        8.812472    1.309049    0.492395
    125          1           0        8.923059   -0.745036   -0.437707
    126          1           0       10.440699   -0.946812    0.282710
    127          1           0       10.400203   -0.215324   -1.314173
    128          1           0       11.353340    2.146802    1.506404
    129          1           0       11.489539    0.383929    1.589969
    130          1           0        8.842964    0.990120    2.620941
    131          1           0        9.925189    2.267882    3.317469
    132          1           0       11.294460   -0.275892    3.558807
    133          1           0        9.594899   -0.485209    3.701717
    134          1           0       10.386249    1.775334    5.324165
    135          1           0       11.384162   -0.434381    6.863192
    136          1           0       12.027913    1.130467    6.409497
    137          1           0       12.186973   -0.459043    5.402618
    138          1           0        9.014574   -0.147866    6.859557
    139          1           0        8.278760   -0.231600    5.372873
    140          1           0        8.301106    1.272323    6.091928
 ---------------------------------------------------------------------

 SCF Done:  E(RZINDO/S) =  -474.292456377     A.U. after   18 cycles

 Excitation energies and oscillator strengths:

 Excited State   1:      Singlet-A      1.3648 eV  908.42 nm  f=0.5629  <S**2>=0.000
     175 ->178         0.16767
     176 ->177         0.66858
 This state for optimization and/or second-order correction.
 Total Energy, E(CIS/TDA) =  -474.242299401
 Copying the excited state density for this state as the 1-particle RhoCI density.

 Excited State   2:      Singlet-A      1.9207 eV  645.52 nm  f=0.1335  <S**2>=0.000
     175 ->177         0.59114
     176 ->178        -0.34252

 Excited State   3:      Singlet-A      2.8993 eV  427.63 nm  f=0.0054  <S**2>=0.000
     167 ->177         0.15654
     167 ->178        -0.11421
     167 ->179        -0.20209
     167 ->181         0.10352
     167 ->186        -0.10731
     168 ->177         0.31302
     168 ->178        -0.20000
     168 ->179        -0.34883
     168 ->181         0.17259
     168 ->184        -0.16453
     168 ->186        -0.18463

 Excited State   4:      Singlet-A      3.0712 eV  403.70 nm  f=0.8464  <S**2>=0.000
     170 ->177        -0.22491
     173 ->177         0.10811
     174 ->177         0.12414
     175 ->177         0.29451
     176 ->178         0.54133

 Excited State   5:      Singlet-A      3.0913 eV  401.07 nm  f=0.0033  <S**2>=0.000
     170 ->177         0.13718
     172 ->177         0.26638
     172 ->179         0.25051
     172 ->181         0.35556
     172 ->183         0.13735
     172 ->186         0.20189
     172 ->188         0.13488
     172 ->189        -0.11858
     172 ->205        -0.10061
     174 ->177        -0.13307

 The electronic state is 1-A.
 Alpha  occ. eigenvalues --   -1.84483  -1.80235  -1.78760  -1.72599  -1.71460
 Alpha  occ. eigenvalues --   -1.69739  -1.68068  -1.61371  -1.60068  -1.59793
 Alpha  occ. eigenvalues --   -1.55131  -1.53110  -1.49432  -1.48442  -1.46227
 Alpha  occ. eigenvalues --   -1.42638  -1.41140  -1.40984  -1.39402  -1.39234
 Alpha  occ. eigenvalues --   -1.36545  -1.32603  -1.31466  -1.31390  -1.28247
 Alpha  occ. eigenvalues --   -1.27539  -1.24957  -1.22169  -1.20976  -1.18169
 Alpha  occ. eigenvalues --   -1.17421  -1.17187  -1.16330  -1.15250  -1.14582
 Alpha  occ. eigenvalues --   -1.12509  -1.10543  -1.09898  -1.04804  -1.03353
 Alpha  occ. eigenvalues --   -1.03102  -1.01232  -0.99529  -0.97725  -0.96722
 Alpha  occ. eigenvalues --   -0.95649  -0.94308  -0.94005  -0.93224  -0.92909
 Alpha  occ. eigenvalues --   -0.91649  -0.91284  -0.90282  -0.87780  -0.86635
 Alpha  occ. eigenvalues --   -0.85936  -0.83928  -0.82683  -0.82088  -0.80215
 Alpha  occ. eigenvalues --   -0.80043  -0.78895  -0.78712  -0.78403  -0.76063
 Alpha  occ. eigenvalues --   -0.75877  -0.75126  -0.74696  -0.74433  -0.73474
 Alpha  occ. eigenvalues --   -0.72569  -0.72371  -0.71762  -0.71472  -0.71013
 Alpha  occ. eigenvalues --   -0.70334  -0.69798  -0.69465  -0.68370  -0.68086
 Alpha  occ. eigenvalues --   -0.67914  -0.67024  -0.66905  -0.66367  -0.65741
 Alpha  occ. eigenvalues --   -0.64698  -0.64261  -0.63860  -0.63707  -0.63598
 Alpha  occ. eigenvalues --   -0.62911  -0.62354  -0.62079  -0.61439  -0.61094
 Alpha  occ. eigenvalues --   -0.61029  -0.60839  -0.60668  -0.60359  -0.59542
 Alpha  occ. eigenvalues --   -0.59454  -0.58814  -0.58644  -0.58248  -0.58109
 Alpha  occ. eigenvalues --   -0.57849  -0.57813  -0.57141  -0.56848  -0.56290
 Alpha  occ. eigenvalues --   -0.56084  -0.55658  -0.55542  -0.55075  -0.54462
 Alpha  occ. eigenvalues --   -0.54135  -0.54014  -0.53990  -0.53168  -0.53038
 Alpha  occ. eigenvalues --   -0.52528  -0.52176  -0.52055  -0.51518  -0.51330
 Alpha  occ. eigenvalues --   -0.51089  -0.50929  -0.50404  -0.50263  -0.49989
 Alpha  occ. eigenvalues --   -0.49692  -0.49517  -0.49287  -0.49206  -0.49085
 Alpha  occ. eigenvalues --   -0.48965  -0.48858  -0.48583  -0.48168  -0.47764
 Alpha  occ. eigenvalues --   -0.47424  -0.47368  -0.46643  -0.46594  -0.46299
 Alpha  occ. eigenvalues --   -0.46127  -0.45813  -0.45746  -0.45455  -0.45337
 Alpha  occ. eigenvalues --   -0.45021  -0.44574  -0.44489  -0.44139  -0.44077
 Alpha  occ. eigenvalues --   -0.43264  -0.42779  -0.42589  -0.42119  -0.41821
 Alpha  occ. eigenvalues --   -0.41657  -0.41135  -0.39571  -0.39366  -0.39188
 Alpha  occ. eigenvalues --   -0.37953  -0.36467  -0.35763  -0.34367  -0.33700
 Alpha  occ. eigenvalues --   -0.33515  -0.33501  -0.32514  -0.31088  -0.26364
 Alpha  occ. eigenvalues --   -0.22421
 Alpha virt. eigenvalues --   -0.08687  -0.02028  -0.00512   0.01073   0.01931
 Alpha virt. eigenvalues --    0.02761   0.03442   0.03691   0.04576   0.04796
 Alpha virt. eigenvalues --    0.05869   0.06800   0.07049   0.07776   0.08172

 Mulliken charges:
               1
     1  Mg   0.423757
     2  C   -0.025491
     3  C   -0.100213
     4  C   -0.044984
     5  C   -0.073472
     6  N   -0.267461
     7  C    0.113581
     8  C    0.004351
     9  C    0.004342
    10  C    0.159903
    11  C   -0.041212
    12  C   -0.017275
    13  C    0.028342
    14  C    0.472056
    15  O   -0.534668
    16  O   -0.283301
    17  N   -0.355534
    18  C    0.141701
    19  C    0.013333
    20  C   -0.037899
    21  C    0.149162
    22  C   -0.041702
    23  C    0.327721
    24  O   -0.510155
    25  C   -0.037489
    26  N   -0.266503
    27  C    0.161203
    28  C    0.009320
    29  C   -0.006115
    30  C    0.106417
    31  C   -0.056525
    32  C   -0.040156
    33  C   -0.062776
    34  N   -0.323837
    35  C    0.092881
    36  C   -0.005032
    37  C   -0.054418
    38  C    0.071455
    39  C   -0.044163
    40  C    0.343228
    41  O   -0.519315
    42  C    0.059423
    43  C    0.493848
    44  O   -0.529180
    45  O   -0.297789
    46  C    0.072978
    47  C    0.109370
    48  C   -0.074711
    49  C   -0.027451
    50  C   -0.047344
    51  C   -0.024867
    52  C   -0.031880
    53  C   -0.030328
    54  C   -0.003684
    55  C   -0.061414
    56  C   -0.031114
    57  C   -0.034578
    58  C   -0.038162
    59  C   -0.001496
    60  C   -0.055880
    61  C   -0.035606
    62  C   -0.043409
    63  C   -0.041095
    64  C   -0.005857
    65  C   -0.057985
    66  C   -0.065148
    67  H    0.031665
    68  H    0.041841
    69  H    0.026022
    70  H    0.047480
    71  H    0.029131
    72  H    0.021873
    73  H    0.029412
    74  H    0.021594
    75  H    0.022723
    76  H    0.029795
    77  H    0.040552
    78  H    0.038086
    79  H    0.024151
    80  H    0.031989
    81  H    0.042481
    82  H    0.047003
    83  H    0.030280
    84  H    0.039956
    85  H    0.040933
    86  H    0.038681
    87  H    0.029747
    88  H    0.033425
    89  H    0.004763
    90  H    0.020828
    91  H    0.025006
    92  H    0.009453
    93  H    0.028700
    94  H    0.027595
    95  H    0.008813
    96  H    0.032487
    97  H    0.035510
    98  H    0.052398
    99  H    0.036994
   100  H    0.044194
   101  H    0.049441
   102  H    0.040011
   103  H    0.058708
   104  H    0.035111
   105  H    0.027832
   106  H    0.031171
   107  H    0.031662
   108  H    0.020572
   109  H    0.024729
   110  H    0.017901
   111  H    0.020606
   112  H    0.009865
   113  H    0.024167
   114  H    0.010015
   115  H    0.017845
   116  H    0.020760
   117  H    0.010554
   118  H    0.007373
   119  H    0.016654
   120  H    0.021369
   121  H    0.015387
   122  H   -0.000580
   123  H    0.023084
   124  H    0.027700
   125  H    0.016781
   126  H    0.010409
   127  H    0.022156
   128  H    0.018425
   129  H    0.029851
   130  H    0.026704
   131  H    0.026283
   132  H    0.025149
   133  H    0.006826
   134  H    0.012951
   135  H    0.012668
   136  H    0.024775
   137  H    0.024547
   138  H    0.015118
   139  H    0.011273
   140  H    0.018892
 Sum of Mulliken charges =   0.00000

 Dipole moment (field-independent basis, Debye):
    X=              8.1532    Y=              6.2463    Z=             -4.8973  Tot=             11.3787
 N-N= 4.371415403361D+03 E-N= 0.000000000000D+00  KE=-9.417245317861D+03
 Leave Link  601 at Fri Apr 29 18:29:30 2022, MaxMem=  6710886400 cpu:               0.8 elap:               0.1
 (Enter /sw/apps/gaussian-16.0/g16/l9999.exe)
 1\1\GINC-BP1-COMPUTE161\SP\RZINDO CIS\STO-3G\C55H74Mg1N4O6\OF15641\29-
 Apr-2022\0\\#p ZINDO=(nstates=5)\\step_401_chromophore_27 ZINDO\\0,1\M
 g,0,-5.755,24.9,27.338\C,0,-4.098,26.839,29.764\C,0,-6.545,22.745,29.8
 29\C,0,-7.237,22.971,24.969\C,0,-4.547,26.994,24.774\N,0,-5.349,24.96,
 29.564\C,0,-4.71,25.804,30.341\C,0,-4.758,25.415,31.848\C,0,-5.566,24.
 062,31.79\C,0,-5.888,23.946,30.289\C,0,-4.99,22.763,32.353\C,0,-5.279,
 26.514,32.847\C,0,-6.434,26.268,33.693\C,0,-6.19,25.354,34.857\O,0,-5.

 Normal termination of Gaussian 16 at Fri Apr 29 18:29:30 2022.
