 Gaussian 16, Revision A.03,
 Gaussian 16:  ES64L-G16RevA.03 25-Dec-2016

 ------------------------------
 #p blyp/Def2SVP td=(nstates=5)
 ------------------------------

 --------------------------------------------------
 step_751_chromophore_21 TDDFT with blyp functional
 --------------------------------------------------
 Symbolic Z-matrix:
 Charge =  0 Multiplicity = 1

                         Standard orientation:
 ---------------------------------------------------------------------
 Center     Atomic      Atomic             Coordinates (Angstroms)
 Number     Number       Type             X           Y           Z
 ---------------------------------------------------------------------
      1         12           0        5.045394    0.919528    0.274588
      2          6           0        3.967330   -2.437623    0.578417
      3          6           0        1.734328    1.612432   -0.746933
      4          6           0        6.008273    4.102223   -0.498979
      5          6           0        8.248434   -0.067683    0.615761
      6          7           0        3.058691   -0.294579   -0.070207
      7          6           0        2.844675   -1.593982    0.367427
      8          6           0        1.367650   -1.947978    0.315522
      9          6           0        0.761167   -0.735323   -0.485751
     10          6           0        1.878123    0.275036   -0.431817
     11          6           0        0.282159   -1.067414   -1.852710
     12          6           0        0.940625   -2.260711    1.750631
     13          6           0       -0.305766   -3.166354    1.770584
     14          6           0       -0.922514   -3.660951    0.459665
     15          8           0       -0.457838   -4.488069   -0.333704
     16          8           0       -2.224814   -3.232106    0.439842
     17          7           0        3.934962    2.647847   -0.317833
     18          6           0        2.634522    2.699807   -0.712818
     19          6           0        2.286354    4.043438   -1.001364
     20          6           0        3.477648    4.789767   -0.741058
     21          6           0        4.563066    3.847976   -0.539761
     22          6           0        0.867785    4.478173   -1.350773
     23          6           0        3.665181    6.298662   -0.707618
     24          8           0        4.721532    6.844432   -0.456916
     25          6           0        2.530039    7.285604   -0.914373
     26          7           0        6.878993    1.830957   -0.021839
     27          6           0        7.042138    3.164873   -0.242904
     28          6           0        8.580312    3.517617   -0.130557
     29          6           0        9.230243    2.211833    0.325968
     30          6           0        7.997754    1.248821    0.394927
     31          6           0        9.306139    4.194294   -1.281521
     32          6           0        9.902742    2.354463    1.734207
     33          6           0       11.173680    3.140843    1.859477
     34          7           0        5.965439   -0.824996    0.564334
     35          6           0        7.312280   -1.122484    0.607450
     36          6           0        7.479331   -2.572059    0.786709
     37          6           0        6.202655   -3.105296    0.645322
     38          6           0        5.349894   -2.039146    0.560965
     39          6           0        8.727960   -3.307415    1.142125
     40          6           0        5.425710   -4.331068    0.699640
     41          8           0        5.894074   -5.431752    0.713618
     42          6           0        3.969545   -3.935586    0.680659
     43          6           0        3.264725   -4.654803   -0.429157
     44          8           0        3.408712   -4.498085   -1.619669
     45          8           0        2.501056   -5.684989    0.003177
     46          6           0        2.253976   -6.694008   -1.002392
     47          6           0       -2.862814   -3.855666   -0.750152
     48          6           0       -4.141035   -2.995370   -1.063860
     49          6           0       -4.441725   -2.271860   -2.191152
     50          6           0       -3.662359   -1.937079   -3.390178
     51          6           0       -5.928364   -1.752368   -2.321632
     52          6           0       -6.386423   -0.465665   -1.525007
     53          6           0       -7.777646   -0.493583   -1.007863
     54          6           0       -7.865986   -0.702506    0.532800
     55          6           0       -7.545203   -2.144476    0.999391
     56          6           0       -9.237877   -0.283965    1.155847
     57          6           0       -9.378629    1.163120    1.748956
     58          6           0      -10.305571    1.296481    3.099602
     59          6           0      -11.484224    2.293338    2.940529
     60          6           0      -11.574163    3.257262    4.131941
     61          6           0      -12.786684    1.554695    2.368657
     62          6           0      -13.203073    2.066405    0.891752
     63          6           0      -12.819990    1.040413   -0.216838
     64          6           0      -12.536261    1.777395   -1.599937
     65          6           0      -13.744134    1.882673   -2.547144
     66          6           0      -11.366912    1.178232   -2.370479
     67          1           0        0.670086    1.817308   -0.879995
     68          1           0        6.386978    5.076549   -0.812339
     69          1           0        9.266421   -0.427368    0.780183
     70          1           0        1.277994   -2.881066   -0.241539
     71          1           0       -0.027023   -0.399677    0.189074
     72          1           0        0.655067   -2.090553   -1.898506
     73          1           0        0.788056   -0.463932   -2.605629
     74          1           0       -0.782132   -1.223958   -2.027754
     75          1           0        0.602409   -1.287924    2.105658
     76          1           0        1.724908   -2.605595    2.425263
     77          1           0       -1.121018   -2.712034    2.332533
     78          1           0       -0.087281   -4.016641    2.417320
     79          1           0        1.131073    5.193899   -2.130135
     80          1           0        0.374990    5.026384   -0.547111
     81          1           0        0.216596    3.666746   -1.673755
     82          1           0        2.881744    8.257720   -0.568820
     83          1           0        1.701567    6.985304   -0.271018
     84          1           0        2.245567    7.315398   -1.965732
     85          1           0        8.520490    4.216333    0.704239
     86          1           0        9.839421    1.780471   -0.468584
     87          1           0        8.877943    4.006603   -2.266003
     88          1           0       10.249281    3.665253   -1.416696
     89          1           0        9.533557    5.230797   -1.035044
     90          1           0       10.039160    1.389728    2.222475
     91          1           0        9.138493    2.804563    2.366204
     92          1           0       11.851202    2.543858    2.470883
     93          1           0       10.950195    4.022514    2.460957
     94          1           0       11.622743    3.481607    0.926424
     95          1           0        9.568285   -3.045343    0.499057
     96          1           0        8.416084   -4.351936    1.123359
     97          1           0        9.022759   -3.074416    2.165252
     98          1           0        3.492848   -4.167242    1.633025
     99          1           0        3.023764   -7.452723   -0.868191
    100          1           0        2.135068   -6.356551   -2.031808
    101          1           0        1.269117   -7.134338   -0.851449
    102          1           0       -3.126674   -4.873468   -0.465316
    103          1           0       -2.256054   -3.918695   -1.653930
    104          1           0       -4.863914   -3.009788   -0.248554
    105          1           0       -2.604580   -2.139598   -3.223446
    106          1           0       -3.942585   -0.898238   -3.567697
    107          1           0       -4.107444   -2.575855   -4.153162
    108          1           0       -6.574867   -2.573292   -2.014037
    109          1           0       -6.222134   -1.565252   -3.354187
    110          1           0       -6.313617    0.336069   -2.260550
    111          1           0       -5.608937   -0.400902   -0.763869
    112          1           0       -8.474701   -1.155661   -1.521974
    113          1           0       -8.048226    0.527542   -1.274359
    114          1           0       -7.123698   -0.040608    0.977405
    115          1           0       -6.463626   -2.227243    0.891179
    116          1           0       -7.945152   -2.954170    0.389494
    117          1           0       -7.709464   -2.151384    2.076329
    118          1           0       -9.587657   -0.995093    1.903585
    119          1           0      -10.026468   -0.206328    0.406579
    120          1           0       -9.754243    1.814566    0.959162
    121          1           0       -8.381788    1.519104    2.006628
    122          1           0       -9.661743    1.600603    3.925341
    123          1           0      -10.667967    0.275230    3.217684
    124          1           0      -11.109193    2.910391    2.124596
    125          1           0      -12.607988    3.525552    4.352697
    126          1           0      -11.046340    4.149381    3.794091
    127          1           0      -11.031769    2.863994    4.991718
    128          1           0      -13.672830    1.798817    2.953600
    129          1           0      -12.611684    0.480247    2.424255
    130          1           0      -12.731279    3.029794    0.695183
    131          1           0      -14.289088    2.126540    0.824012
    132          1           0      -13.698157    0.401651   -0.303519
    133          1           0      -11.990277    0.385432    0.047264
    134          1           0      -12.040548    2.706653   -1.321250
    135          1           0      -13.830168    2.938449   -2.805208
    136          1           0      -14.699710    1.566965   -2.128351
    137          1           0      -13.610460    1.315875   -3.469721
    138          1           0      -10.725371    1.913073   -2.855655
    139          1           0      -11.712729    0.470125   -3.122924
    140          1           0      -10.730907    0.574662   -1.723129
 ---------------------------------------------------------------------

 SCF Done:  E(RB-LYP) =  -3007.34635056     A.U. after   21 cycles

 Excitation energies and oscillator strengths:

 Excited State   1:      Singlet-A      1.7119 eV  724.24 nm  f=0.0055  <S**2>=0.000
     244 -> 247        0.65741
     245 -> 247        0.25549
 This state for optimization and/or second-order correction.
 Total Energy, E(TD-HF/TD-DFT) =  -3007.28343888
 Copying the excited state density for this state as the 1-particle RhoCI density.

 Excited State   2:      Singlet-A      1.8296 eV  677.67 nm  f=0.2908  <S**2>=0.000
     245 -> 248        0.20092
     246 -> 247        0.68767
     246 <- 247       -0.14834

 Excited State   3:      Singlet-A      2.0017 eV  619.39 nm  f=0.0785  <S**2>=0.000
     244 -> 247       -0.24864
     245 -> 247        0.60441
     246 -> 248       -0.22846

 Excited State   4:      Singlet-A      2.2262 eV  556.94 nm  f=0.0003  <S**2>=0.000
     243 -> 247        0.70564

 Excited State   5:      Singlet-A      2.4160 eV  513.19 nm  f=0.0092  <S**2>=0.000
     242 -> 247        0.68792

 The electronic state is 1-A.
 Alpha  occ. eigenvalues --  -46.26615 -18.83436 -18.80892 -18.77947 -18.76072
 Alpha  occ. eigenvalues --  -18.75448 -18.74490 -14.02741 -14.02571 -14.00638
 Alpha  occ. eigenvalues --  -14.00538 -10.04997 -10.03037  -9.99673  -9.98783
 Alpha  occ. eigenvalues --   -9.98354  -9.96400  -9.96259  -9.95919  -9.95849
 Alpha  occ. eigenvalues --   -9.95618  -9.95597  -9.95144  -9.94800  -9.94191
 Alpha  occ. eigenvalues --   -9.94037  -9.94037  -9.93944  -9.93827  -9.93783
 Alpha  occ. eigenvalues --   -9.93616  -9.93461  -9.93291  -9.93222  -9.93181
 Alpha  occ. eigenvalues --   -9.93145  -9.93010  -9.92981  -9.92660  -9.92540
 Alpha  occ. eigenvalues --   -9.92435  -9.92363  -9.92324  -9.92133  -9.92063
 Alpha  occ. eigenvalues --   -9.92043  -9.91927  -9.91917  -9.91894  -9.91883
 Alpha  occ. eigenvalues --   -9.91795  -9.91787  -9.91718  -9.91610  -9.91595
 Alpha  occ. eigenvalues --   -9.91578  -9.91547  -9.91484  -9.91376  -9.91140
 Alpha  occ. eigenvalues --   -9.91135  -9.91074  -9.91019  -9.91010  -9.90483
 Alpha  occ. eigenvalues --   -9.90243  -2.91338  -1.71753  -1.71232  -1.71049
 Alpha  occ. eigenvalues --   -0.98839  -0.98079  -0.93225  -0.91190  -0.90284
 Alpha  occ. eigenvalues --   -0.88846  -0.86643  -0.85799  -0.85423  -0.84689
 Alpha  occ. eigenvalues --   -0.76277  -0.73805  -0.73530  -0.72391  -0.72298
 Alpha  occ. eigenvalues --   -0.71775  -0.71509  -0.71062  -0.70720  -0.69926
 Alpha  occ. eigenvalues --   -0.69783  -0.69147  -0.67996  -0.67652  -0.67064
 Alpha  occ. eigenvalues --   -0.66300  -0.65954  -0.65261  -0.64533  -0.64333
 Alpha  occ. eigenvalues --   -0.63783  -0.62594  -0.62125  -0.61773  -0.61016
 Alpha  occ. eigenvalues --   -0.60695  -0.60092  -0.59952  -0.59518  -0.58770
 Alpha  occ. eigenvalues --   -0.58284  -0.57542  -0.56588  -0.55717  -0.54114
 Alpha  occ. eigenvalues --   -0.53921  -0.53507  -0.52467  -0.52062  -0.51470
 Alpha  occ. eigenvalues --   -0.51037  -0.50766  -0.50625  -0.50137  -0.49873
 Alpha  occ. eigenvalues --   -0.49805  -0.49276  -0.48840  -0.48085  -0.46578
 Alpha  occ. eigenvalues --   -0.46250  -0.45650  -0.45626  -0.45176  -0.44949
 Alpha  occ. eigenvalues --   -0.43787  -0.43415  -0.43082  -0.42630  -0.42502
 Alpha  occ. eigenvalues --   -0.42469  -0.41929  -0.41679  -0.41357  -0.41130
 Alpha  occ. eigenvalues --   -0.40772  -0.40757  -0.40517  -0.40190  -0.39776
 Alpha  occ. eigenvalues --   -0.39692  -0.39462  -0.39300  -0.39202  -0.39104
 Alpha  occ. eigenvalues --   -0.38850  -0.38746  -0.38700  -0.38585  -0.38503
 Alpha  occ. eigenvalues --   -0.38058  -0.38051  -0.37653  -0.37314  -0.37141
 Alpha  occ. eigenvalues --   -0.37057  -0.36983  -0.36886  -0.36685  -0.36573
 Alpha  occ. eigenvalues --   -0.36314  -0.36070  -0.36000  -0.35806  -0.35483
 Alpha  occ. eigenvalues --   -0.35358  -0.35138  -0.34889  -0.34761  -0.34634
 Alpha  occ. eigenvalues --   -0.34481  -0.34233  -0.34168  -0.34063  -0.33903
 Alpha  occ. eigenvalues --   -0.33873  -0.33747  -0.33453  -0.33359  -0.33298
 Alpha  occ. eigenvalues --   -0.33190  -0.33061  -0.32972  -0.32587  -0.32389
 Alpha  occ. eigenvalues --   -0.32370  -0.32061  -0.31970  -0.31744  -0.31595
 Alpha  occ. eigenvalues --   -0.31482  -0.31369  -0.30973  -0.30868  -0.30717
 Alpha  occ. eigenvalues --   -0.30544  -0.30201  -0.29927  -0.29759  -0.29589
 Alpha  occ. eigenvalues --   -0.29511  -0.29105  -0.28966  -0.28692  -0.28307
 Alpha  occ. eigenvalues --   -0.28289  -0.28182  -0.28161  -0.28111  -0.27632
 Alpha  occ. eigenvalues --   -0.27455  -0.27209  -0.26955  -0.26489  -0.26285
 Alpha  occ. eigenvalues --   -0.26206  -0.26015  -0.25922  -0.25724  -0.25288
 Alpha  occ. eigenvalues --   -0.24994  -0.24711  -0.24233  -0.23978  -0.23591
 Alpha  occ. eigenvalues --   -0.23143  -0.22622  -0.21791  -0.20945  -0.20599
 Alpha  occ. eigenvalues --   -0.20444  -0.19590  -0.19338  -0.17538  -0.16785
 Alpha  occ. eigenvalues --   -0.15605
 Alpha virt. eigenvalues --   -0.11267  -0.06453  -0.05699  -0.04573  -0.04075
 Alpha virt. eigenvalues --   -0.03002  -0.02244  -0.01745  -0.01035   0.00344
 Alpha virt. eigenvalues --    0.01609   0.01858   0.02201   0.02377   0.02736

 Mulliken charges:
               1
     1  Mg   0.701871
     2  C   -0.069166
     3  C   -0.069068
     4  C   -0.018563
     5  C   -0.102461
     6  N   -0.183855
     7  C   -0.076412
     8  C   -0.100397
     9  C    0.059398
    10  C   -0.064568
    11  C    0.176130
    12  C    0.155815
    13  C    0.145887
    14  C    0.080105
    15  O   -0.206081
    16  O   -0.256578
    17  N   -0.271427
    18  C    0.179145
    19  C   -0.156177
    20  C    0.028234
    21  C    0.096438
    22  C    0.167913
    23  C   -0.101685
    24  O   -0.167910
    25  C    0.124086
    26  N   -0.233339
    27  C   -0.001642
    28  C    0.025794
    29  C    0.032221
    30  C    0.064504
    31  C    0.163855
    32  C    0.053899
    33  C    0.109744
    34  N   -0.301510
    35  C    0.118274
    36  C   -0.201679
    37  C    0.090918
    38  C    0.113057
    39  C    0.173611
    40  C   -0.084280
    41  O   -0.096152
    42  C    0.159408
    43  C    0.085595
    44  O   -0.175741
    45  O   -0.252651
    46  C    0.212417
    47  C    0.282766
    48  C   -0.092971
    49  C   -0.153014
    50  C    0.181009
    51  C    0.046888
    52  C    0.091906
    53  C    0.113014
    54  C   -0.073503
    55  C    0.118258
    56  C    0.091108
    57  C    0.015303
    58  C    0.085517
    59  C   -0.084829
    60  C    0.126795
    61  C    0.115471
    62  C    0.042254
    63  C    0.099320
    64  C   -0.094871
    65  C    0.125433
    66  C    0.088184
    67  H   -0.068730
    68  H   -0.038146
    69  H   -0.063302
    70  H    0.045113
    71  H   -0.044092
    72  H   -0.016719
    73  H    0.000350
    74  H   -0.007802
    75  H   -0.033565
    76  H   -0.007556
    77  H   -0.018898
    78  H    0.000564
    79  H    0.002448
    80  H    0.010725
    81  H   -0.002110
    82  H   -0.009171
    83  H   -0.007856
    84  H    0.014024
    85  H   -0.023373
    86  H   -0.024202
    87  H   -0.010412
    88  H   -0.026788
    89  H    0.000613
    90  H   -0.031857
    91  H   -0.033059
    92  H   -0.010941
    93  H   -0.014850
    94  H   -0.003957
    95  H    0.001236
    96  H    0.009001
    97  H   -0.005118
    98  H   -0.011794
    99  H    0.017876
   100  H    0.021394
   101  H    0.000878
   102  H   -0.001281
   103  H    0.005170
   104  H   -0.031582
   105  H    0.006346
   106  H    0.006125
   107  H    0.010047
   108  H   -0.023776
   109  H   -0.039073
   110  H   -0.031960
   111  H   -0.023065
   112  H   -0.019241
   113  H   -0.031659
   114  H   -0.044726
   115  H   -0.026002
   116  H   -0.000992
   117  H   -0.013474
   118  H   -0.036613
   119  H   -0.023875
   120  H   -0.020413
   121  H   -0.036682
   122  H   -0.033503
   123  H   -0.027328
   124  H   -0.033934
   125  H   -0.015963
   126  H   -0.018553
   127  H   -0.012142
   128  H   -0.038896
   129  H   -0.024827
   130  H   -0.018164
   131  H   -0.026726
   132  H   -0.037859
   133  H   -0.043595
   134  H   -0.029664
   135  H   -0.014261
   136  H   -0.016280
   137  H   -0.014468
   138  H   -0.013269
   139  H   -0.030055
   140  H   -0.034727
 Sum of Mulliken charges =  -0.00000

 Dipole moment (field-independent basis, Debye):
    X=             -4.1354    Y=              1.3929    Z=              1.4956  Tot=              4.6129
 Quadrupole moment (field-independent basis, Debye-Ang):
   XX=           -380.4665   YY=           -441.4610   ZZ=           -398.9695
   XY=             12.9071   XZ=             18.7262   YZ=             -3.8337

 Normal termination of Gaussian 16 at Thu May  5 08:49:17 2022.
