 Gaussian 16, Revision A.03,
 Gaussian 16:  ES64L-G16RevA.03 25-Dec-2016

 -----------------------------------
 #p cam-b3lyp/Def2SVP td=(nstates=5)
 -----------------------------------

 -------------------------------------------------------
 step_751_chromophore_21 TDDFT with cam-b3lyp functional
 -------------------------------------------------------
 Symbolic Z-matrix:
 Charge =  0 Multiplicity = 1

                         Standard orientation:
 ---------------------------------------------------------------------
 Center     Atomic      Atomic             Coordinates (Angstroms)
 Number     Number       Type             X           Y           Z
 ---------------------------------------------------------------------
      1         12           0        5.045394    0.919528    0.274588
      2          6           0        3.967330   -2.437623    0.578417
      3          6           0        1.734328    1.612432   -0.746933
      4          6           0        6.008273    4.102223   -0.498979
      5          6           0        8.248434   -0.067683    0.615761
      6          7           0        3.058691   -0.294579   -0.070207
      7          6           0        2.844675   -1.593982    0.367427
      8          6           0        1.367650   -1.947978    0.315522
      9          6           0        0.761167   -0.735323   -0.485751
     10          6           0        1.878123    0.275036   -0.431817
     11          6           0        0.282159   -1.067414   -1.852710
     12          6           0        0.940625   -2.260711    1.750631
     13          6           0       -0.305766   -3.166354    1.770584
     14          6           0       -0.922514   -3.660951    0.459665
     15          8           0       -0.457838   -4.488069   -0.333704
     16          8           0       -2.224814   -3.232106    0.439842
     17          7           0        3.934962    2.647847   -0.317833
     18          6           0        2.634522    2.699807   -0.712818
     19          6           0        2.286354    4.043438   -1.001364
     20          6           0        3.477648    4.789767   -0.741058
     21          6           0        4.563066    3.847976   -0.539761
     22          6           0        0.867785    4.478173   -1.350773
     23          6           0        3.665181    6.298662   -0.707618
     24          8           0        4.721532    6.844432   -0.456916
     25          6           0        2.530039    7.285604   -0.914373
     26          7           0        6.878993    1.830957   -0.021839
     27          6           0        7.042138    3.164873   -0.242904
     28          6           0        8.580312    3.517617   -0.130557
     29          6           0        9.230243    2.211833    0.325968
     30          6           0        7.997754    1.248821    0.394927
     31          6           0        9.306139    4.194294   -1.281521
     32          6           0        9.902742    2.354463    1.734207
     33          6           0       11.173680    3.140843    1.859477
     34          7           0        5.965439   -0.824996    0.564334
     35          6           0        7.312280   -1.122484    0.607450
     36          6           0        7.479331   -2.572059    0.786709
     37          6           0        6.202655   -3.105296    0.645322
     38          6           0        5.349894   -2.039146    0.560965
     39          6           0        8.727960   -3.307415    1.142125
     40          6           0        5.425710   -4.331068    0.699640
     41          8           0        5.894074   -5.431752    0.713618
     42          6           0        3.969545   -3.935586    0.680659
     43          6           0        3.264725   -4.654803   -0.429157
     44          8           0        3.408712   -4.498085   -1.619669
     45          8           0        2.501056   -5.684989    0.003177
     46          6           0        2.253976   -6.694008   -1.002392
     47          6           0       -2.862814   -3.855666   -0.750152
     48          6           0       -4.141035   -2.995370   -1.063860
     49          6           0       -4.441725   -2.271860   -2.191152
     50          6           0       -3.662359   -1.937079   -3.390178
     51          6           0       -5.928364   -1.752368   -2.321632
     52          6           0       -6.386423   -0.465665   -1.525007
     53          6           0       -7.777646   -0.493583   -1.007863
     54          6           0       -7.865986   -0.702506    0.532800
     55          6           0       -7.545203   -2.144476    0.999391
     56          6           0       -9.237877   -0.283965    1.155847
     57          6           0       -9.378629    1.163120    1.748956
     58          6           0      -10.305571    1.296481    3.099602
     59          6           0      -11.484224    2.293338    2.940529
     60          6           0      -11.574163    3.257262    4.131941
     61          6           0      -12.786684    1.554695    2.368657
     62          6           0      -13.203073    2.066405    0.891752
     63          6           0      -12.819990    1.040413   -0.216838
     64          6           0      -12.536261    1.777395   -1.599937
     65          6           0      -13.744134    1.882673   -2.547144
     66          6           0      -11.366912    1.178232   -2.370479
     67          1           0        0.670086    1.817308   -0.879995
     68          1           0        6.386978    5.076549   -0.812339
     69          1           0        9.266421   -0.427368    0.780183
     70          1           0        1.277994   -2.881066   -0.241539
     71          1           0       -0.027023   -0.399677    0.189074
     72          1           0        0.655067   -2.090553   -1.898506
     73          1           0        0.788056   -0.463932   -2.605629
     74          1           0       -0.782132   -1.223958   -2.027754
     75          1           0        0.602409   -1.287924    2.105658
     76          1           0        1.724908   -2.605595    2.425263
     77          1           0       -1.121018   -2.712034    2.332533
     78          1           0       -0.087281   -4.016641    2.417320
     79          1           0        1.131073    5.193899   -2.130135
     80          1           0        0.374990    5.026384   -0.547111
     81          1           0        0.216596    3.666746   -1.673755
     82          1           0        2.881744    8.257720   -0.568820
     83          1           0        1.701567    6.985304   -0.271018
     84          1           0        2.245567    7.315398   -1.965732
     85          1           0        8.520490    4.216333    0.704239
     86          1           0        9.839421    1.780471   -0.468584
     87          1           0        8.877943    4.006603   -2.266003
     88          1           0       10.249281    3.665253   -1.416696
     89          1           0        9.533557    5.230797   -1.035044
     90          1           0       10.039160    1.389728    2.222475
     91          1           0        9.138493    2.804563    2.366204
     92          1           0       11.851202    2.543858    2.470883
     93          1           0       10.950195    4.022514    2.460957
     94          1           0       11.622743    3.481607    0.926424
     95          1           0        9.568285   -3.045343    0.499057
     96          1           0        8.416084   -4.351936    1.123359
     97          1           0        9.022759   -3.074416    2.165252
     98          1           0        3.492848   -4.167242    1.633025
     99          1           0        3.023764   -7.452723   -0.868191
    100          1           0        2.135068   -6.356551   -2.031808
    101          1           0        1.269117   -7.134338   -0.851449
    102          1           0       -3.126674   -4.873468   -0.465316
    103          1           0       -2.256054   -3.918695   -1.653930
    104          1           0       -4.863914   -3.009788   -0.248554
    105          1           0       -2.604580   -2.139598   -3.223446
    106          1           0       -3.942585   -0.898238   -3.567697
    107          1           0       -4.107444   -2.575855   -4.153162
    108          1           0       -6.574867   -2.573292   -2.014037
    109          1           0       -6.222134   -1.565252   -3.354187
    110          1           0       -6.313617    0.336069   -2.260550
    111          1           0       -5.608937   -0.400902   -0.763869
    112          1           0       -8.474701   -1.155661   -1.521974
    113          1           0       -8.048226    0.527542   -1.274359
    114          1           0       -7.123698   -0.040608    0.977405
    115          1           0       -6.463626   -2.227243    0.891179
    116          1           0       -7.945152   -2.954170    0.389494
    117          1           0       -7.709464   -2.151384    2.076329
    118          1           0       -9.587657   -0.995093    1.903585
    119          1           0      -10.026468   -0.206328    0.406579
    120          1           0       -9.754243    1.814566    0.959162
    121          1           0       -8.381788    1.519104    2.006628
    122          1           0       -9.661743    1.600603    3.925341
    123          1           0      -10.667967    0.275230    3.217684
    124          1           0      -11.109193    2.910391    2.124596
    125          1           0      -12.607988    3.525552    4.352697
    126          1           0      -11.046340    4.149381    3.794091
    127          1           0      -11.031769    2.863994    4.991718
    128          1           0      -13.672830    1.798817    2.953600
    129          1           0      -12.611684    0.480247    2.424255
    130          1           0      -12.731279    3.029794    0.695183
    131          1           0      -14.289088    2.126540    0.824012
    132          1           0      -13.698157    0.401651   -0.303519
    133          1           0      -11.990277    0.385432    0.047264
    134          1           0      -12.040548    2.706653   -1.321250
    135          1           0      -13.830168    2.938449   -2.805208
    136          1           0      -14.699710    1.566965   -2.128351
    137          1           0      -13.610460    1.315875   -3.469721
    138          1           0      -10.725371    1.913073   -2.855655
    139          1           0      -11.712729    0.470125   -3.122924
    140          1           0      -10.730907    0.574662   -1.723129
 ---------------------------------------------------------------------

 SCF Done:  E(RCAM-B3LYP) =  -3007.14683968     A.U. after   17 cycles

 Excitation energies and oscillator strengths:

 Excited State   1:      Singlet-A      1.7082 eV  725.81 nm  f=0.3705  <S**2>=0.000
     245 -> 248       -0.18727
     246 -> 247        0.68412
     245 <- 248       -0.11028
 This state for optimization and/or second-order correction.
 Total Energy, E(TD-HF/TD-DFT) =  -3007.08406355
 Copying the excited state density for this state as the 1-particle RhoCI density.

 Excited State   2:      Singlet-A      2.2029 eV  562.83 nm  f=0.1399  <S**2>=0.000
     245 -> 247        0.64888
     246 -> 248        0.26877

 Excited State   3:      Singlet-A      3.2420 eV  382.43 nm  f=0.0016  <S**2>=0.000
     244 -> 247        0.67739
     246 -> 248       -0.11884

 Excited State   4:      Singlet-A      3.5142 eV  352.80 nm  f=0.0015  <S**2>=0.000
     242 -> 247       -0.37541
     243 -> 247        0.51555
     243 -> 249       -0.13499
     243 -> 251        0.10129

 Excited State   5:      Singlet-A      3.5516 eV  349.10 nm  f=0.1848  <S**2>=0.000
     240 -> 247       -0.11718
     242 -> 247        0.41967
     243 -> 247        0.25452
     243 -> 249       -0.14682
     243 -> 251        0.11004
     245 -> 247        0.13427
     246 -> 248       -0.38936

 The electronic state is 1-A.
 Alpha  occ. eigenvalues --  -46.88159 -19.26361 -19.23785 -19.20958 -19.19489
 Alpha  occ. eigenvalues --  -19.18620 -19.17632 -14.41667 -14.41405 -14.39114
 Alpha  occ. eigenvalues --  -14.38919 -10.40384 -10.38484 -10.35044 -10.33884
 Alpha  occ. eigenvalues --  -10.32540 -10.30883 -10.30882 -10.30269 -10.30028
 Alpha  occ. eigenvalues --  -10.29965 -10.29801 -10.29548 -10.28938 -10.28576
 Alpha  occ. eigenvalues --  -10.28476 -10.28292 -10.28142 -10.27896 -10.27801
 Alpha  occ. eigenvalues --  -10.27780 -10.27759 -10.27668 -10.27580 -10.27129
 Alpha  occ. eigenvalues --  -10.27038 -10.26883 -10.26642 -10.26618 -10.26575
 Alpha  occ. eigenvalues --  -10.26479 -10.26319 -10.26301 -10.26055 -10.25943
 Alpha  occ. eigenvalues --  -10.25808 -10.25763 -10.25665 -10.25615 -10.25551
 Alpha  occ. eigenvalues --  -10.25492 -10.25478 -10.25448 -10.25341 -10.25316
 Alpha  occ. eigenvalues --  -10.25266 -10.25234 -10.25172 -10.25156 -10.25011
 Alpha  occ. eigenvalues --  -10.24862 -10.24759 -10.24658 -10.24591 -10.24465
 Alpha  occ. eigenvalues --  -10.24103  -3.16790  -1.91677  -1.91248  -1.91097
 Alpha  occ. eigenvalues --   -1.17319  -1.16704  -1.11888  -1.09568  -1.08143
 Alpha  occ. eigenvalues --   -1.06817  -1.04381  -1.03492  -1.03086  -1.02238
 Alpha  occ. eigenvalues --   -0.93611  -0.90696  -0.90398  -0.89059  -0.89045
 Alpha  occ. eigenvalues --   -0.88462  -0.88200  -0.87674  -0.87300  -0.86497
 Alpha  occ. eigenvalues --   -0.86301  -0.85649  -0.84247  -0.83816  -0.83207
 Alpha  occ. eigenvalues --   -0.82321  -0.81998  -0.81217  -0.80488  -0.80189
 Alpha  occ. eigenvalues --   -0.79726  -0.78280  -0.77827  -0.77296  -0.76437
 Alpha  occ. eigenvalues --   -0.76133  -0.75444  -0.75240  -0.74817  -0.73980
 Alpha  occ. eigenvalues --   -0.73404  -0.72617  -0.71476  -0.70530  -0.68737
 Alpha  occ. eigenvalues --   -0.68517  -0.68081  -0.66918  -0.66455  -0.65562
 Alpha  occ. eigenvalues --   -0.65267  -0.64981  -0.64703  -0.64153  -0.63846
 Alpha  occ. eigenvalues --   -0.63794  -0.63218  -0.62778  -0.61853  -0.60299
 Alpha  occ. eigenvalues --   -0.59904  -0.59219  -0.59176  -0.58851  -0.58316
 Alpha  occ. eigenvalues --   -0.57167  -0.56749  -0.56442  -0.55826  -0.55619
 Alpha  occ. eigenvalues --   -0.55519  -0.54842  -0.54652  -0.54252  -0.54214
 Alpha  occ. eigenvalues --   -0.53768  -0.53497  -0.53379  -0.52786  -0.52726
 Alpha  occ. eigenvalues --   -0.52533  -0.52230  -0.51974  -0.51853  -0.51724
 Alpha  occ. eigenvalues --   -0.51613  -0.51279  -0.51134  -0.51044  -0.50957
 Alpha  occ. eigenvalues --   -0.50791  -0.50302  -0.49894  -0.49789  -0.49516
 Alpha  occ. eigenvalues --   -0.49353  -0.49170  -0.49117  -0.49070  -0.48826
 Alpha  occ. eigenvalues --   -0.48663  -0.48432  -0.48294  -0.48059  -0.47861
 Alpha  occ. eigenvalues --   -0.47497  -0.47435  -0.46857  -0.46750  -0.46627
 Alpha  occ. eigenvalues --   -0.46274  -0.46222  -0.46016  -0.45931  -0.45773
 Alpha  occ. eigenvalues --   -0.45639  -0.45598  -0.45342  -0.45147  -0.45066
 Alpha  occ. eigenvalues --   -0.44996  -0.44955  -0.44668  -0.44469  -0.44001
 Alpha  occ. eigenvalues --   -0.43935  -0.43776  -0.43575  -0.43350  -0.43173
 Alpha  occ. eigenvalues --   -0.43055  -0.42861  -0.42510  -0.42275  -0.42123
 Alpha  occ. eigenvalues --   -0.41792  -0.41501  -0.41435  -0.41120  -0.41016
 Alpha  occ. eigenvalues --   -0.40720  -0.40385  -0.40212  -0.40136  -0.39721
 Alpha  occ. eigenvalues --   -0.39248  -0.39215  -0.39127  -0.39018  -0.38664
 Alpha  occ. eigenvalues --   -0.38298  -0.38102  -0.37749  -0.37696  -0.37493
 Alpha  occ. eigenvalues --   -0.37048  -0.36726  -0.36613  -0.36431  -0.36044
 Alpha  occ. eigenvalues --   -0.35862  -0.35648  -0.35155  -0.34670  -0.34540
 Alpha  occ. eigenvalues --   -0.34156  -0.33674  -0.32732  -0.31611  -0.30946
 Alpha  occ. eigenvalues --   -0.30096  -0.30050  -0.29701  -0.28867  -0.23540
 Alpha  occ. eigenvalues --   -0.20995
 Alpha virt. eigenvalues --   -0.08471  -0.01245   0.00909   0.02405   0.03008
 Alpha virt. eigenvalues --    0.03247   0.04402   0.05820   0.06193   0.07242
 Alpha virt. eigenvalues --    0.07947   0.08105   0.08522   0.09118   0.09380

 Mulliken charges:
               1
     1  Mg   0.833869
     2  C   -0.084023
     3  C   -0.076512
     4  C   -0.035925
     5  C   -0.108638
     6  N   -0.243627
     7  C   -0.039855
     8  C   -0.150438
     9  C    0.004670
    10  C   -0.047627
    11  C    0.115143
    12  C    0.104013
    13  C    0.077594
    14  C    0.153781
    15  O   -0.247203
    16  O   -0.318944
    17  N   -0.358402
    18  C    0.185021
    19  C   -0.162186
    20  C   -0.045091
    21  C    0.119241
    22  C    0.115468
    23  C   -0.024052
    24  O   -0.208744
    25  C    0.047029
    26  N   -0.312095
    27  C    0.025639
    28  C   -0.030928
    29  C   -0.028852
    30  C    0.085232
    31  C    0.098044
    32  C    0.003905
    33  C    0.043807
    34  N   -0.392670
    35  C    0.122841
    36  C   -0.194136
    37  C    0.012078
    38  C    0.149527
    39  C    0.119850
    40  C    0.014760
    41  O   -0.133231
    42  C    0.076147
    43  C    0.171339
    44  O   -0.211938
    45  O   -0.313838
    46  C    0.171521
    47  C    0.250958
    48  C   -0.111890
    49  C   -0.172235
    50  C    0.117555
    51  C   -0.007152
    52  C    0.037749
    53  C    0.056043
    54  C   -0.124954
    55  C    0.058975
    56  C    0.042975
    57  C   -0.029238
    58  C    0.035033
    59  C   -0.141211
    60  C    0.068112
    61  C    0.062649
    62  C   -0.008647
    63  C    0.051518
    64  C   -0.156481
    65  C    0.063004
    66  C    0.040051
    67  H   -0.033621
    68  H    0.000794
    69  H   -0.027586
    70  H    0.072883
    71  H   -0.007237
    72  H    0.009382
    73  H    0.028741
    74  H    0.012779
    75  H   -0.001189
    76  H    0.023378
    77  H    0.019098
    78  H    0.033780
    79  H    0.025712
    80  H    0.036187
    81  H    0.024684
    82  H    0.026199
    83  H    0.018380
    84  H    0.040096
    85  H    0.012528
    86  H    0.011324
    87  H    0.016902
    88  H   -0.002570
    89  H    0.025700
    90  H   -0.002023
    91  H   -0.003984
    92  H    0.013767
    93  H    0.009277
    94  H    0.018590
    95  H    0.025512
    96  H    0.036636
    97  H    0.021600
    98  H    0.033190
    99  H    0.039505
   100  H    0.047809
   101  H    0.023596
   102  H    0.028110
   103  H    0.034308
   104  H   -0.001068
   105  H    0.024577
   106  H    0.029131
   107  H    0.035584
   108  H    0.004850
   109  H   -0.008037
   110  H   -0.002812
   111  H    0.005862
   112  H    0.007963
   113  H   -0.003060
   114  H   -0.012179
   115  H   -0.005958
   116  H    0.021715
   117  H    0.012595
   118  H   -0.007742
   119  H   -0.005858
   120  H    0.001632
   121  H   -0.008877
   122  H   -0.003270
   123  H   -0.001327
   124  H   -0.003012
   125  H    0.008356
   126  H    0.005452
   127  H    0.011138
   128  H   -0.008962
   129  H    0.002007
   130  H    0.007539
   131  H    0.001361
   132  H   -0.009099
   133  H   -0.019814
   134  H    0.000028
   135  H    0.010168
   136  H    0.007500
   137  H    0.009663
   138  H    0.010510
   139  H   -0.005895
   140  H   -0.017280
 Sum of Mulliken charges =  -0.00000

 Dipole moment (field-independent basis, Debye):
    X=             -4.3543    Y=              1.5493    Z=              1.5882  Tot=              4.8870
 Quadrupole moment (field-independent basis, Debye-Ang):
   XX=           -380.9415   YY=           -438.7401   ZZ=           -398.4963
   XY=             12.4660   XZ=             20.0330   YZ=             -4.9087

 Normal termination of Gaussian 16 at Thu May  5 07:46:02 2022.
