 Gaussian 16, Revision A.03,
 Gaussian 16:  ES64L-G16RevA.03 25-Dec-2016

 ---------------------------------
 #p PBE1PBE/Def2SVP td=(nstates=5)
 ---------------------------------

 -----------------------------------------------------
 step_751_chromophore_21 TDDFT with PBE1PBE functional
 -----------------------------------------------------
 Symbolic Z-matrix:
 Charge =  0 Multiplicity = 1

                         Standard orientation:
 ---------------------------------------------------------------------
 Center     Atomic      Atomic             Coordinates (Angstroms)
 Number     Number       Type             X           Y           Z
 ---------------------------------------------------------------------
      1         12           0        5.045394    0.919528    0.274588
      2          6           0        3.967330   -2.437623    0.578417
      3          6           0        1.734328    1.612432   -0.746933
      4          6           0        6.008273    4.102223   -0.498979
      5          6           0        8.248434   -0.067683    0.615761
      6          7           0        3.058691   -0.294579   -0.070207
      7          6           0        2.844675   -1.593982    0.367427
      8          6           0        1.367650   -1.947978    0.315522
      9          6           0        0.761167   -0.735323   -0.485751
     10          6           0        1.878123    0.275036   -0.431817
     11          6           0        0.282159   -1.067414   -1.852710
     12          6           0        0.940625   -2.260711    1.750631
     13          6           0       -0.305766   -3.166354    1.770584
     14          6           0       -0.922514   -3.660951    0.459665
     15          8           0       -0.457838   -4.488069   -0.333704
     16          8           0       -2.224814   -3.232106    0.439842
     17          7           0        3.934962    2.647847   -0.317833
     18          6           0        2.634522    2.699807   -0.712818
     19          6           0        2.286354    4.043438   -1.001364
     20          6           0        3.477648    4.789767   -0.741058
     21          6           0        4.563066    3.847976   -0.539761
     22          6           0        0.867785    4.478173   -1.350773
     23          6           0        3.665181    6.298662   -0.707618
     24          8           0        4.721532    6.844432   -0.456916
     25          6           0        2.530039    7.285604   -0.914373
     26          7           0        6.878993    1.830957   -0.021839
     27          6           0        7.042138    3.164873   -0.242904
     28          6           0        8.580312    3.517617   -0.130557
     29          6           0        9.230243    2.211833    0.325968
     30          6           0        7.997754    1.248821    0.394927
     31          6           0        9.306139    4.194294   -1.281521
     32          6           0        9.902742    2.354463    1.734207
     33          6           0       11.173680    3.140843    1.859477
     34          7           0        5.965439   -0.824996    0.564334
     35          6           0        7.312280   -1.122484    0.607450
     36          6           0        7.479331   -2.572059    0.786709
     37          6           0        6.202655   -3.105296    0.645322
     38          6           0        5.349894   -2.039146    0.560965
     39          6           0        8.727960   -3.307415    1.142125
     40          6           0        5.425710   -4.331068    0.699640
     41          8           0        5.894074   -5.431752    0.713618
     42          6           0        3.969545   -3.935586    0.680659
     43          6           0        3.264725   -4.654803   -0.429157
     44          8           0        3.408712   -4.498085   -1.619669
     45          8           0        2.501056   -5.684989    0.003177
     46          6           0        2.253976   -6.694008   -1.002392
     47          6           0       -2.862814   -3.855666   -0.750152
     48          6           0       -4.141035   -2.995370   -1.063860
     49          6           0       -4.441725   -2.271860   -2.191152
     50          6           0       -3.662359   -1.937079   -3.390178
     51          6           0       -5.928364   -1.752368   -2.321632
     52          6           0       -6.386423   -0.465665   -1.525007
     53          6           0       -7.777646   -0.493583   -1.007863
     54          6           0       -7.865986   -0.702506    0.532800
     55          6           0       -7.545203   -2.144476    0.999391
     56          6           0       -9.237877   -0.283965    1.155847
     57          6           0       -9.378629    1.163120    1.748956
     58          6           0      -10.305571    1.296481    3.099602
     59          6           0      -11.484224    2.293338    2.940529
     60          6           0      -11.574163    3.257262    4.131941
     61          6           0      -12.786684    1.554695    2.368657
     62          6           0      -13.203073    2.066405    0.891752
     63          6           0      -12.819990    1.040413   -0.216838
     64          6           0      -12.536261    1.777395   -1.599937
     65          6           0      -13.744134    1.882673   -2.547144
     66          6           0      -11.366912    1.178232   -2.370479
     67          1           0        0.670086    1.817308   -0.879995
     68          1           0        6.386978    5.076549   -0.812339
     69          1           0        9.266421   -0.427368    0.780183
     70          1           0        1.277994   -2.881066   -0.241539
     71          1           0       -0.027023   -0.399677    0.189074
     72          1           0        0.655067   -2.090553   -1.898506
     73          1           0        0.788056   -0.463932   -2.605629
     74          1           0       -0.782132   -1.223958   -2.027754
     75          1           0        0.602409   -1.287924    2.105658
     76          1           0        1.724908   -2.605595    2.425263
     77          1           0       -1.121018   -2.712034    2.332533
     78          1           0       -0.087281   -4.016641    2.417320
     79          1           0        1.131073    5.193899   -2.130135
     80          1           0        0.374990    5.026384   -0.547111
     81          1           0        0.216596    3.666746   -1.673755
     82          1           0        2.881744    8.257720   -0.568820
     83          1           0        1.701567    6.985304   -0.271018
     84          1           0        2.245567    7.315398   -1.965732
     85          1           0        8.520490    4.216333    0.704239
     86          1           0        9.839421    1.780471   -0.468584
     87          1           0        8.877943    4.006603   -2.266003
     88          1           0       10.249281    3.665253   -1.416696
     89          1           0        9.533557    5.230797   -1.035044
     90          1           0       10.039160    1.389728    2.222475
     91          1           0        9.138493    2.804563    2.366204
     92          1           0       11.851202    2.543858    2.470883
     93          1           0       10.950195    4.022514    2.460957
     94          1           0       11.622743    3.481607    0.926424
     95          1           0        9.568285   -3.045343    0.499057
     96          1           0        8.416084   -4.351936    1.123359
     97          1           0        9.022759   -3.074416    2.165252
     98          1           0        3.492848   -4.167242    1.633025
     99          1           0        3.023764   -7.452723   -0.868191
    100          1           0        2.135068   -6.356551   -2.031808
    101          1           0        1.269117   -7.134338   -0.851449
    102          1           0       -3.126674   -4.873468   -0.465316
    103          1           0       -2.256054   -3.918695   -1.653930
    104          1           0       -4.863914   -3.009788   -0.248554
    105          1           0       -2.604580   -2.139598   -3.223446
    106          1           0       -3.942585   -0.898238   -3.567697
    107          1           0       -4.107444   -2.575855   -4.153162
    108          1           0       -6.574867   -2.573292   -2.014037
    109          1           0       -6.222134   -1.565252   -3.354187
    110          1           0       -6.313617    0.336069   -2.260550
    111          1           0       -5.608937   -0.400902   -0.763869
    112          1           0       -8.474701   -1.155661   -1.521974
    113          1           0       -8.048226    0.527542   -1.274359
    114          1           0       -7.123698   -0.040608    0.977405
    115          1           0       -6.463626   -2.227243    0.891179
    116          1           0       -7.945152   -2.954170    0.389494
    117          1           0       -7.709464   -2.151384    2.076329
    118          1           0       -9.587657   -0.995093    1.903585
    119          1           0      -10.026468   -0.206328    0.406579
    120          1           0       -9.754243    1.814566    0.959162
    121          1           0       -8.381788    1.519104    2.006628
    122          1           0       -9.661743    1.600603    3.925341
    123          1           0      -10.667967    0.275230    3.217684
    124          1           0      -11.109193    2.910391    2.124596
    125          1           0      -12.607988    3.525552    4.352697
    126          1           0      -11.046340    4.149381    3.794091
    127          1           0      -11.031769    2.863994    4.991718
    128          1           0      -13.672830    1.798817    2.953600
    129          1           0      -12.611684    0.480247    2.424255
    130          1           0      -12.731279    3.029794    0.695183
    131          1           0      -14.289088    2.126540    0.824012
    132          1           0      -13.698157    0.401651   -0.303519
    133          1           0      -11.990277    0.385432    0.047264
    134          1           0      -12.040548    2.706653   -1.321250
    135          1           0      -13.830168    2.938449   -2.805208
    136          1           0      -14.699710    1.566965   -2.128351
    137          1           0      -13.610460    1.315875   -3.469721
    138          1           0      -10.725371    1.913073   -2.855655
    139          1           0      -11.712729    0.470125   -3.122924
    140          1           0      -10.730907    0.574662   -1.723129
 ---------------------------------------------------------------------

 SCF Done:  E(RPBE1PBE) =  -3005.33613007     A.U. after   15 cycles

 Excitation energies and oscillator strengths:

 Excited State   1:      Singlet-A      1.8738 eV  661.67 nm  f=0.3584  <S**2>=0.000
     245 -> 248        0.18172
     246 -> 247        0.69095
     246 <- 247       -0.10631
 This state for optimization and/or second-order correction.
 Total Energy, E(TD-HF/TD-DFT) =  -3005.26726885
 Copying the excited state density for this state as the 1-particle RhoCI density.

 Excited State   2:      Singlet-A      2.2109 eV  560.78 nm  f=0.1274  <S**2>=0.000
     245 -> 247        0.65692
     246 -> 248       -0.24692

 Excited State   3:      Singlet-A      2.8367 eV  437.07 nm  f=0.0044  <S**2>=0.000
     244 -> 247        0.69062

 Excited State   4:      Singlet-A      2.9728 eV  417.07 nm  f=0.0017  <S**2>=0.000
     243 -> 247        0.68648

 Excited State   5:      Singlet-A      3.2281 eV  384.08 nm  f=0.0005  <S**2>=0.000
     240 -> 247       -0.23756
     241 -> 247        0.63471
     246 -> 248        0.12025

 The electronic state is 1-A.
 Alpha  occ. eigenvalues --  -46.91550 -19.27048 -19.24402 -19.21259 -19.19582
 Alpha  occ. eigenvalues --  -19.18800 -19.17876 -14.41054 -14.40989 -14.38752
 Alpha  occ. eigenvalues --  -14.38596 -10.37438 -10.35446 -10.32087 -10.31046
 Alpha  occ. eigenvalues --  -10.29964 -10.28635 -10.28604 -10.27990 -10.27712
 Alpha  occ. eigenvalues --  -10.27666 -10.27207 -10.27026 -10.26663 -10.26221
 Alpha  occ. eigenvalues --  -10.25991 -10.25962 -10.25839 -10.25537 -10.25495
 Alpha  occ. eigenvalues --  -10.25437 -10.25389 -10.25353 -10.25265 -10.24976
 Alpha  occ. eigenvalues --  -10.24856 -10.24397 -10.24306 -10.24104 -10.24089
 Alpha  occ. eigenvalues --  -10.24082 -10.24048 -10.24027 -10.23682 -10.23550
 Alpha  occ. eigenvalues --  -10.23483 -10.23458 -10.23285 -10.23176 -10.23088
 Alpha  occ. eigenvalues --  -10.23079 -10.22973 -10.22935 -10.22915 -10.22868
 Alpha  occ. eigenvalues --  -10.22855 -10.22800 -10.22567 -10.22454 -10.22443
 Alpha  occ. eigenvalues --  -10.22437 -10.22369 -10.22075 -10.22047 -10.21987
 Alpha  occ. eigenvalues --  -10.21510  -3.13757  -1.86586  -1.86135  -1.85987
 Alpha  occ. eigenvalues --   -1.12119  -1.11455  -1.06556  -1.04335  -1.02997
 Alpha  occ. eigenvalues --   -1.01606  -0.99003  -0.98105  -0.97714  -0.96900
 Alpha  occ. eigenvalues --   -0.87908  -0.84846  -0.84574  -0.83320  -0.83165
 Alpha  occ. eigenvalues --   -0.82581  -0.82504  -0.82005  -0.81418  -0.80803
 Alpha  occ. eigenvalues --   -0.80568  -0.79916  -0.78424  -0.78088  -0.77508
 Alpha  occ. eigenvalues --   -0.76574  -0.76155  -0.75486  -0.74743  -0.74330
 Alpha  occ. eigenvalues --   -0.73980  -0.72531  -0.72141  -0.71594  -0.70624
 Alpha  occ. eigenvalues --   -0.70417  -0.69620  -0.69541  -0.68979  -0.68193
 Alpha  occ. eigenvalues --   -0.67699  -0.67029  -0.65884  -0.64868  -0.63122
 Alpha  occ. eigenvalues --   -0.62916  -0.62338  -0.61351  -0.60683  -0.59993
 Alpha  occ. eigenvalues --   -0.59700  -0.59280  -0.59203  -0.58676  -0.58296
 Alpha  occ. eigenvalues --   -0.57961  -0.57399  -0.56975  -0.56395  -0.54727
 Alpha  occ. eigenvalues --   -0.54443  -0.53783  -0.53570  -0.53265  -0.52947
 Alpha  occ. eigenvalues --   -0.51773  -0.51217  -0.50888  -0.50345  -0.50194
 Alpha  occ. eigenvalues --   -0.49994  -0.49315  -0.49175  -0.48821  -0.48701
 Alpha  occ. eigenvalues --   -0.48286  -0.48023  -0.47788  -0.47422  -0.47267
 Alpha  occ. eigenvalues --   -0.47066  -0.46755  -0.46474  -0.46381  -0.46307
 Alpha  occ. eigenvalues --   -0.46063  -0.45773  -0.45624  -0.45557  -0.45466
 Alpha  occ. eigenvalues --   -0.45361  -0.44868  -0.44503  -0.44361  -0.44087
 Alpha  occ. eigenvalues --   -0.43936  -0.43745  -0.43725  -0.43681  -0.43409
 Alpha  occ. eigenvalues --   -0.43308  -0.43050  -0.42914  -0.42615  -0.42470
 Alpha  occ. eigenvalues --   -0.42154  -0.42084  -0.41508  -0.41403  -0.41274
 Alpha  occ. eigenvalues --   -0.40968  -0.40888  -0.40734  -0.40674  -0.40518
 Alpha  occ. eigenvalues --   -0.40347  -0.40181  -0.40080  -0.39930  -0.39822
 Alpha  occ. eigenvalues --   -0.39680  -0.39639  -0.39370  -0.39190  -0.38819
 Alpha  occ. eigenvalues --   -0.38606  -0.38586  -0.38380  -0.38173  -0.37993
 Alpha  occ. eigenvalues --   -0.37832  -0.37692  -0.37308  -0.37104  -0.36921
 Alpha  occ. eigenvalues --   -0.36548  -0.36306  -0.36234  -0.35992  -0.35859
 Alpha  occ. eigenvalues --   -0.35496  -0.35082  -0.34986  -0.34950  -0.34621
 Alpha  occ. eigenvalues --   -0.34176  -0.34070  -0.33942  -0.33824  -0.33541
 Alpha  occ. eigenvalues --   -0.33197  -0.33014  -0.32688  -0.32539  -0.32477
 Alpha  occ. eigenvalues --   -0.31925  -0.31557  -0.31505  -0.31459  -0.31078
 Alpha  occ. eigenvalues --   -0.30797  -0.30506  -0.30143  -0.29619  -0.29457
 Alpha  occ. eigenvalues --   -0.29379  -0.28558  -0.28163  -0.26541  -0.26359
 Alpha  occ. eigenvalues --   -0.25623  -0.25418  -0.24751  -0.24262  -0.20487
 Alpha  occ. eigenvalues --   -0.18581
 Alpha virt. eigenvalues --   -0.10887  -0.04772  -0.03341  -0.01663  -0.01295
 Alpha virt. eigenvalues --   -0.00075  -0.00020   0.01318   0.01815   0.03343
 Alpha virt. eigenvalues --    0.04508   0.04698   0.04965   0.05425   0.05701

 Mulliken charges:
               1
     1  Mg   0.981294
     2  C   -0.083019
     3  C   -0.068827
     4  C   -0.026335
     5  C   -0.091754
     6  N   -0.340934
     7  C    0.028233
     8  C   -0.228458
     9  C   -0.076562
    10  C   -0.003124
    11  C    0.050851
    12  C    0.053057
    13  C    0.012767
    14  C    0.207334
    15  O   -0.277930
    16  O   -0.346554
    17  N   -0.473168
    18  C    0.210116
    19  C   -0.190317
    20  C   -0.100464
    21  C    0.150635
    22  C    0.056108
    23  C    0.030542
    24  O   -0.243890
    25  C   -0.027677
    26  N   -0.420848
    27  C    0.063464
    28  C   -0.102339
    29  C   -0.115191
    30  C    0.118779
    31  C    0.036801
    32  C   -0.053574
    33  C   -0.026807
    34  N   -0.520457
    35  C    0.142276
    36  C   -0.210545
    37  C   -0.039041
    38  C    0.194038
    39  C    0.063248
    40  C    0.117391
    41  O   -0.183262
    42  C   -0.033628
    43  C    0.261407
    44  O   -0.248080
    45  O   -0.348168
    46  C    0.116664
    47  C    0.206827
    48  C   -0.130977
    49  C   -0.210271
    50  C    0.041863
    51  C   -0.065829
    52  C   -0.024784
    53  C   -0.001733
    54  C   -0.210163
    55  C   -0.008703
    56  C   -0.023825
    57  C   -0.087992
    58  C   -0.019514
    59  C   -0.224108
    60  C    0.005654
    61  C    0.010377
    62  C   -0.074660
    63  C   -0.010251
    64  C   -0.248404
    65  C    0.003151
    66  C   -0.027114
    67  H   -0.001564
    68  H    0.032595
    69  H    0.004422
    70  H    0.120693
    71  H    0.031018
    72  H    0.038408
    73  H    0.056435
    74  H    0.046597
    75  H    0.033401
    76  H    0.054798
    77  H    0.050918
    78  H    0.065771
    79  H    0.055216
    80  H    0.063321
    81  H    0.051188
    82  H    0.053807
    83  H    0.046026
    84  H    0.066059
    85  H    0.050623
    86  H    0.048064
    87  H    0.044800
    88  H    0.025238
    89  H    0.052307
    90  H    0.030132
    91  H    0.029340
    92  H    0.041588
    93  H    0.036978
    94  H    0.046138
    95  H    0.052385
    96  H    0.065217
    97  H    0.050312
    98  H    0.071202
    99  H    0.062231
   100  H    0.068578
   101  H    0.045519
   102  H    0.056084
   103  H    0.061300
   104  H    0.035119
   105  H    0.053298
   106  H    0.058345
   107  H    0.065104
   108  H    0.038720
   109  H    0.024361
   110  H    0.030186
   111  H    0.038317
   112  H    0.038524
   113  H    0.031481
   114  H    0.026075
   115  H    0.027620
   116  H    0.048276
   117  H    0.041857
   118  H    0.023369
   119  H    0.037557
   120  H    0.033919
   121  H    0.024019
   122  H    0.028886
   123  H    0.031658
   124  H    0.036700
   125  H    0.036063
   126  H    0.033317
   127  H    0.037941
   128  H    0.024048
   129  H    0.032452
   130  H    0.038143
   131  H    0.034201
   132  H    0.024619
   133  H    0.021644
   134  H    0.037117
   135  H    0.038067
   136  H    0.034183
   137  H    0.035726
   138  H    0.037869
   139  H    0.022102
   140  H    0.018379
 Sum of Mulliken charges =  -0.00000

 Dipole moment (field-independent basis, Debye):
    X=             -4.3026    Y=              1.6461    Z=              1.6170  Tot=              4.8822
 Quadrupole moment (field-independent basis, Debye-Ang):
   XX=           -374.5590   YY=           -435.9535   ZZ=           -395.8524
   XY=             13.3709   XZ=             20.7195   YZ=             -4.8689

 Normal termination of Gaussian 16 at Thu May  5 08:06:44 2022.
