 Gaussian 16, Revision A.03,
 Gaussian 16:  ES64L-G16RevA.03 25-Dec-2016

 --------------------------------
 #p wB97XD/Def2SVP td=(nstates=5)
 --------------------------------

 ----------------------------------------------------
 step_751_chromophore_21 TDDFT with wB97XD functional
 ----------------------------------------------------
 Symbolic Z-matrix:
 Charge =  0 Multiplicity = 1

                         Standard orientation:
 ---------------------------------------------------------------------
 Center     Atomic      Atomic             Coordinates (Angstroms)
 Number     Number       Type             X           Y           Z
 ---------------------------------------------------------------------
      1         12           0        5.045394    0.919528    0.274588
      2          6           0        3.967330   -2.437623    0.578417
      3          6           0        1.734328    1.612432   -0.746933
      4          6           0        6.008273    4.102223   -0.498979
      5          6           0        8.248434   -0.067683    0.615761
      6          7           0        3.058691   -0.294579   -0.070207
      7          6           0        2.844675   -1.593982    0.367427
      8          6           0        1.367650   -1.947978    0.315522
      9          6           0        0.761167   -0.735323   -0.485751
     10          6           0        1.878123    0.275036   -0.431817
     11          6           0        0.282159   -1.067414   -1.852710
     12          6           0        0.940625   -2.260711    1.750631
     13          6           0       -0.305766   -3.166354    1.770584
     14          6           0       -0.922514   -3.660951    0.459665
     15          8           0       -0.457838   -4.488069   -0.333704
     16          8           0       -2.224814   -3.232106    0.439842
     17          7           0        3.934962    2.647847   -0.317833
     18          6           0        2.634522    2.699807   -0.712818
     19          6           0        2.286354    4.043438   -1.001364
     20          6           0        3.477648    4.789767   -0.741058
     21          6           0        4.563066    3.847976   -0.539761
     22          6           0        0.867785    4.478173   -1.350773
     23          6           0        3.665181    6.298662   -0.707618
     24          8           0        4.721532    6.844432   -0.456916
     25          6           0        2.530039    7.285604   -0.914373
     26          7           0        6.878993    1.830957   -0.021839
     27          6           0        7.042138    3.164873   -0.242904
     28          6           0        8.580312    3.517617   -0.130557
     29          6           0        9.230243    2.211833    0.325968
     30          6           0        7.997754    1.248821    0.394927
     31          6           0        9.306139    4.194294   -1.281521
     32          6           0        9.902742    2.354463    1.734207
     33          6           0       11.173680    3.140843    1.859477
     34          7           0        5.965439   -0.824996    0.564334
     35          6           0        7.312280   -1.122484    0.607450
     36          6           0        7.479331   -2.572059    0.786709
     37          6           0        6.202655   -3.105296    0.645322
     38          6           0        5.349894   -2.039146    0.560965
     39          6           0        8.727960   -3.307415    1.142125
     40          6           0        5.425710   -4.331068    0.699640
     41          8           0        5.894074   -5.431752    0.713618
     42          6           0        3.969545   -3.935586    0.680659
     43          6           0        3.264725   -4.654803   -0.429157
     44          8           0        3.408712   -4.498085   -1.619669
     45          8           0        2.501056   -5.684989    0.003177
     46          6           0        2.253976   -6.694008   -1.002392
     47          6           0       -2.862814   -3.855666   -0.750152
     48          6           0       -4.141035   -2.995370   -1.063860
     49          6           0       -4.441725   -2.271860   -2.191152
     50          6           0       -3.662359   -1.937079   -3.390178
     51          6           0       -5.928364   -1.752368   -2.321632
     52          6           0       -6.386423   -0.465665   -1.525007
     53          6           0       -7.777646   -0.493583   -1.007863
     54          6           0       -7.865986   -0.702506    0.532800
     55          6           0       -7.545203   -2.144476    0.999391
     56          6           0       -9.237877   -0.283965    1.155847
     57          6           0       -9.378629    1.163120    1.748956
     58          6           0      -10.305571    1.296481    3.099602
     59          6           0      -11.484224    2.293338    2.940529
     60          6           0      -11.574163    3.257262    4.131941
     61          6           0      -12.786684    1.554695    2.368657
     62          6           0      -13.203073    2.066405    0.891752
     63          6           0      -12.819990    1.040413   -0.216838
     64          6           0      -12.536261    1.777395   -1.599937
     65          6           0      -13.744134    1.882673   -2.547144
     66          6           0      -11.366912    1.178232   -2.370479
     67          1           0        0.670086    1.817308   -0.879995
     68          1           0        6.386978    5.076549   -0.812339
     69          1           0        9.266421   -0.427368    0.780183
     70          1           0        1.277994   -2.881066   -0.241539
     71          1           0       -0.027023   -0.399677    0.189074
     72          1           0        0.655067   -2.090553   -1.898506
     73          1           0        0.788056   -0.463932   -2.605629
     74          1           0       -0.782132   -1.223958   -2.027754
     75          1           0        0.602409   -1.287924    2.105658
     76          1           0        1.724908   -2.605595    2.425263
     77          1           0       -1.121018   -2.712034    2.332533
     78          1           0       -0.087281   -4.016641    2.417320
     79          1           0        1.131073    5.193899   -2.130135
     80          1           0        0.374990    5.026384   -0.547111
     81          1           0        0.216596    3.666746   -1.673755
     82          1           0        2.881744    8.257720   -0.568820
     83          1           0        1.701567    6.985304   -0.271018
     84          1           0        2.245567    7.315398   -1.965732
     85          1           0        8.520490    4.216333    0.704239
     86          1           0        9.839421    1.780471   -0.468584
     87          1           0        8.877943    4.006603   -2.266003
     88          1           0       10.249281    3.665253   -1.416696
     89          1           0        9.533557    5.230797   -1.035044
     90          1           0       10.039160    1.389728    2.222475
     91          1           0        9.138493    2.804563    2.366204
     92          1           0       11.851202    2.543858    2.470883
     93          1           0       10.950195    4.022514    2.460957
     94          1           0       11.622743    3.481607    0.926424
     95          1           0        9.568285   -3.045343    0.499057
     96          1           0        8.416084   -4.351936    1.123359
     97          1           0        9.022759   -3.074416    2.165252
     98          1           0        3.492848   -4.167242    1.633025
     99          1           0        3.023764   -7.452723   -0.868191
    100          1           0        2.135068   -6.356551   -2.031808
    101          1           0        1.269117   -7.134338   -0.851449
    102          1           0       -3.126674   -4.873468   -0.465316
    103          1           0       -2.256054   -3.918695   -1.653930
    104          1           0       -4.863914   -3.009788   -0.248554
    105          1           0       -2.604580   -2.139598   -3.223446
    106          1           0       -3.942585   -0.898238   -3.567697
    107          1           0       -4.107444   -2.575855   -4.153162
    108          1           0       -6.574867   -2.573292   -2.014037
    109          1           0       -6.222134   -1.565252   -3.354187
    110          1           0       -6.313617    0.336069   -2.260550
    111          1           0       -5.608937   -0.400902   -0.763869
    112          1           0       -8.474701   -1.155661   -1.521974
    113          1           0       -8.048226    0.527542   -1.274359
    114          1           0       -7.123698   -0.040608    0.977405
    115          1           0       -6.463626   -2.227243    0.891179
    116          1           0       -7.945152   -2.954170    0.389494
    117          1           0       -7.709464   -2.151384    2.076329
    118          1           0       -9.587657   -0.995093    1.903585
    119          1           0      -10.026468   -0.206328    0.406579
    120          1           0       -9.754243    1.814566    0.959162
    121          1           0       -8.381788    1.519104    2.006628
    122          1           0       -9.661743    1.600603    3.925341
    123          1           0      -10.667967    0.275230    3.217684
    124          1           0      -11.109193    2.910391    2.124596
    125          1           0      -12.607988    3.525552    4.352697
    126          1           0      -11.046340    4.149381    3.794091
    127          1           0      -11.031769    2.863994    4.991718
    128          1           0      -13.672830    1.798817    2.953600
    129          1           0      -12.611684    0.480247    2.424255
    130          1           0      -12.731279    3.029794    0.695183
    131          1           0      -14.289088    2.126540    0.824012
    132          1           0      -13.698157    0.401651   -0.303519
    133          1           0      -11.990277    0.385432    0.047264
    134          1           0      -12.040548    2.706653   -1.321250
    135          1           0      -13.830168    2.938449   -2.805208
    136          1           0      -14.699710    1.566965   -2.128351
    137          1           0      -13.610460    1.315875   -3.469721
    138          1           0      -10.725371    1.913073   -2.855655
    139          1           0      -11.712729    0.470125   -3.122924
    140          1           0      -10.730907    0.574662   -1.723129
 ---------------------------------------------------------------------

 SCF Done:  E(RwB97XD) =  -3007.84837031     A.U. after   19 cycles

 Excitation energies and oscillator strengths:

 Excited State   1:      Singlet-A      1.6483 eV  752.21 nm  f=0.3691  <S**2>=0.000
     245 -> 248       -0.19300
     246 -> 247        0.68196
     245 <- 248       -0.11978
 This state for optimization and/or second-order correction.
 Total Energy, E(TD-HF/TD-DFT) =  -3007.78779781
 Copying the excited state density for this state as the 1-particle RhoCI density.

 Excited State   2:      Singlet-A      2.1483 eV  577.13 nm  f=0.1366  <S**2>=0.000
     245 -> 247        0.64700
     246 -> 248        0.27121

 Excited State   3:      Singlet-A      3.2630 eV  379.96 nm  f=0.0013  <S**2>=0.000
     243 -> 247        0.14906
     244 -> 247        0.65681
     244 -> 249       -0.10260
     246 -> 248       -0.13038

 Excited State   4:      Singlet-A      3.5319 eV  351.04 nm  f=0.0292  <S**2>=0.000
     241 -> 247        0.51043
     243 -> 247       -0.36166
     246 -> 248       -0.20320

 Excited State   5:      Singlet-A      3.5751 eV  346.80 nm  f=0.2047  <S**2>=0.000
     241 -> 247        0.23352
     243 -> 247        0.38647
     243 -> 248       -0.10301
     243 -> 249       -0.19112
     243 -> 250       -0.17831
     244 -> 247       -0.10710
     245 -> 247        0.14216
     246 -> 248       -0.37342

 The electronic state is 1-A.
 Alpha  occ. eigenvalues --  -46.94497 -19.31599 -19.29021 -19.25893 -19.24539
 Alpha  occ. eigenvalues --  -19.23571 -19.22615 -14.46299 -14.45953 -14.43732
 Alpha  occ. eigenvalues --  -14.43499 -10.44208 -10.42347 -10.39052 -10.37813
 Alpha  occ. eigenvalues --  -10.36471 -10.34937 -10.34908 -10.34312 -10.34025
 Alpha  occ. eigenvalues --  -10.33955 -10.33602 -10.33544 -10.32927 -10.32596
 Alpha  occ. eigenvalues --  -10.32524 -10.32320 -10.32313 -10.31897 -10.31871
 Alpha  occ. eigenvalues --  -10.31823 -10.31787 -10.31684 -10.31660 -10.31168
 Alpha  occ. eigenvalues --  -10.31043 -10.30808 -10.30659 -10.30639 -10.30481
 Alpha  occ. eigenvalues --  -10.30478 -10.30365 -10.30338 -10.29983 -10.29915
 Alpha  occ. eigenvalues --  -10.29800 -10.29729 -10.29555 -10.29554 -10.29546
 Alpha  occ. eigenvalues --  -10.29434 -10.29320 -10.29284 -10.29273 -10.29271
 Alpha  occ. eigenvalues --  -10.29212 -10.29178 -10.29011 -10.28954 -10.28883
 Alpha  occ. eigenvalues --  -10.28805 -10.28729 -10.28514 -10.28475 -10.28410
 Alpha  occ. eigenvalues --  -10.27934  -3.20560  -1.94139  -1.93690  -1.93534
 Alpha  occ. eigenvalues --   -1.19494  -1.18892  -1.14139  -1.11745  -1.10341
 Alpha  occ. eigenvalues --   -1.09028  -1.06384  -1.05501  -1.05110  -1.04270
 Alpha  occ. eigenvalues --   -0.95622  -0.92521  -0.92236  -0.90874  -0.90847
 Alpha  occ. eigenvalues --   -0.90248  -0.90123  -0.89589  -0.89080  -0.88440
 Alpha  occ. eigenvalues --   -0.88217  -0.87565  -0.86087  -0.85694  -0.85124
 Alpha  occ. eigenvalues --   -0.84222  -0.83825  -0.83148  -0.82411  -0.82011
 Alpha  occ. eigenvalues --   -0.81666  -0.80199  -0.79773  -0.79200  -0.78303
 Alpha  occ. eigenvalues --   -0.78065  -0.77239  -0.77182  -0.76652  -0.75852
 Alpha  occ. eigenvalues --   -0.75324  -0.74608  -0.73431  -0.72473  -0.70696
 Alpha  occ. eigenvalues --   -0.70450  -0.69976  -0.68888  -0.68332  -0.67495
 Alpha  occ. eigenvalues --   -0.67205  -0.66851  -0.66710  -0.66150  -0.65776
 Alpha  occ. eigenvalues --   -0.65652  -0.65049  -0.64613  -0.63860  -0.62246
 Alpha  occ. eigenvalues --   -0.61897  -0.61199  -0.61120  -0.60808  -0.60308
 Alpha  occ. eigenvalues --   -0.59162  -0.58673  -0.58358  -0.57765  -0.57581
 Alpha  occ. eigenvalues --   -0.57440  -0.56749  -0.56585  -0.56213  -0.56119
 Alpha  occ. eigenvalues --   -0.55683  -0.55412  -0.55244  -0.54785  -0.54632
 Alpha  occ. eigenvalues --   -0.54438  -0.54125  -0.53882  -0.53736  -0.53637
 Alpha  occ. eigenvalues --   -0.53521  -0.53235  -0.53001  -0.52919  -0.52839
 Alpha  occ. eigenvalues --   -0.52706  -0.52202  -0.51801  -0.51757  -0.51427
 Alpha  occ. eigenvalues --   -0.51254  -0.51082  -0.51015  -0.50964  -0.50737
 Alpha  occ. eigenvalues --   -0.50577  -0.50348  -0.50219  -0.49934  -0.49774
 Alpha  occ. eigenvalues --   -0.49419  -0.49366  -0.48773  -0.48686  -0.48506
 Alpha  occ. eigenvalues --   -0.48219  -0.48101  -0.47935  -0.47861  -0.47703
 Alpha  occ. eigenvalues --   -0.47573  -0.47437  -0.47257  -0.47077  -0.46955
 Alpha  occ. eigenvalues --   -0.46911  -0.46859  -0.46611  -0.46393  -0.45930
 Alpha  occ. eigenvalues --   -0.45807  -0.45692  -0.45505  -0.45280  -0.45080
 Alpha  occ. eigenvalues --   -0.44955  -0.44771  -0.44420  -0.44186  -0.44021
 Alpha  occ. eigenvalues --   -0.43668  -0.43467  -0.43344  -0.43011  -0.42888
 Alpha  occ. eigenvalues --   -0.42582  -0.42328  -0.42082  -0.42048  -0.41621
 Alpha  occ. eigenvalues --   -0.41113  -0.41108  -0.41010  -0.40888  -0.40575
 Alpha  occ. eigenvalues --   -0.40181  -0.39979  -0.39716  -0.39572  -0.39426
 Alpha  occ. eigenvalues --   -0.38925  -0.38591  -0.38563  -0.38465  -0.37956
 Alpha  occ. eigenvalues --   -0.37722  -0.37648  -0.37019  -0.36572  -0.36423
 Alpha  occ. eigenvalues --   -0.36158  -0.35631  -0.34961  -0.33593  -0.33150
 Alpha  occ. eigenvalues --   -0.32237  -0.32148  -0.31653  -0.30980  -0.25449
 Alpha  occ. eigenvalues --   -0.22802
 Alpha virt. eigenvalues --   -0.06822   0.00675   0.02960   0.04856   0.05476
 Alpha virt. eigenvalues --    0.05838   0.06592   0.08039   0.08537   0.09940
 Alpha virt. eigenvalues --    0.10917   0.11271   0.11661   0.12207   0.12460

 Mulliken charges:
               1
     1  Mg   0.971389
     2  C   -0.089569
     3  C   -0.083589
     4  C   -0.045729
     5  C   -0.116037
     6  N   -0.305357
     7  C   -0.001425
     8  C   -0.182845
     9  C   -0.049396
    10  C   -0.021052
    11  C    0.065253
    12  C    0.061166
    13  C    0.023569
    14  C    0.200104
    15  O   -0.274892
    16  O   -0.346598
    17  N   -0.440673
    18  C    0.200372
    19  C   -0.178923
    20  C   -0.093088
    21  C    0.143099
    22  C    0.069765
    23  C    0.024579
    24  O   -0.239479
    25  C   -0.015354
    26  N   -0.387564
    27  C    0.047546
    28  C   -0.078689
    29  C   -0.084095
    30  C    0.110352
    31  C    0.047112
    32  C   -0.037412
    33  C   -0.014292
    34  N   -0.485160
    35  C    0.135711
    36  C   -0.207807
    37  C   -0.030878
    38  C    0.179022
    39  C    0.074609
    40  C    0.095056
    41  O   -0.171156
    42  C    0.004689
    43  C    0.237152
    44  O   -0.241446
    45  O   -0.344730
    46  C    0.131226
    47  C    0.223741
    48  C   -0.135358
    49  C   -0.196662
    50  C    0.063194
    51  C   -0.049144
    52  C   -0.007108
    53  C    0.011942
    54  C   -0.178349
    55  C    0.008366
    56  C    0.008186
    57  C   -0.070016
    58  C   -0.001975
    59  C   -0.193024
    60  C    0.018925
    61  C    0.021858
    62  C   -0.053679
    63  C    0.011213
    64  C   -0.218656
    65  C    0.014096
    66  C   -0.002534
    67  H   -0.008932
    68  H    0.028809
    69  H   -0.000866
    70  H    0.087417
    71  H    0.019837
    72  H    0.031948
    73  H    0.051899
    74  H    0.035657
    75  H    0.024523
    76  H    0.047541
    77  H    0.046353
    78  H    0.061038
    79  H    0.046584
    80  H    0.058741
    81  H    0.047451
    82  H    0.052485
    83  H    0.039075
    84  H    0.061966
    85  H    0.038750
    86  H    0.037770
    87  H    0.039911
    88  H    0.017244
    89  H    0.048357
    90  H    0.021613
    91  H    0.019971
    92  H    0.036552
    93  H    0.031120
    94  H    0.040058
    95  H    0.047779
    96  H    0.060393
    97  H    0.045166
    98  H    0.064627
    99  H    0.058527
   100  H    0.064862
   101  H    0.042489
   102  H    0.051696
   103  H    0.053466
   104  H    0.025876
   105  H    0.043930
   106  H    0.051393
   107  H    0.059030
   108  H    0.027516
   109  H    0.017372
   110  H    0.023317
   111  H    0.026861
   112  H    0.031000
   113  H    0.021592
   114  H    0.012737
   115  H    0.013737
   116  H    0.043426
   117  H    0.036176
   118  H    0.013289
   119  H    0.010794
   120  H    0.020909
   121  H    0.015234
   122  H    0.021501
   123  H    0.018783
   124  H    0.018516
   125  H    0.030580
   126  H    0.027688
   127  H    0.031551
   128  H    0.016851
   129  H    0.023409
   130  H    0.027374
   131  H    0.026856
   132  H    0.016337
   133  H    0.002134
   134  H    0.024319
   135  H    0.032443
   136  H    0.028521
   137  H    0.029610
   138  H    0.032649
   139  H    0.014648
   140  H    0.000612
 Sum of Mulliken charges =  -0.00000

 Dipole moment (field-independent basis, Debye):
    X=             -4.4194    Y=              1.5474    Z=              1.6337  Tot=              4.9593
 Quadrupole moment (field-independent basis, Debye-Ang):
   XX=           -376.0880   YY=           -434.6466   ZZ=           -395.3266
   XY=             12.0856   XZ=             20.8667   YZ=             -5.1060

 Normal termination of Gaussian 16 at Thu May  5 08:36:19 2022.
