 Gaussian 16, Revision A.03,
 Gaussian 16:  ES64L-G16RevA.03 25-Dec-2016

 --------------------
 #p ZINDO=(nstates=5)
 --------------------

 -----------------------------
 step_751_chromophore_21 ZINDO
 -----------------------------
 Symbolic Z-matrix:
 Charge =  0 Multiplicity = 1

                         Standard orientation:
 ---------------------------------------------------------------------
 Center     Atomic      Atomic             Coordinates (Angstroms)
 Number     Number       Type             X           Y           Z
 ---------------------------------------------------------------------
      1         12           0        5.045394    0.919528    0.274588
      2          6           0        3.967330   -2.437623    0.578417
      3          6           0        1.734328    1.612432   -0.746933
      4          6           0        6.008273    4.102223   -0.498979
      5          6           0        8.248434   -0.067683    0.615761
      6          7           0        3.058691   -0.294579   -0.070207
      7          6           0        2.844675   -1.593982    0.367427
      8          6           0        1.367650   -1.947978    0.315522
      9          6           0        0.761167   -0.735323   -0.485751
     10          6           0        1.878123    0.275036   -0.431817
     11          6           0        0.282159   -1.067414   -1.852710
     12          6           0        0.940625   -2.260711    1.750631
     13          6           0       -0.305766   -3.166354    1.770584
     14          6           0       -0.922514   -3.660951    0.459665
     15          8           0       -0.457838   -4.488069   -0.333704
     16          8           0       -2.224814   -3.232106    0.439842
     17          7           0        3.934962    2.647847   -0.317833
     18          6           0        2.634522    2.699807   -0.712818
     19          6           0        2.286354    4.043438   -1.001364
     20          6           0        3.477648    4.789767   -0.741058
     21          6           0        4.563066    3.847976   -0.539761
     22          6           0        0.867785    4.478173   -1.350773
     23          6           0        3.665181    6.298662   -0.707618
     24          8           0        4.721532    6.844432   -0.456916
     25          6           0        2.530039    7.285604   -0.914373
     26          7           0        6.878993    1.830957   -0.021839
     27          6           0        7.042138    3.164873   -0.242904
     28          6           0        8.580312    3.517617   -0.130557
     29          6           0        9.230243    2.211833    0.325968
     30          6           0        7.997754    1.248821    0.394927
     31          6           0        9.306139    4.194294   -1.281521
     32          6           0        9.902742    2.354463    1.734207
     33          6           0       11.173680    3.140843    1.859477
     34          7           0        5.965439   -0.824996    0.564334
     35          6           0        7.312280   -1.122484    0.607450
     36          6           0        7.479331   -2.572059    0.786709
     37          6           0        6.202655   -3.105296    0.645322
     38          6           0        5.349894   -2.039146    0.560965
     39          6           0        8.727960   -3.307415    1.142125
     40          6           0        5.425710   -4.331068    0.699640
     41          8           0        5.894074   -5.431752    0.713618
     42          6           0        3.969545   -3.935586    0.680659
     43          6           0        3.264725   -4.654803   -0.429157
     44          8           0        3.408712   -4.498085   -1.619669
     45          8           0        2.501056   -5.684989    0.003177
     46          6           0        2.253976   -6.694008   -1.002392
     47          6           0       -2.862814   -3.855666   -0.750152
     48          6           0       -4.141035   -2.995370   -1.063860
     49          6           0       -4.441725   -2.271860   -2.191152
     50          6           0       -3.662359   -1.937079   -3.390178
     51          6           0       -5.928364   -1.752368   -2.321632
     52          6           0       -6.386423   -0.465665   -1.525007
     53          6           0       -7.777646   -0.493583   -1.007863
     54          6           0       -7.865986   -0.702506    0.532800
     55          6           0       -7.545203   -2.144476    0.999391
     56          6           0       -9.237877   -0.283965    1.155847
     57          6           0       -9.378629    1.163120    1.748956
     58          6           0      -10.305571    1.296481    3.099602
     59          6           0      -11.484224    2.293338    2.940529
     60          6           0      -11.574163    3.257262    4.131941
     61          6           0      -12.786684    1.554695    2.368657
     62          6           0      -13.203073    2.066405    0.891752
     63          6           0      -12.819990    1.040413   -0.216838
     64          6           0      -12.536261    1.777395   -1.599937
     65          6           0      -13.744134    1.882673   -2.547144
     66          6           0      -11.366912    1.178232   -2.370479
     67          1           0        0.670086    1.817308   -0.879995
     68          1           0        6.386978    5.076549   -0.812339
     69          1           0        9.266421   -0.427368    0.780183
     70          1           0        1.277994   -2.881066   -0.241539
     71          1           0       -0.027023   -0.399677    0.189074
     72          1           0        0.655067   -2.090553   -1.898506
     73          1           0        0.788056   -0.463932   -2.605629
     74          1           0       -0.782132   -1.223958   -2.027754
     75          1           0        0.602409   -1.287924    2.105658
     76          1           0        1.724908   -2.605595    2.425263
     77          1           0       -1.121018   -2.712034    2.332533
     78          1           0       -0.087281   -4.016641    2.417320
     79          1           0        1.131073    5.193899   -2.130135
     80          1           0        0.374990    5.026384   -0.547111
     81          1           0        0.216596    3.666746   -1.673755
     82          1           0        2.881744    8.257720   -0.568820
     83          1           0        1.701567    6.985304   -0.271018
     84          1           0        2.245567    7.315398   -1.965732
     85          1           0        8.520490    4.216333    0.704239
     86          1           0        9.839421    1.780471   -0.468584
     87          1           0        8.877943    4.006603   -2.266003
     88          1           0       10.249281    3.665253   -1.416696
     89          1           0        9.533557    5.230797   -1.035044
     90          1           0       10.039160    1.389728    2.222475
     91          1           0        9.138493    2.804563    2.366204
     92          1           0       11.851202    2.543858    2.470883
     93          1           0       10.950195    4.022514    2.460957
     94          1           0       11.622743    3.481607    0.926424
     95          1           0        9.568285   -3.045343    0.499057
     96          1           0        8.416084   -4.351936    1.123359
     97          1           0        9.022759   -3.074416    2.165252
     98          1           0        3.492848   -4.167242    1.633025
     99          1           0        3.023764   -7.452723   -0.868191
    100          1           0        2.135068   -6.356551   -2.031808
    101          1           0        1.269117   -7.134338   -0.851449
    102          1           0       -3.126674   -4.873468   -0.465316
    103          1           0       -2.256054   -3.918695   -1.653930
    104          1           0       -4.863914   -3.009788   -0.248554
    105          1           0       -2.604580   -2.139598   -3.223446
    106          1           0       -3.942585   -0.898238   -3.567697
    107          1           0       -4.107444   -2.575855   -4.153162
    108          1           0       -6.574867   -2.573292   -2.014037
    109          1           0       -6.222134   -1.565252   -3.354187
    110          1           0       -6.313617    0.336069   -2.260550
    111          1           0       -5.608937   -0.400902   -0.763869
    112          1           0       -8.474701   -1.155661   -1.521974
    113          1           0       -8.048226    0.527542   -1.274359
    114          1           0       -7.123698   -0.040608    0.977405
    115          1           0       -6.463626   -2.227243    0.891179
    116          1           0       -7.945152   -2.954170    0.389494
    117          1           0       -7.709464   -2.151384    2.076329
    118          1           0       -9.587657   -0.995093    1.903585
    119          1           0      -10.026468   -0.206328    0.406579
    120          1           0       -9.754243    1.814566    0.959162
    121          1           0       -8.381788    1.519104    2.006628
    122          1           0       -9.661743    1.600603    3.925341
    123          1           0      -10.667967    0.275230    3.217684
    124          1           0      -11.109193    2.910391    2.124596
    125          1           0      -12.607988    3.525552    4.352697
    126          1           0      -11.046340    4.149381    3.794091
    127          1           0      -11.031769    2.863994    4.991718
    128          1           0      -13.672830    1.798817    2.953600
    129          1           0      -12.611684    0.480247    2.424255
    130          1           0      -12.731279    3.029794    0.695183
    131          1           0      -14.289088    2.126540    0.824012
    132          1           0      -13.698157    0.401651   -0.303519
    133          1           0      -11.990277    0.385432    0.047264
    134          1           0      -12.040548    2.706653   -1.321250
    135          1           0      -13.830168    2.938449   -2.805208
    136          1           0      -14.699710    1.566965   -2.128351
    137          1           0      -13.610460    1.315875   -3.469721
    138          1           0      -10.725371    1.913073   -2.855655
    139          1           0      -11.712729    0.470125   -3.122924
    140          1           0      -10.730907    0.574662   -1.723129
 ---------------------------------------------------------------------

 SCF Done:  E(RZINDO/S) =  -474.434494620     A.U. after   20 cycles

 Excitation energies and oscillator strengths:

 Excited State   1:      Singlet-A      1.2333 eV 1005.27 nm  f=0.5917  <S**2>=0.000
     175 ->178         0.20133
     176 ->177         0.66027
 This state for optimization and/or second-order correction.
 Total Energy, E(CIS/TDA) =  -474.389170293
 Copying the excited state density for this state as the 1-particle RhoCI density.

 Excited State   2:      Singlet-A      1.8810 eV  659.13 nm  f=0.0739  <S**2>=0.000
     175 ->177         0.56813
     176 ->178        -0.39420

 Excited State   3:      Singlet-A      2.9143 eV  425.43 nm  f=0.0109  <S**2>=0.000
     170 ->177         0.23778
     170 ->179         0.24818
     170 ->181         0.34569
     170 ->184        -0.11546
     170 ->186         0.18389
     170 ->187        -0.18005
     174 ->177        -0.27340

 Excited State   4:      Singlet-A      2.9672 eV  417.85 nm  f=0.1477  <S**2>=0.000
     168 ->177         0.31495
     168 ->178        -0.12855
     168 ->179        -0.36812
     168 ->181         0.21370
     168 ->184        -0.10145
     168 ->186        -0.18559
     175 ->177         0.12680
     176 ->178         0.20640
     176 ->179         0.10257

 Excited State   5:      Singlet-A      3.0034 eV  412.82 nm  f=0.7265  <S**2>=0.000
     168 ->177        -0.13119
     168 ->179         0.18275
     168 ->181        -0.10087
     168 ->186         0.10083
     174 ->177         0.17000
     175 ->177         0.28989
     176 ->178         0.46466
     176 ->179         0.14554

 The electronic state is 1-A.
 Alpha  occ. eigenvalues --   -1.85945  -1.81548  -1.80663  -1.75109  -1.74711
 Alpha  occ. eigenvalues --   -1.71830  -1.63594  -1.61781  -1.59480  -1.59278
 Alpha  occ. eigenvalues --   -1.53486  -1.50699  -1.49776  -1.48766  -1.47439
 Alpha  occ. eigenvalues --   -1.43142  -1.42783  -1.39958  -1.38989  -1.37649
 Alpha  occ. eigenvalues --   -1.36604  -1.34100  -1.33434  -1.32191  -1.29860
 Alpha  occ. eigenvalues --   -1.27542  -1.24600  -1.22437  -1.19961  -1.18954
 Alpha  occ. eigenvalues --   -1.16422  -1.16055  -1.14883  -1.14399  -1.13795
 Alpha  occ. eigenvalues --   -1.12650  -1.10327  -1.09447  -1.05071  -1.04004
 Alpha  occ. eigenvalues --   -1.02411  -1.01716  -0.98391  -0.97342  -0.96386
 Alpha  occ. eigenvalues --   -0.94851  -0.93951  -0.93121  -0.92166  -0.91956
 Alpha  occ. eigenvalues --   -0.91105  -0.90465  -0.89210  -0.88314  -0.87259
 Alpha  occ. eigenvalues --   -0.85687  -0.83951  -0.83369  -0.82438  -0.80309
 Alpha  occ. eigenvalues --   -0.79300  -0.78029  -0.77712  -0.76633  -0.76064
 Alpha  occ. eigenvalues --   -0.75743  -0.75070  -0.74099  -0.73525  -0.73260
 Alpha  occ. eigenvalues --   -0.72709  -0.71993  -0.71308  -0.71237  -0.70805
 Alpha  occ. eigenvalues --   -0.70378  -0.69412  -0.68851  -0.68174  -0.67958
 Alpha  occ. eigenvalues --   -0.67561  -0.67157  -0.66467  -0.65710  -0.65644
 Alpha  occ. eigenvalues --   -0.65189  -0.65047  -0.64228  -0.63681  -0.63573
 Alpha  occ. eigenvalues --   -0.63309  -0.62832  -0.62433  -0.62321  -0.61978
 Alpha  occ. eigenvalues --   -0.61131  -0.60866  -0.60492  -0.60038  -0.60011
 Alpha  occ. eigenvalues --   -0.59761  -0.59435  -0.59419  -0.58787  -0.58334
 Alpha  occ. eigenvalues --   -0.57741  -0.57724  -0.57232  -0.56864  -0.56315
 Alpha  occ. eigenvalues --   -0.55810  -0.55571  -0.55315  -0.54983  -0.54464
 Alpha  occ. eigenvalues --   -0.54201  -0.53865  -0.53703  -0.53302  -0.52961
 Alpha  occ. eigenvalues --   -0.52878  -0.52823  -0.52205  -0.51889  -0.51370
 Alpha  occ. eigenvalues --   -0.51018  -0.50545  -0.50503  -0.49862  -0.49795
 Alpha  occ. eigenvalues --   -0.49584  -0.49320  -0.49026  -0.48564  -0.48378
 Alpha  occ. eigenvalues --   -0.48186  -0.48045  -0.47886  -0.47535  -0.47370
 Alpha  occ. eigenvalues --   -0.47332  -0.47108  -0.46762  -0.46403  -0.46221
 Alpha  occ. eigenvalues --   -0.45864  -0.45784  -0.45727  -0.45156  -0.44915
 Alpha  occ. eigenvalues --   -0.44854  -0.44673  -0.44541  -0.44293  -0.43848
 Alpha  occ. eigenvalues --   -0.43318  -0.43209  -0.43107  -0.42635  -0.42317
 Alpha  occ. eigenvalues --   -0.41886  -0.41637  -0.40881  -0.38883  -0.38280
 Alpha  occ. eigenvalues --   -0.37300  -0.37114  -0.35102  -0.34455  -0.34127
 Alpha  occ. eigenvalues --   -0.32938  -0.32101  -0.32044  -0.31364  -0.26060
 Alpha  occ. eigenvalues --   -0.21525
 Alpha virt. eigenvalues --   -0.08364  -0.01626   0.00014   0.00792   0.01899
 Alpha virt. eigenvalues --    0.02445   0.03409   0.03553   0.04436   0.05009
 Alpha virt. eigenvalues --    0.06594   0.07462   0.08030   0.08249   0.08512

 Mulliken charges:
               1
     1  Mg   0.423574
     2  C   -0.056585
     3  C   -0.076196
     4  C   -0.071062
     5  C   -0.071064
     6  N   -0.299286
     7  C    0.121418
     8  C    0.000387
     9  C    0.023710
    10  C    0.127492
    11  C   -0.054696
    12  C   -0.016231
    13  C   -0.000372
    14  C    0.471584
    15  O   -0.515747
    16  O   -0.258204
    17  N   -0.323336
    18  C    0.105829
    19  C   -0.003512
    20  C   -0.050757
    21  C    0.136518
    22  C   -0.047173
    23  C    0.314809
    24  O   -0.529882
    25  C   -0.030597
    26  N   -0.257355
    27  C    0.118369
    28  C    0.006155
    29  C   -0.002598
    30  C    0.138119
    31  C   -0.050161
    32  C   -0.024543
    33  C   -0.053958
    34  N   -0.326253
    35  C    0.099611
    36  C    0.032349
    37  C   -0.042375
    38  C    0.116336
    39  C   -0.038687
    40  C    0.350155
    41  O   -0.505235
    42  C    0.068044
    43  C    0.492565
    44  O   -0.522590
    45  O   -0.265118
    46  C    0.079405
    47  C    0.099076
    48  C   -0.115098
    49  C    0.001528
    50  C   -0.036751
    51  C   -0.043198
    52  C   -0.028419
    53  C   -0.024531
    54  C   -0.007862
    55  C   -0.060950
    56  C   -0.047556
    57  C   -0.053207
    58  C   -0.043481
    59  C   -0.019999
    60  C   -0.052676
    61  C   -0.041838
    62  C   -0.042324
    63  C   -0.040600
    64  C   -0.016070
    65  C   -0.050045
    66  C   -0.059621
    67  H    0.016534
    68  H    0.050225
    69  H    0.022577
    70  H    0.048953
    71  H    0.019696
    72  H    0.027034
    73  H    0.032018
    74  H    0.028262
    75  H    0.018789
    76  H    0.037265
    77  H    0.027505
    78  H    0.039704
    79  H    0.027933
    80  H    0.031559
    81  H    0.033015
    82  H    0.037715
    83  H    0.026705
    84  H    0.039484
    85  H    0.028826
    86  H    0.037693
    87  H    0.029346
    88  H    0.009996
    89  H    0.030246
    90  H    0.014790
    91  H    0.017235
    92  H    0.018875
    93  H    0.015653
    94  H    0.026971
    95  H    0.033916
    96  H    0.038003
    97  H    0.029461
    98  H    0.051808
    99  H    0.041386
   100  H    0.054167
   101  H    0.024332
   102  H    0.047531
   103  H    0.055400
   104  H    0.031549
   105  H    0.030543
   106  H    0.035075
   107  H    0.037678
   108  H    0.015151
   109  H    0.014096
   110  H    0.015647
   111  H    0.026885
   112  H    0.027561
   113  H    0.010926
   114  H    0.020003
   115  H    0.007529
   116  H    0.033661
   117  H    0.024390
   118  H    0.021084
   119  H    0.015773
   120  H    0.021295
   121  H    0.012079
   122  H    0.022594
   123  H    0.022121
   124  H    0.015644
   125  H    0.022003
   126  H    0.016432
   127  H    0.024600
   128  H    0.015505
   129  H    0.028798
   130  H    0.028138
   131  H    0.020246
   132  H    0.015022
   133  H    0.027098
   134  H    0.023724
   135  H    0.014525
   136  H    0.019572
   137  H    0.022697
   138  H    0.017785
   139  H    0.011964
   140  H    0.010767
 Sum of Mulliken charges =   0.00000

 Dipole moment (field-independent basis, Debye):
    X=             -5.0581    Y=              1.8852    Z=              3.1001  Tot=              6.2249
 N-N= 4.391617483717D+03 E-N= 0.000000000000D+00  KE=-9.458183379331D+03
 Leave Link  601 at Thu May  5 08:49:23 2022, MaxMem=  6710886400 cpu:               0.8 elap:               0.0
 (Enter /sw/apps/gaussian-16.0/g16/l9999.exe)
 1\1\GINC-BP1-COMPUTE168\SP\RZINDO CIS\STO-3G\C55H74Mg1N4O6\OF15641\05-
 May-2022\0\\#p ZINDO=(nstates=5)\\step_751_chromophore_21 ZINDO\\0,1\M
 g,0,16.13,51.466,25.539\C,0,17.59,50.485,28.61\C,0,13.28,52.287,27.46\
 C,0,14.412,52.039,22.645\C,0,18.662,50.011,23.859\N,0,15.493,51.374,27
 .803\C,0,16.369,51.166,28.859\C,0,15.717,51.525,30.184\C,0,14.21,51.72
 4,29.772\C,0,14.299,51.826,28.271\C,0,13.282,50.678,30.275\C,0,16.545,
 52.661,30.787\C,0,16.372,52.718,32.317\C,0,15.493,51.69,33.034\O,0,15.

 Normal termination of Gaussian 16 at Thu May  5 08:49:23 2022.
