 Gaussian 16, Revision A.03,
 Gaussian 16:  ES64L-G16RevA.03 25-Dec-2016

 ------------------------------
 #p blyp/Def2SVP td=(nstates=5)
 ------------------------------

 -------------------------------------------------
 step_651_chromophore_4 TDDFT with blyp functional
 -------------------------------------------------
 Symbolic Z-matrix:
 Charge =  0 Multiplicity = 1

                         Standard orientation:
 ---------------------------------------------------------------------
 Center     Atomic      Atomic             Coordinates (Angstroms)
 Number     Number       Type             X           Y           Z
 ---------------------------------------------------------------------
      1         12           0        6.105804    0.548077    0.335473
      2          6           0        3.675513   -2.036802    0.296696
      3          6           0        3.588165    2.618623   -0.661846
      4          6           0        8.515261    2.887201    0.050650
      5          6           0        8.627934   -1.931713    0.395737
      6          7           0        3.899402    0.272093   -0.148587
      7          6           0        3.064769   -0.795989    0.061931
      8          6           0        1.595016   -0.495870   -0.212235
      9          6           0        1.643524    1.023647   -0.622411
     10          6           0        3.112930    1.325002   -0.503424
     11          6           0        1.163731    1.295494   -2.019679
     12          6           0        0.703109   -0.794728    0.979538
     13          6           0       -0.731250   -0.440514    0.865965
     14          6           0       -1.674834   -1.596944    0.573916
     15          8           0       -1.649544   -2.706943    1.122968
     16          8           0       -2.669195   -1.223770   -0.285057
     17          7           0        6.024994    2.498627   -0.041950
     18          6           0        4.915255    3.192523   -0.579983
     19          6           0        5.258090    4.632954   -0.622823
     20          6           0        6.723233    4.714795   -0.387884
     21          6           0        7.181062    3.338459    0.022108
     22          6           0        4.279673    5.730819   -1.097001
     23          6           0        7.702152    5.890201   -0.461474
     24          8           0        8.905098    5.818217   -0.376720
     25          6           0        7.088810    7.211962   -0.753245
     26          7           0        8.193417    0.475849    0.173299
     27          6           0        8.999598    1.592941    0.214143
     28          6           0       10.510896    1.213034    0.039296
     29          6           0       10.475022   -0.234484    0.551993
     30          6           0        9.005448   -0.600276    0.332339
     31          6           0       11.004462    1.417868   -1.421904
     32          6           0       10.880753   -0.336913    2.025925
     33          6           0       12.227668   -0.970055    2.390358
     34          7           0        6.239786   -1.637081    0.379157
     35          6           0        7.319647   -2.522877    0.394858
     36          6           0        6.811917   -3.895584    0.505315
     37          6           0        5.376692   -3.700033    0.468609
     38          6           0        5.067658   -2.314131    0.371893
     39          6           0        7.478656   -5.169449    0.500580
     40          6           0        4.158585   -4.431923    0.478506
     41          8           0        3.987423   -5.678595    0.544488
     42          6           0        3.007865   -3.425417    0.452302
     43          6           0        2.230280   -3.679849   -0.821159
     44          8           0        2.605226   -3.516965   -1.934040
     45          8           0        1.000580   -4.226258   -0.425106
     46          6           0        0.167166   -4.887351   -1.416551
     47          6           0       -3.641849   -2.313449   -0.654960
     48          6           0       -5.095545   -1.894031   -0.407196
     49          6           0       -6.147830   -2.682714   -0.304312
     50          6           0       -6.152774   -4.184746   -0.420111
     51          6           0       -7.438985   -2.022184    0.154167
     52          6           0       -8.158236   -1.155108   -0.846115
     53          6           0       -8.171697    0.409443   -0.540100
     54          6           0       -9.598591    1.021968   -0.675400
     55          6           0      -10.159909    0.948181   -2.112706
     56          6           0       -9.603967    2.446074   -0.121741
     57          6           0      -10.284400    2.530722    1.257723
     58          6           0      -11.401495    3.587185    1.433823
     59          6           0      -12.736650    3.050223    1.930773
     60          6           0      -13.513391    4.184354    2.592306
     61          6           0      -13.673086    2.453705    0.789361
     62          6           0      -14.538335    1.242208    1.233983
     63          6           0      -14.136438   -0.082919    0.508163
     64          6           0      -15.121160   -0.480184   -0.629346
     65          6           0      -16.170821   -1.498571   -0.180111
     66          6           0      -14.368590   -0.995046   -1.905333
     67          1           0        2.797862    3.265805   -1.049220
     68          1           0        9.339166    3.603394    0.085285
     69          1           0        9.361987   -2.735871    0.482253
     70          1           0        1.245737   -1.162140   -1.000772
     71          1           0        1.096312    1.790553   -0.074348
     72          1           0        0.369665    0.604135   -2.301170
     73          1           0        1.962859    1.154318   -2.746638
     74          1           0        0.649526    2.232175   -2.234862
     75          1           0        1.238786   -0.476221    1.873836
     76          1           0        0.711749   -1.883033    1.026756
     77          1           0       -0.749924    0.206525   -0.009801
     78          1           0       -0.886540    0.146481    1.771574
     79          1           0        4.661498    5.998754   -2.082653
     80          1           0        4.418752    6.471203   -0.309649
     81          1           0        3.226256    5.450766   -1.098696
     82          1           0        7.899128    7.932165   -0.642549
     83          1           0        6.238876    7.313395   -0.077072
     84          1           0        6.644611    7.186321   -1.748301
     85          1           0       11.197744    1.804587    0.646111
     86          1           0       11.062131   -0.885207   -0.096305
     87          1           0       12.022397    1.807754   -1.446209
     88          1           0       10.353311    2.067798   -2.005257
     89          1           0       11.026064    0.445665   -1.914811
     90          1           0       10.120504   -1.032549    2.381258
     91          1           0       10.833516    0.625970    2.536096
     92          1           0       13.096637   -0.469727    1.962538
     93          1           0       12.046019   -1.934966    1.919279
     94          1           0       12.238966   -0.981440    3.480467
     95          1           0        7.402618   -5.577025    1.507894
     96          1           0        8.481881   -5.048063    0.092086
     97          1           0        6.958445   -5.755214   -0.258839
     98          1           0        2.307224   -3.369671    1.286211
     99          1           0       -0.173919   -5.908367   -1.241705
    100          1           0        0.706801   -4.866686   -2.363066
    101          1           0       -0.617212   -4.132999   -1.347784
    102          1           0       -3.540742   -3.237106   -0.084403
    103          1           0       -3.593895   -2.541390   -1.719684
    104          1           0       -5.204812   -0.810975   -0.355153
    105          1           0       -5.229540   -4.710518   -0.663240
    106          1           0       -6.848531   -4.451482   -1.215180
    107          1           0       -6.449708   -4.587290    0.549177
    108          1           0       -7.246072   -1.558115    1.121816
    109          1           0       -8.225793   -2.763066    0.295496
    110          1           0       -9.189707   -1.487860   -0.960568
    111          1           0       -7.590104   -1.256259   -1.770033
    112          1           0       -7.480355    1.009195   -1.132749
    113          1           0       -7.895186    0.501537    0.509861
    114          1           0      -10.128637    0.277823   -0.081022
    115          1           0       -9.543950    1.414956   -2.881606
    116          1           0      -11.122737    1.458731   -2.117310
    117          1           0      -10.288562   -0.088827   -2.422780
    118          1           0      -10.024603    3.087543   -0.895719
    119          1           0       -8.601266    2.861270   -0.021718
    120          1           0       -9.500415    2.779183    1.974264
    121          1           0      -10.470750    1.512104    1.594921
    122          1           0      -11.562256    4.188238    0.539125
    123          1           0      -11.039905    4.313136    2.162630
    124          1           0      -12.657583    2.196205    2.602818
    125          1           0      -13.057011    4.416905    3.554791
    126          1           0      -14.519295    3.784239    2.721980
    127          1           0      -13.663769    5.028222    1.919010
    128          1           0      -13.013952    2.193146   -0.039098
    129          1           0      -14.423275    3.198974    0.527250
    130          1           0      -15.592924    1.375562    0.995321
    131          1           0      -14.381840    1.193855    2.312010
    132          1           0      -14.121036   -0.868493    1.264370
    133          1           0      -13.134131   -0.050187    0.082303
    134          1           0      -15.634661    0.423354   -0.957879
    135          1           0      -15.729519   -2.458432   -0.445981
    136          1           0      -17.066062   -1.378129   -0.789122
    137          1           0      -16.406086   -1.340948    0.871993
    138          1           0      -14.473125   -0.398930   -2.811657
    139          1           0      -14.792163   -1.947630   -2.223000
    140          1           0      -13.299230   -1.074385   -1.707966
 ---------------------------------------------------------------------

 SCF Done:  E(RB-LYP) =  -3007.35724005     A.U. after   21 cycles

 Excitation energies and oscillator strengths:

 Excited State   1:      Singlet-A      1.6557 eV  748.82 nm  f=0.0003  <S**2>=0.000
     244 -> 247        0.70316
 This state for optimization and/or second-order correction.
 Total Energy, E(TD-HF/TD-DFT) =  -3007.29639347
 Copying the excited state density for this state as the 1-particle RhoCI density.

 Excited State   2:      Singlet-A      1.8126 eV  684.03 nm  f=0.2905  <S**2>=0.000
     245 -> 248       -0.19581
     246 -> 247        0.68129
     246 <- 247       -0.14769

 Excited State   3:      Singlet-A      1.9132 eV  648.04 nm  f=0.0450  <S**2>=0.000
     243 -> 247        0.53422
     245 -> 247       -0.42215
     246 -> 248       -0.12714

 Excited State   4:      Singlet-A      1.9730 eV  628.40 nm  f=0.0574  <S**2>=0.000
     242 -> 247        0.11127
     243 -> 247        0.45601
     245 -> 247        0.48934
     246 -> 248        0.16770

 Excited State   5:      Singlet-A      2.2638 eV  547.67 nm  f=0.0112  <S**2>=0.000
     242 -> 247        0.68119
     245 -> 247       -0.10059

 The electronic state is 1-A.
 Alpha  occ. eigenvalues --  -46.26910 -18.83396 -18.80519 -18.77318 -18.77202
 Alpha  occ. eigenvalues --  -18.75694 -18.74455 -14.03447 -14.03112 -14.01308
 Alpha  occ. eigenvalues --  -14.00269 -10.05017 -10.03451  -9.99566  -9.98543
 Alpha  occ. eigenvalues --   -9.98402  -9.96647  -9.96645  -9.96627  -9.96410
 Alpha  occ. eigenvalues --   -9.96219  -9.96130  -9.96091  -9.95568  -9.95119
 Alpha  occ. eigenvalues --   -9.94542  -9.94340  -9.94270  -9.94108  -9.93856
 Alpha  occ. eigenvalues --   -9.93646  -9.93625  -9.93573  -9.93414  -9.93400
 Alpha  occ. eigenvalues --   -9.93043  -9.93023  -9.92764  -9.92754  -9.92633
 Alpha  occ. eigenvalues --   -9.92588  -9.92415  -9.92072  -9.92070  -9.91915
 Alpha  occ. eigenvalues --   -9.91873  -9.91864  -9.91849  -9.91822  -9.91790
 Alpha  occ. eigenvalues --   -9.91690  -9.91661  -9.91648  -9.91553  -9.91312
 Alpha  occ. eigenvalues --   -9.91281  -9.91195  -9.91157  -9.91017  -9.91006
 Alpha  occ. eigenvalues --   -9.90914  -9.90883  -9.90854  -9.90792  -9.90727
 Alpha  occ. eigenvalues --   -9.90482  -2.91566  -1.71979  -1.71471  -1.71264
 Alpha  occ. eigenvalues --   -0.98048  -0.97382  -0.92425  -0.90529  -0.89561
 Alpha  occ. eigenvalues --   -0.88474  -0.86471  -0.85985  -0.84261  -0.82409
 Alpha  occ. eigenvalues --   -0.75142  -0.74586  -0.74119  -0.73090  -0.72541
 Alpha  occ. eigenvalues --   -0.72129  -0.71772  -0.71041  -0.70986  -0.70084
 Alpha  occ. eigenvalues --   -0.69646  -0.69444  -0.68368  -0.67418  -0.67206
 Alpha  occ. eigenvalues --   -0.66662  -0.66004  -0.65534  -0.65096  -0.64484
 Alpha  occ. eigenvalues --   -0.64133  -0.63052  -0.62234  -0.61528  -0.60648
 Alpha  occ. eigenvalues --   -0.60080  -0.59956  -0.59807  -0.59708  -0.58836
 Alpha  occ. eigenvalues --   -0.58785  -0.57485  -0.56774  -0.55607  -0.54041
 Alpha  occ. eigenvalues --   -0.53596  -0.53385  -0.52581  -0.52022  -0.51465
 Alpha  occ. eigenvalues --   -0.51236  -0.50831  -0.50653  -0.49775  -0.49688
 Alpha  occ. eigenvalues --   -0.49507  -0.49074  -0.48529  -0.47585  -0.46858
 Alpha  occ. eigenvalues --   -0.46440  -0.46130  -0.45519  -0.45324  -0.44965
 Alpha  occ. eigenvalues --   -0.44009  -0.43564  -0.43053  -0.42562  -0.42275
 Alpha  occ. eigenvalues --   -0.41936  -0.41818  -0.41548  -0.41184  -0.40976
 Alpha  occ. eigenvalues --   -0.40737  -0.40711  -0.40503  -0.40369  -0.40227
 Alpha  occ. eigenvalues --   -0.40106  -0.40046  -0.39773  -0.39593  -0.39442
 Alpha  occ. eigenvalues --   -0.39166  -0.39024  -0.38791  -0.38661  -0.38479
 Alpha  occ. eigenvalues --   -0.38294  -0.38235  -0.38018  -0.37755  -0.37524
 Alpha  occ. eigenvalues --   -0.37424  -0.37187  -0.37045  -0.36634  -0.36552
 Alpha  occ. eigenvalues --   -0.36438  -0.36261  -0.35987  -0.35727  -0.35519
 Alpha  occ. eigenvalues --   -0.35348  -0.35197  -0.35006  -0.34887  -0.34879
 Alpha  occ. eigenvalues --   -0.34580  -0.34390  -0.34123  -0.34036  -0.33868
 Alpha  occ. eigenvalues --   -0.33660  -0.33619  -0.33399  -0.33186  -0.33057
 Alpha  occ. eigenvalues --   -0.32921  -0.32589  -0.32413  -0.32287  -0.32174
 Alpha  occ. eigenvalues --   -0.31923  -0.31769  -0.31700  -0.31510  -0.31294
 Alpha  occ. eigenvalues --   -0.31059  -0.30961  -0.30881  -0.30572  -0.30483
 Alpha  occ. eigenvalues --   -0.30268  -0.30079  -0.29809  -0.29622  -0.29560
 Alpha  occ. eigenvalues --   -0.29493  -0.29393  -0.29180  -0.29145  -0.28994
 Alpha  occ. eigenvalues --   -0.28454  -0.28248  -0.28201  -0.27919  -0.27781
 Alpha  occ. eigenvalues --   -0.27451  -0.27332  -0.27007  -0.26863  -0.26789
 Alpha  occ. eigenvalues --   -0.26375  -0.26139  -0.25761  -0.25575  -0.25410
 Alpha  occ. eigenvalues --   -0.25150  -0.24651  -0.23764  -0.23746  -0.23523
 Alpha  occ. eigenvalues --   -0.23237  -0.22605  -0.22412  -0.21915  -0.20674
 Alpha  occ. eigenvalues --   -0.20142  -0.19400  -0.18801  -0.17732  -0.17097
 Alpha  occ. eigenvalues --   -0.16045
 Alpha virt. eigenvalues --   -0.11758  -0.06873  -0.06060  -0.04528  -0.04244
 Alpha virt. eigenvalues --   -0.02581  -0.01839  -0.01697  -0.01643   0.00255
 Alpha virt. eigenvalues --    0.01169   0.01870   0.02004   0.02361   0.02759

 Mulliken charges:
               1
     1  Mg   0.694000
     2  C   -0.056917
     3  C   -0.044864
     4  C   -0.018132
     5  C   -0.072141
     6  N   -0.194051
     7  C   -0.073871
     8  C    0.057517
     9  C    0.026220
    10  C    0.011900
    11  C    0.099760
    12  C    0.025786
    13  C    0.202081
    14  C    0.088437
    15  O   -0.196985
    16  O   -0.265385
    17  N   -0.394673
    18  C    0.155370
    19  C   -0.163996
    20  C   -0.036760
    21  C    0.147067
    22  C    0.166332
    23  C   -0.072989
    24  O   -0.148727
    25  C    0.146683
    26  N   -0.226549
    27  C    0.023814
    28  C    0.004242
    29  C    0.027610
    30  C    0.076765
    31  C    0.135722
    32  C    0.082742
    33  C    0.077123
    34  N   -0.253645
    35  C    0.052379
    36  C   -0.155052
    37  C    0.093096
    38  C    0.112671
    39  C    0.193932
    40  C   -0.056659
    41  O   -0.183171
    42  C    0.091769
    43  C    0.087408
    44  O   -0.132430
    45  O   -0.296020
    46  C    0.196087
    47  C    0.297088
    48  C   -0.135904
    49  C   -0.130294
    50  C    0.141779
    51  C    0.148465
    52  C    0.063078
    53  C    0.065993
    54  C   -0.109562
    55  C    0.097854
    56  C    0.139352
    57  C    0.089029
    58  C    0.143253
    59  C   -0.089204
    60  C    0.119703
    61  C    0.078968
    62  C    0.066366
    63  C    0.096543
    64  C   -0.110371
    65  C    0.120570
    66  C    0.087784
    67  H   -0.067829
    68  H   -0.027481
    69  H   -0.068943
    70  H   -0.011037
    71  H   -0.019864
    72  H   -0.016764
    73  H    0.001019
    74  H   -0.013429
    75  H   -0.035289
    76  H    0.008454
    77  H   -0.024757
    78  H    0.017637
    79  H    0.030509
    80  H    0.005393
    81  H   -0.005529
    82  H   -0.000726
    83  H   -0.006857
    84  H    0.004742
    85  H   -0.032542
    86  H   -0.041789
    87  H   -0.006483
    88  H    0.001929
    89  H   -0.016548
    90  H   -0.028921
    91  H   -0.017985
    92  H   -0.003013
    93  H   -0.007312
    94  H    0.002602
    95  H    0.021919
    96  H   -0.021102
    97  H    0.015802
    98  H    0.012951
    99  H    0.030861
   100  H    0.013160
   101  H    0.012753
   102  H    0.026849
   103  H    0.010900
   104  H   -0.030560
   105  H   -0.019435
   106  H    0.000397
   107  H    0.007579
   108  H   -0.007609
   109  H   -0.053878
   110  H   -0.018712
   111  H   -0.025031
   112  H   -0.025878
   113  H   -0.041685
   114  H   -0.026692
   115  H   -0.020820
   116  H   -0.007515
   117  H   -0.014933
   118  H   -0.046187
   119  H   -0.042860
   120  H   -0.045510
   121  H   -0.036776
   122  H   -0.033856
   123  H   -0.045784
   124  H   -0.040114
   125  H   -0.010133
   126  H   -0.031577
   127  H   -0.015943
   128  H   -0.023395
   129  H   -0.038789
   130  H   -0.025425
   131  H   -0.030844
   132  H   -0.042273
   133  H   -0.029768
   134  H   -0.033503
   135  H   -0.011860
   136  H   -0.017480
   137  H   -0.009209
   138  H   -0.018533
   139  H   -0.029127
   140  H   -0.013551
 Sum of Mulliken charges =  -0.00000

 Dipole moment (field-independent basis, Debye):
    X=             -3.6326    Y=              3.5855    Z=             -0.1423  Tot=              5.1060
 Quadrupole moment (field-independent basis, Debye-Ang):
   XX=           -384.8573   YY=           -429.0081   ZZ=           -405.7776
   XY=             -0.6715   XZ=             12.4387   YZ=              4.0232

 Normal termination of Gaussian 16 at Sat Apr 30 08:56:56 2022.
