 Gaussian 16, Revision A.03,
 Gaussian 16:  ES64L-G16RevA.03 25-Dec-2016

 -----------------------------------
 #p cam-b3lyp/Def2SVP td=(nstates=5)
 -----------------------------------

 ------------------------------------------------------
 step_651_chromophore_4 TDDFT with cam-b3lyp functional
 ------------------------------------------------------
 Symbolic Z-matrix:
 Charge =  0 Multiplicity = 1

                         Standard orientation:
 ---------------------------------------------------------------------
 Center     Atomic      Atomic             Coordinates (Angstroms)
 Number     Number       Type             X           Y           Z
 ---------------------------------------------------------------------
      1         12           0        6.105804    0.548077    0.335473
      2          6           0        3.675513   -2.036802    0.296696
      3          6           0        3.588165    2.618623   -0.661846
      4          6           0        8.515261    2.887201    0.050650
      5          6           0        8.627934   -1.931713    0.395737
      6          7           0        3.899402    0.272093   -0.148587
      7          6           0        3.064769   -0.795989    0.061931
      8          6           0        1.595016   -0.495870   -0.212235
      9          6           0        1.643524    1.023647   -0.622411
     10          6           0        3.112930    1.325002   -0.503424
     11          6           0        1.163731    1.295494   -2.019679
     12          6           0        0.703109   -0.794728    0.979538
     13          6           0       -0.731250   -0.440514    0.865965
     14          6           0       -1.674834   -1.596944    0.573916
     15          8           0       -1.649544   -2.706943    1.122968
     16          8           0       -2.669195   -1.223770   -0.285057
     17          7           0        6.024994    2.498627   -0.041950
     18          6           0        4.915255    3.192523   -0.579983
     19          6           0        5.258090    4.632954   -0.622823
     20          6           0        6.723233    4.714795   -0.387884
     21          6           0        7.181062    3.338459    0.022108
     22          6           0        4.279673    5.730819   -1.097001
     23          6           0        7.702152    5.890201   -0.461474
     24          8           0        8.905098    5.818217   -0.376720
     25          6           0        7.088810    7.211962   -0.753245
     26          7           0        8.193417    0.475849    0.173299
     27          6           0        8.999598    1.592941    0.214143
     28          6           0       10.510896    1.213034    0.039296
     29          6           0       10.475022   -0.234484    0.551993
     30          6           0        9.005448   -0.600276    0.332339
     31          6           0       11.004462    1.417868   -1.421904
     32          6           0       10.880753   -0.336913    2.025925
     33          6           0       12.227668   -0.970055    2.390358
     34          7           0        6.239786   -1.637081    0.379157
     35          6           0        7.319647   -2.522877    0.394858
     36          6           0        6.811917   -3.895584    0.505315
     37          6           0        5.376692   -3.700033    0.468609
     38          6           0        5.067658   -2.314131    0.371893
     39          6           0        7.478656   -5.169449    0.500580
     40          6           0        4.158585   -4.431923    0.478506
     41          8           0        3.987423   -5.678595    0.544488
     42          6           0        3.007865   -3.425417    0.452302
     43          6           0        2.230280   -3.679849   -0.821159
     44          8           0        2.605226   -3.516965   -1.934040
     45          8           0        1.000580   -4.226258   -0.425106
     46          6           0        0.167166   -4.887351   -1.416551
     47          6           0       -3.641849   -2.313449   -0.654960
     48          6           0       -5.095545   -1.894031   -0.407196
     49          6           0       -6.147830   -2.682714   -0.304312
     50          6           0       -6.152774   -4.184746   -0.420111
     51          6           0       -7.438985   -2.022184    0.154167
     52          6           0       -8.158236   -1.155108   -0.846115
     53          6           0       -8.171697    0.409443   -0.540100
     54          6           0       -9.598591    1.021968   -0.675400
     55          6           0      -10.159909    0.948181   -2.112706
     56          6           0       -9.603967    2.446074   -0.121741
     57          6           0      -10.284400    2.530722    1.257723
     58          6           0      -11.401495    3.587185    1.433823
     59          6           0      -12.736650    3.050223    1.930773
     60          6           0      -13.513391    4.184354    2.592306
     61          6           0      -13.673086    2.453705    0.789361
     62          6           0      -14.538335    1.242208    1.233983
     63          6           0      -14.136438   -0.082919    0.508163
     64          6           0      -15.121160   -0.480184   -0.629346
     65          6           0      -16.170821   -1.498571   -0.180111
     66          6           0      -14.368590   -0.995046   -1.905333
     67          1           0        2.797862    3.265805   -1.049220
     68          1           0        9.339166    3.603394    0.085285
     69          1           0        9.361987   -2.735871    0.482253
     70          1           0        1.245737   -1.162140   -1.000772
     71          1           0        1.096312    1.790553   -0.074348
     72          1           0        0.369665    0.604135   -2.301170
     73          1           0        1.962859    1.154318   -2.746638
     74          1           0        0.649526    2.232175   -2.234862
     75          1           0        1.238786   -0.476221    1.873836
     76          1           0        0.711749   -1.883033    1.026756
     77          1           0       -0.749924    0.206525   -0.009801
     78          1           0       -0.886540    0.146481    1.771574
     79          1           0        4.661498    5.998754   -2.082653
     80          1           0        4.418752    6.471203   -0.309649
     81          1           0        3.226256    5.450766   -1.098696
     82          1           0        7.899128    7.932165   -0.642549
     83          1           0        6.238876    7.313395   -0.077072
     84          1           0        6.644611    7.186321   -1.748301
     85          1           0       11.197744    1.804587    0.646111
     86          1           0       11.062131   -0.885207   -0.096305
     87          1           0       12.022397    1.807754   -1.446209
     88          1           0       10.353311    2.067798   -2.005257
     89          1           0       11.026064    0.445665   -1.914811
     90          1           0       10.120504   -1.032549    2.381258
     91          1           0       10.833516    0.625970    2.536096
     92          1           0       13.096637   -0.469727    1.962538
     93          1           0       12.046019   -1.934966    1.919279
     94          1           0       12.238966   -0.981440    3.480467
     95          1           0        7.402618   -5.577025    1.507894
     96          1           0        8.481881   -5.048063    0.092086
     97          1           0        6.958445   -5.755214   -0.258839
     98          1           0        2.307224   -3.369671    1.286211
     99          1           0       -0.173919   -5.908367   -1.241705
    100          1           0        0.706801   -4.866686   -2.363066
    101          1           0       -0.617212   -4.132999   -1.347784
    102          1           0       -3.540742   -3.237106   -0.084403
    103          1           0       -3.593895   -2.541390   -1.719684
    104          1           0       -5.204812   -0.810975   -0.355153
    105          1           0       -5.229540   -4.710518   -0.663240
    106          1           0       -6.848531   -4.451482   -1.215180
    107          1           0       -6.449708   -4.587290    0.549177
    108          1           0       -7.246072   -1.558115    1.121816
    109          1           0       -8.225793   -2.763066    0.295496
    110          1           0       -9.189707   -1.487860   -0.960568
    111          1           0       -7.590104   -1.256259   -1.770033
    112          1           0       -7.480355    1.009195   -1.132749
    113          1           0       -7.895186    0.501537    0.509861
    114          1           0      -10.128637    0.277823   -0.081022
    115          1           0       -9.543950    1.414956   -2.881606
    116          1           0      -11.122737    1.458731   -2.117310
    117          1           0      -10.288562   -0.088827   -2.422780
    118          1           0      -10.024603    3.087543   -0.895719
    119          1           0       -8.601266    2.861270   -0.021718
    120          1           0       -9.500415    2.779183    1.974264
    121          1           0      -10.470750    1.512104    1.594921
    122          1           0      -11.562256    4.188238    0.539125
    123          1           0      -11.039905    4.313136    2.162630
    124          1           0      -12.657583    2.196205    2.602818
    125          1           0      -13.057011    4.416905    3.554791
    126          1           0      -14.519295    3.784239    2.721980
    127          1           0      -13.663769    5.028222    1.919010
    128          1           0      -13.013952    2.193146   -0.039098
    129          1           0      -14.423275    3.198974    0.527250
    130          1           0      -15.592924    1.375562    0.995321
    131          1           0      -14.381840    1.193855    2.312010
    132          1           0      -14.121036   -0.868493    1.264370
    133          1           0      -13.134131   -0.050187    0.082303
    134          1           0      -15.634661    0.423354   -0.957879
    135          1           0      -15.729519   -2.458432   -0.445981
    136          1           0      -17.066062   -1.378129   -0.789122
    137          1           0      -16.406086   -1.340948    0.871993
    138          1           0      -14.473125   -0.398930   -2.811657
    139          1           0      -14.792163   -1.947630   -2.223000
    140          1           0      -13.299230   -1.074385   -1.707966
 ---------------------------------------------------------------------

 SCF Done:  E(RCAM-B3LYP) =  -3007.14764251     A.U. after   17 cycles

 Excitation energies and oscillator strengths:

 Excited State   1:      Singlet-A      1.6894 eV  733.88 nm  f=0.3833  <S**2>=0.000
     245 -> 248       -0.18367
     246 -> 247        0.68454
     245 <- 248       -0.10935
 This state for optimization and/or second-order correction.
 Total Energy, E(TD-HF/TD-DFT) =  -3007.08555654
 Copying the excited state density for this state as the 1-particle RhoCI density.

 Excited State   2:      Singlet-A      2.1398 eV  579.41 nm  f=0.1504  <S**2>=0.000
     245 -> 247        0.65322
     246 -> 248        0.25254

 Excited State   3:      Singlet-A      3.0760 eV  403.07 nm  f=0.0065  <S**2>=0.000
     243 -> 247       -0.13415
     244 -> 247        0.67710

 Excited State   4:      Singlet-A      3.2410 eV  382.55 nm  f=0.0002  <S**2>=0.000
     242 -> 247        0.58329
     242 -> 249       -0.31536
     242 -> 250       -0.15770
     242 -> 251        0.10005

 Excited State   5:      Singlet-A      3.2892 eV  376.94 nm  f=0.0048  <S**2>=0.000
     243 -> 247        0.66754
     244 -> 247        0.12253
     246 -> 248       -0.13009

 The electronic state is 1-A.
 Alpha  occ. eigenvalues --  -46.88461 -19.26261 -19.23361 -19.20361 -19.20269
 Alpha  occ. eigenvalues --  -19.19038 -19.17543 -14.42426 -14.42022 -14.39897
 Alpha  occ. eigenvalues --  -14.38595 -10.40326 -10.38930 -10.34874 -10.33815
 Alpha  occ. eigenvalues --  -10.32502 -10.31273 -10.31120 -10.31097 -10.30765
 Alpha  occ. eigenvalues --  -10.30738 -10.30594 -10.30366 -10.30046 -10.29704
 Alpha  occ. eigenvalues --  -10.28633 -10.28506 -10.28352 -10.28068 -10.28055
 Alpha  occ. eigenvalues --  -10.28000 -10.27958 -10.27928 -10.27747 -10.27538
 Alpha  occ. eigenvalues --  -10.27241 -10.26901 -10.26813 -10.26668 -10.26479
 Alpha  occ. eigenvalues --  -10.26389 -10.26203 -10.26155 -10.25718 -10.25687
 Alpha  occ. eigenvalues --  -10.25633 -10.25575 -10.25549 -10.25503 -10.25483
 Alpha  occ. eigenvalues --  -10.25456 -10.25414 -10.25368 -10.25342 -10.25040
 Alpha  occ. eigenvalues --  -10.24961 -10.24838 -10.24797 -10.24682 -10.24646
 Alpha  occ. eigenvalues --  -10.24559 -10.24535 -10.24459 -10.24440 -10.24406
 Alpha  occ. eigenvalues --  -10.24309  -3.17022  -1.91911  -1.91494  -1.91313
 Alpha  occ. eigenvalues --   -1.16444  -1.16015  -1.11010  -1.08441  -1.07350
 Alpha  occ. eigenvalues --   -1.06709  -1.04264  -1.03672  -1.01690  -0.99953
 Alpha  occ. eigenvalues --   -0.92257  -0.91505  -0.91012  -0.89899  -0.89219
 Alpha  occ. eigenvalues --   -0.88842  -0.88456  -0.87667  -0.87621  -0.86540
 Alpha  occ. eigenvalues --   -0.86349  -0.85901  -0.84622  -0.83587  -0.83379
 Alpha  occ. eigenvalues --   -0.82736  -0.82231  -0.81507  -0.80988  -0.80296
 Alpha  occ. eigenvalues --   -0.79916  -0.78733  -0.77979  -0.77115  -0.75989
 Alpha  occ. eigenvalues --   -0.75466  -0.75293  -0.75104  -0.75010  -0.74061
 Alpha  occ. eigenvalues --   -0.73874  -0.72467  -0.71705  -0.70399  -0.68632
 Alpha  occ. eigenvalues --   -0.68137  -0.67896  -0.66929  -0.66429  -0.65765
 Alpha  occ. eigenvalues --   -0.65502  -0.64877  -0.64783  -0.63757  -0.63550
 Alpha  occ. eigenvalues --   -0.63346  -0.62988  -0.62413  -0.61249  -0.60514
 Alpha  occ. eigenvalues --   -0.59914  -0.59756  -0.58901  -0.58847  -0.58357
 Alpha  occ. eigenvalues --   -0.57745  -0.57004  -0.56133  -0.55728  -0.55632
 Alpha  occ. eigenvalues --   -0.55110  -0.54790  -0.54518  -0.54332  -0.53815
 Alpha  occ. eigenvalues --   -0.53546  -0.53451  -0.53180  -0.53037  -0.52990
 Alpha  occ. eigenvalues --   -0.52850  -0.52670  -0.52547  -0.52283  -0.52107
 Alpha  occ. eigenvalues --   -0.51583  -0.51443  -0.51175  -0.51062  -0.50939
 Alpha  occ. eigenvalues --   -0.50807  -0.50578  -0.50390  -0.50196  -0.50060
 Alpha  occ. eigenvalues --   -0.49637  -0.49551  -0.49424  -0.49183  -0.48986
 Alpha  occ. eigenvalues --   -0.48734  -0.48555  -0.48352  -0.47917  -0.47463
 Alpha  occ. eigenvalues --   -0.47385  -0.47303  -0.47177  -0.47008  -0.46642
 Alpha  occ. eigenvalues --   -0.46567  -0.46510  -0.46160  -0.45921  -0.45758
 Alpha  occ. eigenvalues --   -0.45397  -0.45342  -0.45294  -0.44890  -0.44839
 Alpha  occ. eigenvalues --   -0.44495  -0.44334  -0.44122  -0.43861  -0.43830
 Alpha  occ. eigenvalues --   -0.43770  -0.43427  -0.43222  -0.43076  -0.42978
 Alpha  occ. eigenvalues --   -0.42484  -0.42404  -0.42289  -0.42107  -0.41886
 Alpha  occ. eigenvalues --   -0.41841  -0.41464  -0.41100  -0.40990  -0.40887
 Alpha  occ. eigenvalues --   -0.40726  -0.40622  -0.40301  -0.40268  -0.40035
 Alpha  occ. eigenvalues --   -0.39998  -0.39581  -0.39234  -0.38942  -0.38816
 Alpha  occ. eigenvalues --   -0.38265  -0.38229  -0.37791  -0.37632  -0.37552
 Alpha  occ. eigenvalues --   -0.37256  -0.36854  -0.36747  -0.36681  -0.36351
 Alpha  occ. eigenvalues --   -0.35769  -0.35429  -0.35138  -0.34749  -0.34557
 Alpha  occ. eigenvalues --   -0.34145  -0.34104  -0.32755  -0.31257  -0.30977
 Alpha  occ. eigenvalues --   -0.30426  -0.29962  -0.29609  -0.28435  -0.23791
 Alpha  occ. eigenvalues --   -0.21422
 Alpha virt. eigenvalues --   -0.09026  -0.01692   0.00320   0.02280   0.02511
 Alpha virt. eigenvalues --    0.03484   0.05172   0.05797   0.06168   0.07040
 Alpha virt. eigenvalues --    0.07865   0.08323   0.08489   0.08757   0.09070

 Mulliken charges:
               1
     1  Mg   0.824627
     2  C   -0.080396
     3  C   -0.061820
     4  C   -0.044634
     5  C   -0.075560
     6  N   -0.260972
     7  C   -0.035017
     8  C    0.009719
     9  C   -0.039277
    10  C    0.031915
    11  C    0.041387
    12  C   -0.020554
    13  C    0.123675
    14  C    0.171630
    15  O   -0.238287
    16  O   -0.331384
    17  N   -0.481394
    18  C    0.174027
    19  C   -0.166890
    20  C   -0.103623
    21  C    0.179156
    22  C    0.107496
    23  C    0.008716
    24  O   -0.189722
    25  C    0.061578
    26  N   -0.294864
    27  C    0.040918
    28  C   -0.047650
    29  C   -0.034780
    30  C    0.089883
    31  C    0.078782
    32  C    0.027072
    33  C    0.022587
    34  N   -0.339847
    35  C    0.057649
    36  C   -0.146038
    37  C    0.010053
    38  C    0.150602
    39  C    0.135030
    40  C    0.035595
    41  O   -0.222264
    42  C    0.017268
    43  C    0.175290
    44  O   -0.168256
    45  O   -0.359918
    46  C    0.164218
    47  C    0.267490
    48  C   -0.150275
    49  C   -0.159444
    50  C    0.078596
    51  C    0.086509
    52  C    0.006428
    53  C    0.024268
    54  C   -0.165594
    55  C    0.045556
    56  C    0.079559
    57  C    0.032715
    58  C    0.085977
    59  C   -0.143798
    60  C    0.059492
    61  C    0.030964
    62  C    0.012565
    63  C    0.046203
    64  C   -0.169604
    65  C    0.061176
    66  C    0.031910
    67  H   -0.035600
    68  H    0.012637
    69  H   -0.034188
    70  H    0.021744
    71  H    0.016295
    72  H    0.008820
    73  H    0.028576
    74  H    0.012520
    75  H   -0.000994
    76  H    0.036297
    77  H    0.009481
    78  H    0.051584
    79  H    0.054662
    80  H    0.030141
    81  H    0.023087
    82  H    0.034811
    83  H    0.018852
    84  H    0.032225
    85  H    0.003472
    86  H   -0.004140
    87  H    0.018273
    88  H    0.027689
    89  H    0.008011
    90  H    0.002067
    91  H    0.008734
    92  H    0.018472
    93  H    0.011661
    94  H    0.026153
    95  H    0.048076
    96  H    0.004056
    97  H    0.043123
    98  H    0.057352
    99  H    0.051184
   100  H    0.038709
   101  H    0.030144
   102  H    0.056321
   103  H    0.036516
   104  H    0.002851
   105  H    0.006088
   106  H    0.024037
   107  H    0.031860
   108  H    0.022522
   109  H   -0.019733
   110  H    0.007767
   111  H    0.005421
   112  H   -0.000035
   113  H   -0.014641
   114  H    0.001065
   115  H    0.003517
   116  H    0.013161
   117  H    0.006985
   118  H   -0.015474
   119  H   -0.011257
   120  H   -0.014806
   121  H   -0.008513
   122  H   -0.005623
   123  H   -0.013809
   124  H   -0.009129
   125  H    0.014833
   126  H   -0.007302
   127  H    0.008462
   128  H   -0.000911
   129  H   -0.009365
   130  H    0.001962
   131  H   -0.003053
   132  H   -0.011863
   133  H   -0.006741
   134  H   -0.002447
   135  H    0.010824
   136  H    0.007385
   137  H    0.013590
   138  H    0.006138
   139  H   -0.004428
   140  H    0.007422
 Sum of Mulliken charges =  -0.00000

 Dipole moment (field-independent basis, Debye):
    X=             -3.6608    Y=              4.3521    Z=             -0.2910  Tot=              5.6945
 Quadrupole moment (field-independent basis, Debye-Ang):
   XX=           -383.9872   YY=           -425.0483   ZZ=           -405.8808
   XY=              3.4795   XZ=             12.7877   YZ=              3.9907

 Normal termination of Gaussian 16 at Sat Apr 30 08:07:40 2022.
