 Gaussian 16, Revision A.03,
 Gaussian 16:  ES64L-G16RevA.03 25-Dec-2016

 ---------------------------------
 #p PBE1PBE/Def2SVP td=(nstates=5)
 ---------------------------------

 ----------------------------------------------------
 step_651_chromophore_4 TDDFT with PBE1PBE functional
 ----------------------------------------------------
 Symbolic Z-matrix:
 Charge =  0 Multiplicity = 1

                         Standard orientation:
 ---------------------------------------------------------------------
 Center     Atomic      Atomic             Coordinates (Angstroms)
 Number     Number       Type             X           Y           Z
 ---------------------------------------------------------------------
      1         12           0        6.105804    0.548077    0.335473
      2          6           0        3.675513   -2.036802    0.296696
      3          6           0        3.588165    2.618623   -0.661846
      4          6           0        8.515261    2.887201    0.050650
      5          6           0        8.627934   -1.931713    0.395737
      6          7           0        3.899402    0.272093   -0.148587
      7          6           0        3.064769   -0.795989    0.061931
      8          6           0        1.595016   -0.495870   -0.212235
      9          6           0        1.643524    1.023647   -0.622411
     10          6           0        3.112930    1.325002   -0.503424
     11          6           0        1.163731    1.295494   -2.019679
     12          6           0        0.703109   -0.794728    0.979538
     13          6           0       -0.731250   -0.440514    0.865965
     14          6           0       -1.674834   -1.596944    0.573916
     15          8           0       -1.649544   -2.706943    1.122968
     16          8           0       -2.669195   -1.223770   -0.285057
     17          7           0        6.024994    2.498627   -0.041950
     18          6           0        4.915255    3.192523   -0.579983
     19          6           0        5.258090    4.632954   -0.622823
     20          6           0        6.723233    4.714795   -0.387884
     21          6           0        7.181062    3.338459    0.022108
     22          6           0        4.279673    5.730819   -1.097001
     23          6           0        7.702152    5.890201   -0.461474
     24          8           0        8.905098    5.818217   -0.376720
     25          6           0        7.088810    7.211962   -0.753245
     26          7           0        8.193417    0.475849    0.173299
     27          6           0        8.999598    1.592941    0.214143
     28          6           0       10.510896    1.213034    0.039296
     29          6           0       10.475022   -0.234484    0.551993
     30          6           0        9.005448   -0.600276    0.332339
     31          6           0       11.004462    1.417868   -1.421904
     32          6           0       10.880753   -0.336913    2.025925
     33          6           0       12.227668   -0.970055    2.390358
     34          7           0        6.239786   -1.637081    0.379157
     35          6           0        7.319647   -2.522877    0.394858
     36          6           0        6.811917   -3.895584    0.505315
     37          6           0        5.376692   -3.700033    0.468609
     38          6           0        5.067658   -2.314131    0.371893
     39          6           0        7.478656   -5.169449    0.500580
     40          6           0        4.158585   -4.431923    0.478506
     41          8           0        3.987423   -5.678595    0.544488
     42          6           0        3.007865   -3.425417    0.452302
     43          6           0        2.230280   -3.679849   -0.821159
     44          8           0        2.605226   -3.516965   -1.934040
     45          8           0        1.000580   -4.226258   -0.425106
     46          6           0        0.167166   -4.887351   -1.416551
     47          6           0       -3.641849   -2.313449   -0.654960
     48          6           0       -5.095545   -1.894031   -0.407196
     49          6           0       -6.147830   -2.682714   -0.304312
     50          6           0       -6.152774   -4.184746   -0.420111
     51          6           0       -7.438985   -2.022184    0.154167
     52          6           0       -8.158236   -1.155108   -0.846115
     53          6           0       -8.171697    0.409443   -0.540100
     54          6           0       -9.598591    1.021968   -0.675400
     55          6           0      -10.159909    0.948181   -2.112706
     56          6           0       -9.603967    2.446074   -0.121741
     57          6           0      -10.284400    2.530722    1.257723
     58          6           0      -11.401495    3.587185    1.433823
     59          6           0      -12.736650    3.050223    1.930773
     60          6           0      -13.513391    4.184354    2.592306
     61          6           0      -13.673086    2.453705    0.789361
     62          6           0      -14.538335    1.242208    1.233983
     63          6           0      -14.136438   -0.082919    0.508163
     64          6           0      -15.121160   -0.480184   -0.629346
     65          6           0      -16.170821   -1.498571   -0.180111
     66          6           0      -14.368590   -0.995046   -1.905333
     67          1           0        2.797862    3.265805   -1.049220
     68          1           0        9.339166    3.603394    0.085285
     69          1           0        9.361987   -2.735871    0.482253
     70          1           0        1.245737   -1.162140   -1.000772
     71          1           0        1.096312    1.790553   -0.074348
     72          1           0        0.369665    0.604135   -2.301170
     73          1           0        1.962859    1.154318   -2.746638
     74          1           0        0.649526    2.232175   -2.234862
     75          1           0        1.238786   -0.476221    1.873836
     76          1           0        0.711749   -1.883033    1.026756
     77          1           0       -0.749924    0.206525   -0.009801
     78          1           0       -0.886540    0.146481    1.771574
     79          1           0        4.661498    5.998754   -2.082653
     80          1           0        4.418752    6.471203   -0.309649
     81          1           0        3.226256    5.450766   -1.098696
     82          1           0        7.899128    7.932165   -0.642549
     83          1           0        6.238876    7.313395   -0.077072
     84          1           0        6.644611    7.186321   -1.748301
     85          1           0       11.197744    1.804587    0.646111
     86          1           0       11.062131   -0.885207   -0.096305
     87          1           0       12.022397    1.807754   -1.446209
     88          1           0       10.353311    2.067798   -2.005257
     89          1           0       11.026064    0.445665   -1.914811
     90          1           0       10.120504   -1.032549    2.381258
     91          1           0       10.833516    0.625970    2.536096
     92          1           0       13.096637   -0.469727    1.962538
     93          1           0       12.046019   -1.934966    1.919279
     94          1           0       12.238966   -0.981440    3.480467
     95          1           0        7.402618   -5.577025    1.507894
     96          1           0        8.481881   -5.048063    0.092086
     97          1           0        6.958445   -5.755214   -0.258839
     98          1           0        2.307224   -3.369671    1.286211
     99          1           0       -0.173919   -5.908367   -1.241705
    100          1           0        0.706801   -4.866686   -2.363066
    101          1           0       -0.617212   -4.132999   -1.347784
    102          1           0       -3.540742   -3.237106   -0.084403
    103          1           0       -3.593895   -2.541390   -1.719684
    104          1           0       -5.204812   -0.810975   -0.355153
    105          1           0       -5.229540   -4.710518   -0.663240
    106          1           0       -6.848531   -4.451482   -1.215180
    107          1           0       -6.449708   -4.587290    0.549177
    108          1           0       -7.246072   -1.558115    1.121816
    109          1           0       -8.225793   -2.763066    0.295496
    110          1           0       -9.189707   -1.487860   -0.960568
    111          1           0       -7.590104   -1.256259   -1.770033
    112          1           0       -7.480355    1.009195   -1.132749
    113          1           0       -7.895186    0.501537    0.509861
    114          1           0      -10.128637    0.277823   -0.081022
    115          1           0       -9.543950    1.414956   -2.881606
    116          1           0      -11.122737    1.458731   -2.117310
    117          1           0      -10.288562   -0.088827   -2.422780
    118          1           0      -10.024603    3.087543   -0.895719
    119          1           0       -8.601266    2.861270   -0.021718
    120          1           0       -9.500415    2.779183    1.974264
    121          1           0      -10.470750    1.512104    1.594921
    122          1           0      -11.562256    4.188238    0.539125
    123          1           0      -11.039905    4.313136    2.162630
    124          1           0      -12.657583    2.196205    2.602818
    125          1           0      -13.057011    4.416905    3.554791
    126          1           0      -14.519295    3.784239    2.721980
    127          1           0      -13.663769    5.028222    1.919010
    128          1           0      -13.013952    2.193146   -0.039098
    129          1           0      -14.423275    3.198974    0.527250
    130          1           0      -15.592924    1.375562    0.995321
    131          1           0      -14.381840    1.193855    2.312010
    132          1           0      -14.121036   -0.868493    1.264370
    133          1           0      -13.134131   -0.050187    0.082303
    134          1           0      -15.634661    0.423354   -0.957879
    135          1           0      -15.729519   -2.458432   -0.445981
    136          1           0      -17.066062   -1.378129   -0.789122
    137          1           0      -16.406086   -1.340948    0.871993
    138          1           0      -14.473125   -0.398930   -2.811657
    139          1           0      -14.792163   -1.947630   -2.223000
    140          1           0      -13.299230   -1.074385   -1.707966
 ---------------------------------------------------------------------

 SCF Done:  E(RPBE1PBE) =  -3005.33829280     A.U. after   15 cycles

 Excitation energies and oscillator strengths:

 Excited State   1:      Singlet-A      1.8539 eV  668.76 nm  f=0.3691  <S**2>=0.000
     245 -> 248       -0.17697
     246 -> 247        0.69135
     246 <- 247       -0.10704
 This state for optimization and/or second-order correction.
 Total Energy, E(TD-HF/TD-DFT) =  -3005.27016164
 Copying the excited state density for this state as the 1-particle RhoCI density.

 Excited State   2:      Singlet-A      2.1504 eV  576.58 nm  f=0.1393  <S**2>=0.000
     245 -> 247        0.66070
     246 -> 248        0.22732

 Excited State   3:      Singlet-A      2.7160 eV  456.49 nm  f=0.0001  <S**2>=0.000
     243 -> 247        0.67710
     243 -> 249       -0.17539

 Excited State   4:      Singlet-A      2.7470 eV  451.34 nm  f=0.0103  <S**2>=0.000
     244 -> 247        0.68981

 Excited State   5:      Singlet-A      2.9540 eV  419.72 nm  f=0.0133  <S**2>=0.000
     242 -> 247        0.69066

 The electronic state is 1-A.
 Alpha  occ. eigenvalues --  -46.91874 -19.26985 -19.24073 -19.20583 -19.20547
 Alpha  occ. eigenvalues --  -19.19170 -19.17873 -14.41905 -14.41525 -14.39577
 Alpha  occ. eigenvalues --  -14.38330 -10.37378 -10.35958 -10.31906 -10.31012
 Alpha  occ. eigenvalues --  -10.29957 -10.28909 -10.28908 -10.28733 -10.28418
 Alpha  occ. eigenvalues --  -10.28401 -10.28182 -10.27821 -10.27666 -10.27572
 Alpha  occ. eigenvalues --  -10.26435 -10.26279 -10.26127 -10.25804 -10.25773
 Alpha  occ. eigenvalues --  -10.25754 -10.25549 -10.25410 -10.25345 -10.25300
 Alpha  occ. eigenvalues --  -10.24856 -10.24746 -10.24474 -10.24350 -10.24090
 Alpha  occ. eigenvalues --  -10.23821 -10.23778 -10.23616 -10.23358 -10.23263
 Alpha  occ. eigenvalues --  -10.23248 -10.23181 -10.23051 -10.23020 -10.22970
 Alpha  occ. eigenvalues --  -10.22921 -10.22910 -10.22909 -10.22893 -10.22631
 Alpha  occ. eigenvalues --  -10.22514 -10.22380 -10.22340 -10.22299 -10.22248
 Alpha  occ. eigenvalues --  -10.22124 -10.22099 -10.22044 -10.21833 -10.21820
 Alpha  occ. eigenvalues --  -10.21695  -3.14014  -1.86843  -1.86405  -1.86228
 Alpha  occ. eigenvalues --   -1.11276  -1.10762  -1.05674  -1.03302  -1.02231
 Alpha  occ. eigenvalues --   -1.01482  -0.98845  -0.98270  -0.96444  -0.94503
 Alpha  occ. eigenvalues --   -0.86645  -0.85740  -0.85177  -0.83986  -0.83518
 Alpha  occ. eigenvalues --   -0.82955  -0.82760  -0.81955  -0.81736  -0.80906
 Alpha  occ. eigenvalues --   -0.80509  -0.80184  -0.78812  -0.77827  -0.77708
 Alpha  occ. eigenvalues --   -0.76924  -0.76414  -0.75711  -0.75267  -0.74498
 Alpha  occ. eigenvalues --   -0.74241  -0.73050  -0.72275  -0.71397  -0.70178
 Alpha  occ. eigenvalues --   -0.69828  -0.69391  -0.69376  -0.69242  -0.68225
 Alpha  occ. eigenvalues --   -0.68165  -0.66966  -0.66048  -0.64807  -0.62917
 Alpha  occ. eigenvalues --   -0.62476  -0.62348  -0.61342  -0.60710  -0.60129
 Alpha  occ. eigenvalues --   -0.59791  -0.59320  -0.59270  -0.58150  -0.57988
 Alpha  occ. eigenvalues --   -0.57722  -0.57204  -0.56569  -0.55829  -0.54966
 Alpha  occ. eigenvalues --   -0.54354  -0.54272  -0.53435  -0.53305  -0.52986
 Alpha  occ. eigenvalues --   -0.52146  -0.51622  -0.50687  -0.50278  -0.50171
 Alpha  occ. eigenvalues --   -0.49680  -0.49368  -0.49049  -0.48822  -0.48317
 Alpha  occ. eigenvalues --   -0.48089  -0.47911  -0.47620  -0.47460  -0.47376
 Alpha  occ. eigenvalues --   -0.47337  -0.47173  -0.47163  -0.46902  -0.46628
 Alpha  occ. eigenvalues --   -0.46115  -0.46038  -0.45749  -0.45616  -0.45539
 Alpha  occ. eigenvalues --   -0.45369  -0.45179  -0.44923  -0.44686  -0.44616
 Alpha  occ. eigenvalues --   -0.44236  -0.44101  -0.43971  -0.43728  -0.43516
 Alpha  occ. eigenvalues --   -0.43420  -0.43165  -0.43019  -0.42602  -0.42133
 Alpha  occ. eigenvalues --   -0.42050  -0.41933  -0.41859  -0.41680  -0.41263
 Alpha  occ. eigenvalues --   -0.41230  -0.41169  -0.40880  -0.40641  -0.40418
 Alpha  occ. eigenvalues --   -0.40149  -0.40069  -0.40029  -0.39672  -0.39634
 Alpha  occ. eigenvalues --   -0.39138  -0.39122  -0.38822  -0.38664  -0.38585
 Alpha  occ. eigenvalues --   -0.38449  -0.38255  -0.38077  -0.37789  -0.37772
 Alpha  occ. eigenvalues --   -0.37326  -0.37111  -0.37042  -0.36947  -0.36685
 Alpha  occ. eigenvalues --   -0.36641  -0.36311  -0.35958  -0.35803  -0.35719
 Alpha  occ. eigenvalues --   -0.35611  -0.35401  -0.35171  -0.35078  -0.34925
 Alpha  occ. eigenvalues --   -0.34802  -0.34491  -0.34045  -0.33807  -0.33677
 Alpha  occ. eigenvalues --   -0.33218  -0.33102  -0.32583  -0.32511  -0.32350
 Alpha  occ. eigenvalues --   -0.32296  -0.31857  -0.31776  -0.31740  -0.31178
 Alpha  occ. eigenvalues --   -0.30587  -0.30315  -0.30033  -0.29572  -0.29549
 Alpha  occ. eigenvalues --   -0.29257  -0.29082  -0.28404  -0.26892  -0.25750
 Alpha  occ. eigenvalues --   -0.25671  -0.25150  -0.24802  -0.24219  -0.20766
 Alpha  occ. eigenvalues --   -0.19039
 Alpha virt. eigenvalues --   -0.11436  -0.05218  -0.03864  -0.02050  -0.01057
 Alpha virt. eigenvalues --   -0.00282   0.00864   0.01330   0.01470   0.03226
 Alpha virt. eigenvalues --    0.04254   0.04641   0.04709   0.05158   0.05755

 Mulliken charges:
               1
     1  Mg   0.972679
     2  C   -0.083958
     3  C   -0.059903
     4  C   -0.049023
     5  C   -0.071185
     6  N   -0.364456
     7  C    0.036238
     8  C   -0.063390
     9  C   -0.125336
    10  C    0.068211
    11  C   -0.008407
    12  C   -0.068230
    13  C    0.040452
    14  C    0.239037
    15  O   -0.271261
    16  O   -0.362786
    17  N   -0.586459
    18  C    0.203199
    19  C   -0.189007
    20  C   -0.149559
    21  C    0.216552
    22  C    0.039974
    23  C    0.058470
    24  O   -0.229046
    25  C   -0.017018
    26  N   -0.395374
    27  C    0.070813
    28  C   -0.121344
    29  C   -0.113325
    30  C    0.120982
    31  C    0.024886
    32  C   -0.029524
    33  C   -0.051052
    34  N   -0.461358
    35  C    0.091171
    36  C   -0.165768
    37  C   -0.042179
    38  C    0.209875
    39  C    0.077747
    40  C    0.124492
    41  O   -0.266796
    42  C   -0.094646
    43  C    0.267751
    44  O   -0.204208
    45  O   -0.391743
    46  C    0.109117
    47  C    0.225018
    48  C   -0.151243
    49  C   -0.213675
    50  C    0.013806
    51  C    0.025378
    52  C   -0.057265
    53  C   -0.023881
    54  C   -0.258806
    55  C   -0.015260
    56  C    0.028152
    57  C   -0.027212
    58  C    0.028979
    59  C   -0.230103
    60  C   -0.005678
    61  C   -0.022858
    62  C   -0.052877
    63  C   -0.010334
    64  C   -0.259105
    65  C   -0.003955
    66  C   -0.027265
    67  H   -0.003417
    68  H    0.043058
    69  H   -0.001061
    70  H    0.060903
    71  H    0.052074
    72  H    0.035991
    73  H    0.056474
    74  H    0.039013
    75  H    0.031506
    76  H    0.076118
    77  H    0.047035
    78  H    0.082560
    79  H    0.081880
    80  H    0.058603
    81  H    0.049629
    82  H    0.061675
    83  H    0.047278
    84  H    0.060103
    85  H    0.039786
    86  H    0.031386
    87  H    0.045530
    88  H    0.055631
    89  H    0.035656
    90  H    0.037682
    91  H    0.040658
    92  H    0.046537
    93  H    0.039707
    94  H    0.054530
    95  H    0.075734
    96  H    0.032373
    97  H    0.070875
    98  H    0.092172
    99  H    0.072146
   100  H    0.059180
   101  H    0.055644
   102  H    0.082167
   103  H    0.063795
   104  H    0.033906
   105  H    0.032345
   106  H    0.052485
   107  H    0.059334
   108  H    0.053819
   109  H    0.014124
   110  H    0.037320
   111  H    0.039861
   112  H    0.031176
   113  H    0.020235
   114  H    0.040485
   115  H    0.031375
   116  H    0.042494
   117  H    0.034373
   118  H    0.016342
   119  H    0.020968
   120  H    0.018555
   121  H    0.022276
   122  H    0.025505
   123  H    0.019640
   124  H    0.028429
   125  H    0.043303
   126  H    0.023027
   127  H    0.036494
   128  H    0.036511
   129  H    0.023680
   130  H    0.034261
   131  H    0.028608
   132  H    0.021238
   133  H    0.028083
   134  H    0.035717
   135  H    0.038385
   136  H    0.036051
   137  H    0.041250
   138  H    0.033502
   139  H    0.022630
   140  H    0.034485
 Sum of Mulliken charges =  -0.00000

 Dipole moment (field-independent basis, Debye):
    X=             -3.6280    Y=              4.1173    Z=             -0.3024  Tot=              5.4960
 Quadrupole moment (field-independent basis, Debye-Ang):
   XX=           -377.9741   YY=           -422.4556   ZZ=           -403.5029
   XY=              1.3863   XZ=             13.3438   YZ=              3.8489

 Normal termination of Gaussian 16 at Sat Apr 30 08:25:03 2022.
