 Gaussian 16, Revision A.03,
 Gaussian 16:  ES64L-G16RevA.03 25-Dec-2016

 --------------------------------
 #p wB97XD/Def2SVP td=(nstates=5)
 --------------------------------

 ---------------------------------------------------
 step_651_chromophore_4 TDDFT with wB97XD functional
 ---------------------------------------------------
 Symbolic Z-matrix:
 Charge =  0 Multiplicity = 1

                         Standard orientation:
 ---------------------------------------------------------------------
 Center     Atomic      Atomic             Coordinates (Angstroms)
 Number     Number       Type             X           Y           Z
 ---------------------------------------------------------------------
      1         12           0        6.105804    0.548077    0.335473
      2          6           0        3.675513   -2.036802    0.296696
      3          6           0        3.588165    2.618623   -0.661846
      4          6           0        8.515261    2.887201    0.050650
      5          6           0        8.627934   -1.931713    0.395737
      6          7           0        3.899402    0.272093   -0.148587
      7          6           0        3.064769   -0.795989    0.061931
      8          6           0        1.595016   -0.495870   -0.212235
      9          6           0        1.643524    1.023647   -0.622411
     10          6           0        3.112930    1.325002   -0.503424
     11          6           0        1.163731    1.295494   -2.019679
     12          6           0        0.703109   -0.794728    0.979538
     13          6           0       -0.731250   -0.440514    0.865965
     14          6           0       -1.674834   -1.596944    0.573916
     15          8           0       -1.649544   -2.706943    1.122968
     16          8           0       -2.669195   -1.223770   -0.285057
     17          7           0        6.024994    2.498627   -0.041950
     18          6           0        4.915255    3.192523   -0.579983
     19          6           0        5.258090    4.632954   -0.622823
     20          6           0        6.723233    4.714795   -0.387884
     21          6           0        7.181062    3.338459    0.022108
     22          6           0        4.279673    5.730819   -1.097001
     23          6           0        7.702152    5.890201   -0.461474
     24          8           0        8.905098    5.818217   -0.376720
     25          6           0        7.088810    7.211962   -0.753245
     26          7           0        8.193417    0.475849    0.173299
     27          6           0        8.999598    1.592941    0.214143
     28          6           0       10.510896    1.213034    0.039296
     29          6           0       10.475022   -0.234484    0.551993
     30          6           0        9.005448   -0.600276    0.332339
     31          6           0       11.004462    1.417868   -1.421904
     32          6           0       10.880753   -0.336913    2.025925
     33          6           0       12.227668   -0.970055    2.390358
     34          7           0        6.239786   -1.637081    0.379157
     35          6           0        7.319647   -2.522877    0.394858
     36          6           0        6.811917   -3.895584    0.505315
     37          6           0        5.376692   -3.700033    0.468609
     38          6           0        5.067658   -2.314131    0.371893
     39          6           0        7.478656   -5.169449    0.500580
     40          6           0        4.158585   -4.431923    0.478506
     41          8           0        3.987423   -5.678595    0.544488
     42          6           0        3.007865   -3.425417    0.452302
     43          6           0        2.230280   -3.679849   -0.821159
     44          8           0        2.605226   -3.516965   -1.934040
     45          8           0        1.000580   -4.226258   -0.425106
     46          6           0        0.167166   -4.887351   -1.416551
     47          6           0       -3.641849   -2.313449   -0.654960
     48          6           0       -5.095545   -1.894031   -0.407196
     49          6           0       -6.147830   -2.682714   -0.304312
     50          6           0       -6.152774   -4.184746   -0.420111
     51          6           0       -7.438985   -2.022184    0.154167
     52          6           0       -8.158236   -1.155108   -0.846115
     53          6           0       -8.171697    0.409443   -0.540100
     54          6           0       -9.598591    1.021968   -0.675400
     55          6           0      -10.159909    0.948181   -2.112706
     56          6           0       -9.603967    2.446074   -0.121741
     57          6           0      -10.284400    2.530722    1.257723
     58          6           0      -11.401495    3.587185    1.433823
     59          6           0      -12.736650    3.050223    1.930773
     60          6           0      -13.513391    4.184354    2.592306
     61          6           0      -13.673086    2.453705    0.789361
     62          6           0      -14.538335    1.242208    1.233983
     63          6           0      -14.136438   -0.082919    0.508163
     64          6           0      -15.121160   -0.480184   -0.629346
     65          6           0      -16.170821   -1.498571   -0.180111
     66          6           0      -14.368590   -0.995046   -1.905333
     67          1           0        2.797862    3.265805   -1.049220
     68          1           0        9.339166    3.603394    0.085285
     69          1           0        9.361987   -2.735871    0.482253
     70          1           0        1.245737   -1.162140   -1.000772
     71          1           0        1.096312    1.790553   -0.074348
     72          1           0        0.369665    0.604135   -2.301170
     73          1           0        1.962859    1.154318   -2.746638
     74          1           0        0.649526    2.232175   -2.234862
     75          1           0        1.238786   -0.476221    1.873836
     76          1           0        0.711749   -1.883033    1.026756
     77          1           0       -0.749924    0.206525   -0.009801
     78          1           0       -0.886540    0.146481    1.771574
     79          1           0        4.661498    5.998754   -2.082653
     80          1           0        4.418752    6.471203   -0.309649
     81          1           0        3.226256    5.450766   -1.098696
     82          1           0        7.899128    7.932165   -0.642549
     83          1           0        6.238876    7.313395   -0.077072
     84          1           0        6.644611    7.186321   -1.748301
     85          1           0       11.197744    1.804587    0.646111
     86          1           0       11.062131   -0.885207   -0.096305
     87          1           0       12.022397    1.807754   -1.446209
     88          1           0       10.353311    2.067798   -2.005257
     89          1           0       11.026064    0.445665   -1.914811
     90          1           0       10.120504   -1.032549    2.381258
     91          1           0       10.833516    0.625970    2.536096
     92          1           0       13.096637   -0.469727    1.962538
     93          1           0       12.046019   -1.934966    1.919279
     94          1           0       12.238966   -0.981440    3.480467
     95          1           0        7.402618   -5.577025    1.507894
     96          1           0        8.481881   -5.048063    0.092086
     97          1           0        6.958445   -5.755214   -0.258839
     98          1           0        2.307224   -3.369671    1.286211
     99          1           0       -0.173919   -5.908367   -1.241705
    100          1           0        0.706801   -4.866686   -2.363066
    101          1           0       -0.617212   -4.132999   -1.347784
    102          1           0       -3.540742   -3.237106   -0.084403
    103          1           0       -3.593895   -2.541390   -1.719684
    104          1           0       -5.204812   -0.810975   -0.355153
    105          1           0       -5.229540   -4.710518   -0.663240
    106          1           0       -6.848531   -4.451482   -1.215180
    107          1           0       -6.449708   -4.587290    0.549177
    108          1           0       -7.246072   -1.558115    1.121816
    109          1           0       -8.225793   -2.763066    0.295496
    110          1           0       -9.189707   -1.487860   -0.960568
    111          1           0       -7.590104   -1.256259   -1.770033
    112          1           0       -7.480355    1.009195   -1.132749
    113          1           0       -7.895186    0.501537    0.509861
    114          1           0      -10.128637    0.277823   -0.081022
    115          1           0       -9.543950    1.414956   -2.881606
    116          1           0      -11.122737    1.458731   -2.117310
    117          1           0      -10.288562   -0.088827   -2.422780
    118          1           0      -10.024603    3.087543   -0.895719
    119          1           0       -8.601266    2.861270   -0.021718
    120          1           0       -9.500415    2.779183    1.974264
    121          1           0      -10.470750    1.512104    1.594921
    122          1           0      -11.562256    4.188238    0.539125
    123          1           0      -11.039905    4.313136    2.162630
    124          1           0      -12.657583    2.196205    2.602818
    125          1           0      -13.057011    4.416905    3.554791
    126          1           0      -14.519295    3.784239    2.721980
    127          1           0      -13.663769    5.028222    1.919010
    128          1           0      -13.013952    2.193146   -0.039098
    129          1           0      -14.423275    3.198974    0.527250
    130          1           0      -15.592924    1.375562    0.995321
    131          1           0      -14.381840    1.193855    2.312010
    132          1           0      -14.121036   -0.868493    1.264370
    133          1           0      -13.134131   -0.050187    0.082303
    134          1           0      -15.634661    0.423354   -0.957879
    135          1           0      -15.729519   -2.458432   -0.445981
    136          1           0      -17.066062   -1.378129   -0.789122
    137          1           0      -16.406086   -1.340948    0.871993
    138          1           0      -14.473125   -0.398930   -2.811657
    139          1           0      -14.792163   -1.947630   -2.223000
    140          1           0      -13.299230   -1.074385   -1.707966
 ---------------------------------------------------------------------

 SCF Done:  E(RwB97XD) =  -3007.84627011     A.U. after   19 cycles

 Excitation energies and oscillator strengths:

 Excited State   1:      Singlet-A      1.6288 eV  761.20 nm  f=0.3827  <S**2>=0.000
     245 -> 248       -0.18941
     246 -> 247        0.68240
     245 <- 248       -0.11905
 This state for optimization and/or second-order correction.
 Total Energy, E(TD-HF/TD-DFT) =  -3007.78641295
 Copying the excited state density for this state as the 1-particle RhoCI density.

 Excited State   2:      Singlet-A      2.0812 eV  595.74 nm  f=0.1449  <S**2>=0.000
     245 -> 247        0.65062
     246 -> 248        0.25574

 Excited State   3:      Singlet-A      3.1102 eV  398.64 nm  f=0.0050  <S**2>=0.000
     243 -> 247       -0.16396
     244 -> 247        0.66264

 Excited State   4:      Singlet-A      3.2710 eV  379.04 nm  f=0.0003  <S**2>=0.000
     242 -> 247        0.54793
     242 -> 249       -0.33318
     242 -> 250       -0.19039
     243 -> 247        0.17256

 Excited State   5:      Singlet-A      3.3126 eV  374.28 nm  f=0.0035  <S**2>=0.000
     242 -> 247       -0.16619
     243 -> 247        0.63098
     244 -> 247        0.15133
     246 -> 248       -0.16194

 The electronic state is 1-A.
 Alpha  occ. eigenvalues --  -46.94799 -19.31525 -19.28597 -19.25264 -19.25219
 Alpha  occ. eigenvalues --  -19.24059 -19.22614 -14.47030 -14.46623 -14.44543
 Alpha  occ. eigenvalues --  -14.43179 -10.44142 -10.42776 -10.38828 -10.37830
 Alpha  occ. eigenvalues --  -10.36433 -10.35368 -10.35190 -10.35135 -10.34786
 Alpha  occ. eigenvalues --  -10.34783 -10.34353 -10.34309 -10.34250 -10.33716
 Alpha  occ. eigenvalues --  -10.32697 -10.32493 -10.32403 -10.32214 -10.32111
 Alpha  occ. eigenvalues --  -10.32086 -10.31965 -10.31889 -10.31791 -10.31576
 Alpha  occ. eigenvalues --  -10.31315 -10.30933 -10.30800 -10.30694 -10.30450
 Alpha  occ. eigenvalues --  -10.30248 -10.30223 -10.30027 -10.29633 -10.29562
 Alpha  occ. eigenvalues --  -10.29560 -10.29528 -10.29515 -10.29393 -10.29345
 Alpha  occ. eigenvalues --  -10.29331 -10.29287 -10.29281 -10.29253 -10.28984
 Alpha  occ. eigenvalues --  -10.28875 -10.28761 -10.28710 -10.28597 -10.28483
 Alpha  occ. eigenvalues --  -10.28481 -10.28479 -10.28451 -10.28267 -10.28220
 Alpha  occ. eigenvalues --  -10.28140  -3.20805  -1.94383  -1.93946  -1.93760
 Alpha  occ. eigenvalues --   -1.18641  -1.18149  -1.13227  -1.10643  -1.09560
 Alpha  occ. eigenvalues --   -1.08929  -1.06261  -1.05663  -1.03709  -1.01997
 Alpha  occ. eigenvalues --   -0.94227  -0.93361  -0.92830  -0.91654  -0.91074
 Alpha  occ. eigenvalues --   -0.90611  -0.90379  -0.89576  -0.89396  -0.88468
 Alpha  occ. eigenvalues --   -0.88287  -0.87822  -0.86471  -0.85457  -0.85304
 Alpha  occ. eigenvalues --   -0.84577  -0.84163  -0.83393  -0.82897  -0.82146
 Alpha  occ. eigenvalues --   -0.81862  -0.80652  -0.79949  -0.79029  -0.77838
 Alpha  occ. eigenvalues --   -0.77426  -0.77080  -0.76979  -0.76907  -0.75885
 Alpha  occ. eigenvalues --   -0.75782  -0.74459  -0.73642  -0.72363  -0.70530
 Alpha  occ. eigenvalues --   -0.70059  -0.69847  -0.68884  -0.68342  -0.67702
 Alpha  occ. eigenvalues --   -0.67401  -0.66814  -0.66760  -0.65599  -0.65545
 Alpha  occ. eigenvalues --   -0.65276  -0.64836  -0.64225  -0.63231  -0.62452
 Alpha  occ. eigenvalues --   -0.61832  -0.61723  -0.60854  -0.60794  -0.60362
 Alpha  occ. eigenvalues --   -0.59686  -0.59018  -0.58091  -0.57677  -0.57618
 Alpha  occ. eigenvalues --   -0.57075  -0.56723  -0.56438  -0.56231  -0.55709
 Alpha  occ. eigenvalues --   -0.55432  -0.55320  -0.55049  -0.54964  -0.54861
 Alpha  occ. eigenvalues --   -0.54751  -0.54606  -0.54480  -0.54194  -0.53993
 Alpha  occ. eigenvalues --   -0.53469  -0.53358  -0.53091  -0.52949  -0.52833
 Alpha  occ. eigenvalues --   -0.52693  -0.52496  -0.52280  -0.52167  -0.51961
 Alpha  occ. eigenvalues --   -0.51580  -0.51417  -0.51342  -0.51050  -0.50936
 Alpha  occ. eigenvalues --   -0.50654  -0.50443  -0.50298  -0.49837  -0.49371
 Alpha  occ. eigenvalues --   -0.49342  -0.49191  -0.49101  -0.48934  -0.48499
 Alpha  occ. eigenvalues --   -0.48480  -0.48422  -0.48082  -0.47865  -0.47648
 Alpha  occ. eigenvalues --   -0.47312  -0.47234  -0.47221  -0.46862  -0.46744
 Alpha  occ. eigenvalues --   -0.46348  -0.46247  -0.45994  -0.45776  -0.45708
 Alpha  occ. eigenvalues --   -0.45653  -0.45367  -0.45189  -0.44932  -0.44900
 Alpha  occ. eigenvalues --   -0.44406  -0.44254  -0.44156  -0.44077  -0.43887
 Alpha  occ. eigenvalues --   -0.43770  -0.43355  -0.42981  -0.42900  -0.42810
 Alpha  occ. eigenvalues --   -0.42667  -0.42469  -0.42221  -0.42146  -0.41947
 Alpha  occ. eigenvalues --   -0.41842  -0.41496  -0.41098  -0.40818  -0.40689
 Alpha  occ. eigenvalues --   -0.40147  -0.40084  -0.39626  -0.39485  -0.39391
 Alpha  occ. eigenvalues --   -0.39204  -0.38867  -0.38780  -0.38676  -0.38197
 Alpha  occ. eigenvalues --   -0.37596  -0.37396  -0.36973  -0.36669  -0.36516
 Alpha  occ. eigenvalues --   -0.36118  -0.35943  -0.35026  -0.33459  -0.32949
 Alpha  occ. eigenvalues --   -0.32458  -0.31909  -0.31803  -0.30607  -0.25701
 Alpha  occ. eigenvalues --   -0.23218
 Alpha virt. eigenvalues --   -0.07385   0.00230   0.02378   0.04412   0.05602
 Alpha virt. eigenvalues --    0.05804   0.07533   0.08070   0.08296   0.09787
 Alpha virt. eigenvalues --    0.11041   0.11156   0.11282   0.11843   0.12453

 Mulliken charges:
               1
     1  Mg   0.961930
     2  C   -0.085549
     3  C   -0.072920
     4  C   -0.059469
     5  C   -0.085497
     6  N   -0.329201
     7  C    0.002462
     8  C   -0.033355
     9  C   -0.099719
    10  C    0.057619
    11  C   -0.003812
    12  C   -0.048864
    13  C    0.058136
    14  C    0.228804
    15  O   -0.267851
    16  O   -0.362018
    17  N   -0.561501
    18  C    0.194765
    19  C   -0.181429
    20  C   -0.143713
    21  C    0.204869
    22  C    0.056155
    23  C    0.056159
    24  O   -0.222648
    25  C   -0.001483
    26  N   -0.364785
    27  C    0.058582
    28  C   -0.096094
    29  C   -0.086307
    30  C    0.111761
    31  C    0.032756
    32  C   -0.018470
    33  C   -0.032506
    34  N   -0.423684
    35  C    0.074725
    36  C   -0.158123
    37  C   -0.036388
    38  C    0.186148
    39  C    0.087916
    40  C    0.105902
    41  O   -0.256892
    42  C   -0.055054
    43  C    0.242293
    44  O   -0.198597
    45  O   -0.389469
    46  C    0.127319
    47  C    0.241269
    48  C   -0.165632
    49  C   -0.194095
    50  C    0.027091
    51  C    0.040542
    52  C   -0.039219
    53  C   -0.010963
    54  C   -0.219526
    55  C   -0.001813
    56  C    0.038534
    57  C   -0.011993
    58  C    0.044222
    59  C   -0.199110
    60  C    0.008996
    61  C   -0.004963
    62  C   -0.034129
    63  C    0.009144
    64  C   -0.231925
    65  C    0.010190
    66  C   -0.013510
    67  H   -0.013061
    68  H    0.039398
    69  H   -0.007390
    70  H    0.047384
    71  H    0.043203
    72  H    0.030244
    73  H    0.051075
    74  H    0.034686
    75  H    0.025626
    76  H    0.052637
    77  H    0.035363
    78  H    0.079218
    79  H    0.076373
    80  H    0.051828
    81  H    0.047252
    82  H    0.061107
    83  H    0.038968
    84  H    0.053782
    85  H    0.030564
    86  H    0.021247
    87  H    0.040943
    88  H    0.049455
    89  H    0.029212
    90  H    0.026591
    91  H    0.032660
    92  H    0.040469
    93  H    0.031290
    94  H    0.049414
    95  H    0.071564
    96  H    0.026639
    97  H    0.066142
    98  H    0.088130
    99  H    0.068625
   100  H    0.055147
   101  H    0.049077
   102  H    0.074899
   103  H    0.059076
   104  H    0.030050
   105  H    0.027831
   106  H    0.046472
   107  H    0.053858
   108  H    0.046516
   109  H    0.007107
   110  H    0.028315
   111  H    0.029700
   112  H    0.022544
   113  H    0.007493
   114  H    0.022187
   115  H    0.025550
   116  H    0.034602
   117  H    0.027638
   118  H    0.007156
   119  H    0.013702
   120  H    0.011520
   121  H    0.012127
   122  H    0.016509
   123  H    0.011876
   124  H    0.014786
   125  H    0.037945
   126  H    0.014474
   127  H    0.029840
   128  H    0.019442
   129  H    0.014562
   130  H    0.024928
   131  H    0.019276
   132  H    0.013407
   133  H    0.012435
   134  H    0.023213
   135  H    0.030560
   136  H    0.030616
   137  H    0.035071
   138  H    0.028252
   139  H    0.015840
   140  H    0.027746
 Sum of Mulliken charges =  -0.00000

 Dipole moment (field-independent basis, Debye):
    X=             -3.6925    Y=              4.4454    Z=             -0.3300  Tot=              5.7883
 Quadrupole moment (field-independent basis, Debye-Ang):
   XX=           -378.8530   YY=           -420.4278   ZZ=           -403.1504
   XY=              3.7467   XZ=             13.2094   YZ=              3.8795

 Normal termination of Gaussian 16 at Sat Apr 30 08:45:19 2022.
