 Gaussian 16, Revision A.03,
 Gaussian 16:  ES64L-G16RevA.03 25-Dec-2016

 --------------------
 #p ZINDO=(nstates=5)
 --------------------

 ----------------------------
 step_651_chromophore_4 ZINDO
 ----------------------------
 Symbolic Z-matrix:
 Charge =  0 Multiplicity = 1

                         Standard orientation:
 ---------------------------------------------------------------------
 Center     Atomic      Atomic             Coordinates (Angstroms)
 Number     Number       Type             X           Y           Z
 ---------------------------------------------------------------------
      1         12           0        6.105804    0.548077    0.335473
      2          6           0        3.675513   -2.036802    0.296696
      3          6           0        3.588165    2.618623   -0.661846
      4          6           0        8.515261    2.887201    0.050650
      5          6           0        8.627934   -1.931713    0.395737
      6          7           0        3.899402    0.272093   -0.148587
      7          6           0        3.064769   -0.795989    0.061931
      8          6           0        1.595016   -0.495870   -0.212235
      9          6           0        1.643524    1.023647   -0.622411
     10          6           0        3.112930    1.325002   -0.503424
     11          6           0        1.163731    1.295494   -2.019679
     12          6           0        0.703109   -0.794728    0.979538
     13          6           0       -0.731250   -0.440514    0.865965
     14          6           0       -1.674834   -1.596944    0.573916
     15          8           0       -1.649544   -2.706943    1.122968
     16          8           0       -2.669195   -1.223770   -0.285057
     17          7           0        6.024994    2.498627   -0.041950
     18          6           0        4.915255    3.192523   -0.579983
     19          6           0        5.258090    4.632954   -0.622823
     20          6           0        6.723233    4.714795   -0.387884
     21          6           0        7.181062    3.338459    0.022108
     22          6           0        4.279673    5.730819   -1.097001
     23          6           0        7.702152    5.890201   -0.461474
     24          8           0        8.905098    5.818217   -0.376720
     25          6           0        7.088810    7.211962   -0.753245
     26          7           0        8.193417    0.475849    0.173299
     27          6           0        8.999598    1.592941    0.214143
     28          6           0       10.510896    1.213034    0.039296
     29          6           0       10.475022   -0.234484    0.551993
     30          6           0        9.005448   -0.600276    0.332339
     31          6           0       11.004462    1.417868   -1.421904
     32          6           0       10.880753   -0.336913    2.025925
     33          6           0       12.227668   -0.970055    2.390358
     34          7           0        6.239786   -1.637081    0.379157
     35          6           0        7.319647   -2.522877    0.394858
     36          6           0        6.811917   -3.895584    0.505315
     37          6           0        5.376692   -3.700033    0.468609
     38          6           0        5.067658   -2.314131    0.371893
     39          6           0        7.478656   -5.169449    0.500580
     40          6           0        4.158585   -4.431923    0.478506
     41          8           0        3.987423   -5.678595    0.544488
     42          6           0        3.007865   -3.425417    0.452302
     43          6           0        2.230280   -3.679849   -0.821159
     44          8           0        2.605226   -3.516965   -1.934040
     45          8           0        1.000580   -4.226258   -0.425106
     46          6           0        0.167166   -4.887351   -1.416551
     47          6           0       -3.641849   -2.313449   -0.654960
     48          6           0       -5.095545   -1.894031   -0.407196
     49          6           0       -6.147830   -2.682714   -0.304312
     50          6           0       -6.152774   -4.184746   -0.420111
     51          6           0       -7.438985   -2.022184    0.154167
     52          6           0       -8.158236   -1.155108   -0.846115
     53          6           0       -8.171697    0.409443   -0.540100
     54          6           0       -9.598591    1.021968   -0.675400
     55          6           0      -10.159909    0.948181   -2.112706
     56          6           0       -9.603967    2.446074   -0.121741
     57          6           0      -10.284400    2.530722    1.257723
     58          6           0      -11.401495    3.587185    1.433823
     59          6           0      -12.736650    3.050223    1.930773
     60          6           0      -13.513391    4.184354    2.592306
     61          6           0      -13.673086    2.453705    0.789361
     62          6           0      -14.538335    1.242208    1.233983
     63          6           0      -14.136438   -0.082919    0.508163
     64          6           0      -15.121160   -0.480184   -0.629346
     65          6           0      -16.170821   -1.498571   -0.180111
     66          6           0      -14.368590   -0.995046   -1.905333
     67          1           0        2.797862    3.265805   -1.049220
     68          1           0        9.339166    3.603394    0.085285
     69          1           0        9.361987   -2.735871    0.482253
     70          1           0        1.245737   -1.162140   -1.000772
     71          1           0        1.096312    1.790553   -0.074348
     72          1           0        0.369665    0.604135   -2.301170
     73          1           0        1.962859    1.154318   -2.746638
     74          1           0        0.649526    2.232175   -2.234862
     75          1           0        1.238786   -0.476221    1.873836
     76          1           0        0.711749   -1.883033    1.026756
     77          1           0       -0.749924    0.206525   -0.009801
     78          1           0       -0.886540    0.146481    1.771574
     79          1           0        4.661498    5.998754   -2.082653
     80          1           0        4.418752    6.471203   -0.309649
     81          1           0        3.226256    5.450766   -1.098696
     82          1           0        7.899128    7.932165   -0.642549
     83          1           0        6.238876    7.313395   -0.077072
     84          1           0        6.644611    7.186321   -1.748301
     85          1           0       11.197744    1.804587    0.646111
     86          1           0       11.062131   -0.885207   -0.096305
     87          1           0       12.022397    1.807754   -1.446209
     88          1           0       10.353311    2.067798   -2.005257
     89          1           0       11.026064    0.445665   -1.914811
     90          1           0       10.120504   -1.032549    2.381258
     91          1           0       10.833516    0.625970    2.536096
     92          1           0       13.096637   -0.469727    1.962538
     93          1           0       12.046019   -1.934966    1.919279
     94          1           0       12.238966   -0.981440    3.480467
     95          1           0        7.402618   -5.577025    1.507894
     96          1           0        8.481881   -5.048063    0.092086
     97          1           0        6.958445   -5.755214   -0.258839
     98          1           0        2.307224   -3.369671    1.286211
     99          1           0       -0.173919   -5.908367   -1.241705
    100          1           0        0.706801   -4.866686   -2.363066
    101          1           0       -0.617212   -4.132999   -1.347784
    102          1           0       -3.540742   -3.237106   -0.084403
    103          1           0       -3.593895   -2.541390   -1.719684
    104          1           0       -5.204812   -0.810975   -0.355153
    105          1           0       -5.229540   -4.710518   -0.663240
    106          1           0       -6.848531   -4.451482   -1.215180
    107          1           0       -6.449708   -4.587290    0.549177
    108          1           0       -7.246072   -1.558115    1.121816
    109          1           0       -8.225793   -2.763066    0.295496
    110          1           0       -9.189707   -1.487860   -0.960568
    111          1           0       -7.590104   -1.256259   -1.770033
    112          1           0       -7.480355    1.009195   -1.132749
    113          1           0       -7.895186    0.501537    0.509861
    114          1           0      -10.128637    0.277823   -0.081022
    115          1           0       -9.543950    1.414956   -2.881606
    116          1           0      -11.122737    1.458731   -2.117310
    117          1           0      -10.288562   -0.088827   -2.422780
    118          1           0      -10.024603    3.087543   -0.895719
    119          1           0       -8.601266    2.861270   -0.021718
    120          1           0       -9.500415    2.779183    1.974264
    121          1           0      -10.470750    1.512104    1.594921
    122          1           0      -11.562256    4.188238    0.539125
    123          1           0      -11.039905    4.313136    2.162630
    124          1           0      -12.657583    2.196205    2.602818
    125          1           0      -13.057011    4.416905    3.554791
    126          1           0      -14.519295    3.784239    2.721980
    127          1           0      -13.663769    5.028222    1.919010
    128          1           0      -13.013952    2.193146   -0.039098
    129          1           0      -14.423275    3.198974    0.527250
    130          1           0      -15.592924    1.375562    0.995321
    131          1           0      -14.381840    1.193855    2.312010
    132          1           0      -14.121036   -0.868493    1.264370
    133          1           0      -13.134131   -0.050187    0.082303
    134          1           0      -15.634661    0.423354   -0.957879
    135          1           0      -15.729519   -2.458432   -0.445981
    136          1           0      -17.066062   -1.378129   -0.789122
    137          1           0      -16.406086   -1.340948    0.871993
    138          1           0      -14.473125   -0.398930   -2.811657
    139          1           0      -14.792163   -1.947630   -2.223000
    140          1           0      -13.299230   -1.074385   -1.707966
 ---------------------------------------------------------------------

 SCF Done:  E(RZINDO/S) =  -474.248895283     A.U. after   19 cycles

 Excitation energies and oscillator strengths:

 Excited State   1:      Singlet-A      1.2179 eV 1018.01 nm  f=0.5964  <S**2>=0.000
     175 ->178        -0.19858
     176 ->177         0.65999
 This state for optimization and/or second-order correction.
 Total Energy, E(CIS/TDA) =  -474.204138196
 Copying the excited state density for this state as the 1-particle RhoCI density.

 Excited State   2:      Singlet-A      1.8609 eV  666.25 nm  f=0.0876  <S**2>=0.000
     175 ->177         0.57264
     176 ->178         0.38755

 Excited State   3:      Singlet-A      2.8880 eV  429.31 nm  f=0.0056  <S**2>=0.000
     169 ->177         0.19614
     169 ->179        -0.20769
     169 ->181         0.14035
     170 ->177         0.32130
     170 ->178         0.10771
     170 ->179        -0.32660
     170 ->181         0.22569
     170 ->185        -0.13630
     170 ->187        -0.11348

 Excited State   4:      Singlet-A      2.9625 eV  418.52 nm  f=0.2479  <S**2>=0.000
     171 ->177         0.13942
     173 ->177         0.23695
     174 ->177         0.47543
     175 ->177         0.17178
     176 ->178        -0.32786
     176 ->179         0.15308

 Excited State   5:      Singlet-A      3.0193 eV  410.64 nm  f=0.7748  <S**2>=0.000
     171 ->177         0.17143
     174 ->177         0.29137
     175 ->177        -0.29544
     176 ->178         0.42797
     176 ->179         0.23138

 The electronic state is 1-A.
 Alpha  occ. eigenvalues --   -1.82921  -1.81534  -1.77226  -1.71943  -1.71312
 Alpha  occ. eigenvalues --   -1.68401  -1.65399  -1.61331  -1.59829  -1.56895
 Alpha  occ. eigenvalues --   -1.55819  -1.53296  -1.51100  -1.48391  -1.47474
 Alpha  occ. eigenvalues --   -1.45027  -1.43255  -1.39506  -1.39117  -1.38903
 Alpha  occ. eigenvalues --   -1.36951  -1.34332  -1.33212  -1.31648  -1.28895
 Alpha  occ. eigenvalues --   -1.28182  -1.24201  -1.22466  -1.21195  -1.18626
 Alpha  occ. eigenvalues --   -1.16899  -1.15281  -1.14547  -1.14503  -1.13490
 Alpha  occ. eigenvalues --   -1.12609  -1.10251  -1.09898  -1.04282  -1.03234
 Alpha  occ. eigenvalues --   -1.02293  -1.00646  -0.99188  -0.97847  -0.95850
 Alpha  occ. eigenvalues --   -0.94412  -0.93995  -0.93568  -0.92065  -0.91739
 Alpha  occ. eigenvalues --   -0.90717  -0.90296  -0.88834  -0.87333  -0.87200
 Alpha  occ. eigenvalues --   -0.85419  -0.83625  -0.82777  -0.82543  -0.80559
 Alpha  occ. eigenvalues --   -0.79904  -0.78716  -0.78200  -0.76405  -0.75839
 Alpha  occ. eigenvalues --   -0.75580  -0.75198  -0.74511  -0.73823  -0.73448
 Alpha  occ. eigenvalues --   -0.73095  -0.72700  -0.71419  -0.70854  -0.70415
 Alpha  occ. eigenvalues --   -0.70131  -0.69655  -0.69096  -0.68988  -0.67972
 Alpha  occ. eigenvalues --   -0.67581  -0.67410  -0.67071  -0.66409  -0.66078
 Alpha  occ. eigenvalues --   -0.65542  -0.65161  -0.64911  -0.64448  -0.64250
 Alpha  occ. eigenvalues --   -0.63840  -0.62594  -0.62381  -0.61920  -0.61266
 Alpha  occ. eigenvalues --   -0.61057  -0.60802  -0.60622  -0.60565  -0.59741
 Alpha  occ. eigenvalues --   -0.59651  -0.59239  -0.58767  -0.58485  -0.58160
 Alpha  occ. eigenvalues --   -0.57942  -0.57285  -0.56965  -0.56579  -0.56327
 Alpha  occ. eigenvalues --   -0.56189  -0.55936  -0.55556  -0.54872  -0.54667
 Alpha  occ. eigenvalues --   -0.54419  -0.53665  -0.52534  -0.52307  -0.52166
 Alpha  occ. eigenvalues --   -0.51923  -0.51621  -0.51408  -0.51129  -0.50707
 Alpha  occ. eigenvalues --   -0.50589  -0.50492  -0.50190  -0.49860  -0.49651
 Alpha  occ. eigenvalues --   -0.49535  -0.49314  -0.49163  -0.48984  -0.48860
 Alpha  occ. eigenvalues --   -0.48580  -0.47983  -0.47926  -0.47797  -0.47275
 Alpha  occ. eigenvalues --   -0.47102  -0.46887  -0.46838  -0.46396  -0.46270
 Alpha  occ. eigenvalues --   -0.45928  -0.45888  -0.45582  -0.45406  -0.45105
 Alpha  occ. eigenvalues --   -0.45095  -0.44763  -0.44488  -0.44373  -0.43913
 Alpha  occ. eigenvalues --   -0.43499  -0.43446  -0.42996  -0.42592  -0.41948
 Alpha  occ. eigenvalues --   -0.41673  -0.41592  -0.40648  -0.39108  -0.38626
 Alpha  occ. eigenvalues --   -0.37981  -0.37121  -0.34876  -0.34439  -0.34265
 Alpha  occ. eigenvalues --   -0.32584  -0.32339  -0.32154  -0.31378  -0.26239
 Alpha  occ. eigenvalues --   -0.21850
 Alpha virt. eigenvalues --   -0.08768  -0.02035  -0.00497   0.01142   0.01463
 Alpha virt. eigenvalues --    0.02200   0.02845   0.03803   0.05125   0.05259
 Alpha virt. eigenvalues --    0.06357   0.06706   0.07587   0.08149   0.08378

 Mulliken charges:
               1
     1  Mg   0.428464
     2  C   -0.042491
     3  C   -0.085989
     4  C   -0.041142
     5  C   -0.061638
     6  N   -0.287413
     7  C    0.124147
     8  C    0.015235
     9  C    0.007996
    10  C    0.141328
    11  C   -0.049565
    12  C   -0.026674
    13  C    0.008590
    14  C    0.473771
    15  O   -0.518254
    16  O   -0.265306
    17  N   -0.334397
    18  C    0.098726
    19  C   -0.003330
    20  C   -0.062334
    21  C    0.116971
    22  C   -0.044547
    23  C    0.332713
    24  O   -0.518947
    25  C   -0.036537
    26  N   -0.258387
    27  C    0.120419
    28  C    0.003545
    29  C    0.005800
    30  C    0.137340
    31  C   -0.050308
    32  C   -0.031238
    33  C   -0.063179
    34  N   -0.335796
    35  C    0.083365
    36  C    0.052082
    37  C   -0.065486
    38  C    0.122406
    39  C   -0.028796
    40  C    0.335754
    41  O   -0.550564
    42  C    0.053811
    43  C    0.492596
    44  O   -0.507054
    45  O   -0.289022
    46  C    0.066696
    47  C    0.093655
    48  C   -0.085664
    49  C   -0.001684
    50  C   -0.039730
    51  C   -0.020908
    52  C   -0.034915
    53  C   -0.044672
    54  C   -0.014220
    55  C   -0.056093
    56  C   -0.029433
    57  C   -0.039816
    58  C   -0.022992
    59  C   -0.016171
    60  C   -0.057022
    61  C   -0.045089
    62  C   -0.041706
    63  C   -0.035280
    64  C   -0.012729
    65  C   -0.055914
    66  C   -0.065379
    67  H    0.015673
    68  H    0.048391
    69  H    0.020739
    70  H    0.046538
    71  H    0.036709
    72  H    0.008663
    73  H    0.025680
    74  H    0.018695
    75  H    0.024706
    76  H    0.023794
    77  H    0.030140
    78  H    0.055111
    79  H    0.041136
    80  H    0.032188
    81  H    0.030687
    82  H    0.043836
    83  H    0.034432
    84  H    0.040420
    85  H    0.027091
    86  H    0.027396
    87  H    0.020853
    88  H    0.029881
    89  H    0.016805
    90  H    0.019469
    91  H    0.022409
    92  H    0.026610
    93  H    0.023266
    94  H    0.025643
    95  H    0.050325
    96  H    0.021571
    97  H    0.042397
    98  H    0.064471
    99  H    0.050612
   100  H    0.045399
   101  H    0.036829
   102  H    0.063313
   103  H    0.045242
   104  H    0.028267
   105  H    0.022119
   106  H    0.027413
   107  H    0.028908
   108  H    0.030490
   109  H    0.008484
   110  H    0.025604
   111  H    0.018331
   112  H    0.022863
   113  H    0.012588
   114  H    0.023396
   115  H    0.019831
   116  H    0.014973
   117  H    0.014488
   118  H    0.016697
   119  H    0.015538
   120  H    0.006293
   121  H    0.025025
   122  H    0.022614
   123  H    0.011711
   124  H    0.025789
   125  H    0.020148
   126  H    0.008999
   127  H    0.024846
   128  H    0.021326
   129  H    0.018701
   130  H    0.022954
   131  H    0.021275
   132  H    0.012679
   133  H    0.020636
   134  H    0.016700
   135  H    0.025542
   136  H    0.015134
   137  H    0.023261
   138  H    0.015646
   139  H    0.015756
   140  H    0.020258
 Sum of Mulliken charges =  -0.00000

 Dipole moment (field-independent basis, Debye):
    X=             -4.2919    Y=              5.9274    Z=             -0.0910  Tot=              7.3187
 N-N= 4.247873484645D+03 E-N= 0.000000000000D+00  KE=-9.170565330681D+03
 Leave Link  601 at Sat Apr 30 08:57:03 2022, MaxMem=  6710886400 cpu:               1.0 elap:               0.1
 (Enter /sw/apps/gaussian-16.0/g16/l9999.exe)
 1\1\GINC-BP1-COMPUTE139\SP\RZINDO CIS\STO-3G\C55H74Mg1N4O6\OF15641\30-
 Apr-2022\0\\#p ZINDO=(nstates=5)\\step_651_chromophore_4 ZINDO\\0,1\Mg
 ,0,9.287,3.834,27.731\C,0,10.41,2.183,30.664\C,0,7.704,6.002,29.832\C,
 0,7.965,5.154,24.926\C,0,10.171,0.959,25.869\N,0,9.08,4.015,29.99\C,0,
 9.742,3.369,31.003\C,0,9.458,3.938,32.389\C,0,8.481,5.128,32.059\C,0,8
 .386,5.038,30.56\C,0,7.12,4.992,32.68\C,0,10.721,4.35,33.124\C,0,10.56
 1,5.016,34.438\C,0,10.803,4.138,35.656\O,0,11.742,3.343,35.799\O,0,9.9

 Normal termination of Gaussian 16 at Sat Apr 30 08:57:03 2022.
