 Gaussian 16, Revision A.03,
 Gaussian 16:  ES64L-G16RevA.03 25-Dec-2016

 ------------------------------
 #p blyp/Def2SVP td=(nstates=5)
 ------------------------------

 ---------------------------------------------------
 step_1601_chromophore_18 TDDFT with blyp functional
 ---------------------------------------------------
 Symbolic Z-matrix:
 Charge =  0 Multiplicity = 1

                         Standard orientation:
 ---------------------------------------------------------------------
 Center     Atomic      Atomic             Coordinates (Angstroms)
 Number     Number       Type             X           Y           Z
 ---------------------------------------------------------------------
      1         12           0        5.303093    1.183908    0.111238
      2          6           0        4.753289   -2.247005    0.067501
      3          6           0        1.861715    1.621592   -0.258037
      4          6           0        5.796400    4.378611   -0.176077
      5          6           0        8.794563    0.539622    0.093541
      6          7           0        3.565808   -0.193585   -0.199486
      7          6           0        3.569761   -1.517354   -0.055416
      8          6           0        2.141177   -2.074896   -0.035517
      9          6           0        1.309012   -0.868003   -0.477776
     10          6           0        2.291102    0.251283   -0.311215
     11          6           0        0.663020   -0.973138   -1.911338
     12          6           0        1.695312   -2.680781    1.369386
     13          6           0        1.022646   -4.048358    1.294189
     14          6           0        0.045356   -4.249575    0.210774
     15          8           0       -0.087625   -5.218790   -0.519137
     16          8           0       -0.788386   -3.156490    0.136024
     17          7           0        4.054868    2.754851   -0.245116
     18          6           0        2.656274    2.760720   -0.237008
     19          6           0        2.112219    4.093669   -0.422536
     20          6           0        3.257776    4.870338   -0.433530
     21          6           0        4.457147    4.030726   -0.240759
     22          6           0        0.664284    4.578662   -0.462043
     23          6           0        3.355111    6.339141   -0.558442
     24          8           0        4.352706    7.063316   -0.269177
     25          6           0        2.110149    7.208597   -0.877406
     26          7           0        7.058907    2.269773    0.167290
     27          6           0        6.972939    3.608196    0.043517
     28          6           0        8.371515    4.268886    0.035856
     29          6           0        9.324830    2.995770    0.322494
     30          6           0        8.307526    1.862093    0.174451
     31          6           0        8.697108    5.006234   -1.265551
     32          6           0       10.107215    2.863609    1.684784
     33          6           0       10.284978    4.059865    2.620332
     34          7           0        6.614811   -0.526382    0.095725
     35          6           0        7.931237   -0.646478    0.099433
     36          6           0        8.296234   -2.016919    0.198842
     37          6           0        7.083635   -2.737473    0.202317
     38          6           0        6.086461   -1.724784    0.049002
     39          6           0        9.727590   -2.589987    0.155773
     40          6           0        6.484842   -3.999394    0.313620
     41          8           0        7.019386   -5.143689    0.310571
     42          6           0        4.934327   -3.780704    0.305954
     43          6           0        4.246463   -4.667993   -0.703050
     44          8           0        3.893351   -4.338085   -1.815115
     45          8           0        4.138309   -5.969757   -0.224291
     46          6           0        3.407595   -7.012384   -0.994197
     47          6           0       -1.908659   -3.292978   -0.787523
     48          6           0       -3.111295   -2.427630   -0.561502
     49          6           0       -4.262960   -2.464330   -1.288461
     50          6           0       -4.539771   -3.372736   -2.559000
     51          6           0       -5.507609   -1.733054   -0.731948
     52          6           0       -5.995207   -2.366732    0.687617
     53          6           0       -6.718007   -1.171854    1.507941
     54          6           0       -8.188234   -1.518116    1.815064
     55          6           0       -8.359692   -1.794158    3.364218
     56          6           0       -9.230686   -0.400076    1.431851
     57          6           0       -9.801131   -0.807317    0.010056
     58          6           0      -11.330900   -0.932385    0.005728
     59          6           0      -12.187445    0.331613    0.364463
     60          6           0      -12.725116    0.448457    1.819229
     61          6           0      -13.257616    0.622558   -0.646504
     62          6           0      -13.571558    2.118551   -0.856748
     63          6           0      -14.723192    2.674546    0.055142
     64          6           0      -15.877879    3.229843   -0.771472
     65          6           0      -16.774726    4.134285    0.150524
     66          6           0      -16.827981    2.018024   -1.142431
     67          1           0        0.774375    1.718903   -0.279670
     68          1           0        6.051473    5.439792   -0.146292
     69          1           0        9.868992    0.364776    0.012068
     70          1           0        1.969518   -2.885557   -0.744118
     71          1           0        0.477510   -0.671902    0.199052
     72          1           0       -0.375765   -0.682239   -1.759280
     73          1           0        0.570515   -1.998093   -2.272798
     74          1           0        1.256648   -0.470310   -2.674872
     75          1           0        1.099803   -1.909800    1.858983
     76          1           0        2.571879   -2.682484    2.016275
     77          1           0        0.628205   -4.210638    2.296325
     78          1           0        1.782360   -4.785975    1.035677
     79          1           0        0.407864    4.997940   -1.435442
     80          1           0        0.499502    5.318130    0.321361
     81          1           0        0.007462    3.733518   -0.252077
     82          1           0        1.385404    7.337602   -0.073476
     83          1           0        1.619791    6.880496   -1.793332
     84          1           0        2.489134    8.218542   -1.032513
     85          1           0        8.414504    5.042113    0.803714
     86          1           0       10.021975    2.959721   -0.514336
     87          1           0        8.362047    4.392300   -2.101270
     88          1           0        9.763606    5.204851   -1.366089
     89          1           0        8.111563    5.918372   -1.384634
     90          1           0       11.128763    2.510509    1.547248
     91          1           0        9.576037    2.092431    2.242820
     92          1           0       10.260644    4.993531    2.059151
     93          1           0       11.255733    3.970428    3.109279
     94          1           0        9.538133    4.189964    3.402853
     95          1           0       10.298118   -2.546777   -0.771997
     96          1           0        9.743131   -3.578729    0.614669
     97          1           0       10.333016   -2.005907    0.847737
     98          1           0        4.768575   -4.113735    1.330004
     99          1           0        3.981447   -7.307503   -1.872531
    100          1           0        2.382507   -6.650187   -1.069731
    101          1           0        3.405265   -7.919813   -0.389673
    102          1           0       -2.257330   -4.324354   -0.847709
    103          1           0       -1.568648   -2.923199   -1.754167
    104          1           0       -3.147066   -1.735003    0.278865
    105          1           0       -4.699861   -2.736502   -3.428875
    106          1           0       -5.415066   -3.964736   -2.291060
    107          1           0       -3.702997   -4.045669   -2.746809
    108          1           0       -6.382142   -1.594405   -1.366560
    109          1           0       -5.153542   -0.702670   -0.683923
    110          1           0       -5.182069   -2.614845    1.370014
    111          1           0       -6.708707   -3.189474    0.660174
    112          1           0       -6.761535   -0.247371    0.931260
    113          1           0       -6.266916   -0.974235    2.480060
    114          1           0       -8.558628   -2.485415    1.476138
    115          1           0       -9.112832   -2.573973    3.479653
    116          1           0       -8.757889   -0.866998    3.776945
    117          1           0       -7.461338   -1.976232    3.953899
    118          1           0       -8.861174    0.608882    1.247705
    119          1           0      -10.064455   -0.383321    2.134458
    120          1           0       -9.320817   -1.711865   -0.363627
    121          1           0       -9.493319   -0.008155   -0.664607
    122          1           0      -11.618897   -1.637364    0.785533
    123          1           0      -11.785457   -1.395873   -0.871025
    124          1           0      -11.412694    1.095218    0.285678
    125          1           0      -12.272455    1.325190    2.282714
    126          1           0      -12.428892   -0.373857    2.470134
    127          1           0      -13.784808    0.690106    1.903196
    128          1           0      -14.216512    0.173241   -0.388481
    129          1           0      -13.090900    0.192016   -1.633402
    130          1           0      -13.806667    2.300172   -1.905017
    131          1           0      -12.611927    2.570330   -0.604239
    132          1           0      -14.272424    3.439858    0.687052
    133          1           0      -15.135882    1.909773    0.713431
    134          1           0      -15.474117    3.750509   -1.639556
    135          1           0      -16.599377    5.126744   -0.265151
    136          1           0      -16.431625    4.135909    1.185331
    137          1           0      -17.839624    3.932628    0.264107
    138          1           0      -17.261445    2.474435   -2.032723
    139          1           0      -17.600832    1.786584   -0.409176
    140          1           0      -16.355513    1.064719   -1.376737
 ---------------------------------------------------------------------

 SCF Done:  E(RB-LYP) =  -3007.37307255     A.U. after   21 cycles

 Excitation energies and oscillator strengths:

 Excited State   1:      Singlet-A      1.7394 eV  712.81 nm  f=0.0283  <S**2>=0.000
     243 -> 247        0.25323
     244 -> 247        0.52794
     245 -> 247        0.31573
     246 -> 247        0.23150
 This state for optimization and/or second-order correction.
 Total Energy, E(TD-HF/TD-DFT) =  -3007.30915176
 Copying the excited state density for this state as the 1-particle RhoCI density.

 Excited State   2:      Singlet-A      1.7715 eV  699.87 nm  f=0.0926  <S**2>=0.000
     243 -> 247        0.45095
     244 -> 247       -0.38534
     246 -> 247        0.37683

 Excited State   3:      Singlet-A      1.8367 eV  675.04 nm  f=0.2060  <S**2>=0.000
     243 -> 247       -0.44617
     245 -> 248       -0.14282
     246 -> 247        0.52563
     246 <- 247       -0.11656

 Excited State   4:      Singlet-A      2.0362 eV  608.91 nm  f=0.0904  <S**2>=0.000
     243 -> 247       -0.17260
     244 -> 247       -0.25504
     245 -> 247        0.57387
     246 -> 248        0.22146
     246 -> 249       -0.11553

 Excited State   5:      Singlet-A      2.2635 eV  547.75 nm  f=0.0003  <S**2>=0.000
     242 -> 247        0.70700

 The electronic state is 1-A.
 Alpha  occ. eigenvalues --  -46.27599 -18.83052 -18.80306 -18.78045 -18.76073
 Alpha  occ. eigenvalues --  -18.75275 -18.74777 -14.03592 -14.03348 -14.01658
 Alpha  occ. eigenvalues --  -14.00663 -10.04979 -10.03363  -9.99687  -9.98966
 Alpha  occ. eigenvalues --   -9.98409  -9.96872  -9.96804  -9.96505  -9.96389
 Alpha  occ. eigenvalues --   -9.96291  -9.96183  -9.95978  -9.95045  -9.94540
 Alpha  occ. eigenvalues --   -9.94353  -9.94211  -9.94210  -9.94103  -9.93901
 Alpha  occ. eigenvalues --   -9.93848  -9.93841  -9.93812  -9.93725  -9.93495
 Alpha  occ. eigenvalues --   -9.93396  -9.93363  -9.93234  -9.93217  -9.93077
 Alpha  occ. eigenvalues --   -9.92976  -9.92907  -9.92879  -9.92754  -9.92507
 Alpha  occ. eigenvalues --   -9.92506  -9.92367  -9.92200  -9.92044  -9.91964
 Alpha  occ. eigenvalues --   -9.91899  -9.91810  -9.91796  -9.91769  -9.91636
 Alpha  occ. eigenvalues --   -9.91489  -9.91472  -9.91018  -9.91008  -9.90930
 Alpha  occ. eigenvalues --   -9.90915  -9.90835  -9.90781  -9.90689  -9.90612
 Alpha  occ. eigenvalues --   -9.90518  -2.92270  -1.72704  -1.72155  -1.71974
 Alpha  occ. eigenvalues --   -0.99025  -0.95849  -0.90912  -0.89282  -0.88841
 Alpha  occ. eigenvalues --   -0.88584  -0.87998  -0.87400  -0.87189  -0.86161
 Alpha  occ. eigenvalues --   -0.75020  -0.73845  -0.73292  -0.72751  -0.72560
 Alpha  occ. eigenvalues --   -0.71962  -0.71606  -0.71138  -0.70903  -0.70798
 Alpha  occ. eigenvalues --   -0.69695  -0.69369  -0.67828  -0.67325  -0.66943
 Alpha  occ. eigenvalues --   -0.66342  -0.65458  -0.64626  -0.64582  -0.63816
 Alpha  occ. eigenvalues --   -0.63679  -0.63153  -0.62566  -0.62014  -0.60643
 Alpha  occ. eigenvalues --   -0.60532  -0.60139  -0.60095  -0.59593  -0.58871
 Alpha  occ. eigenvalues --   -0.58594  -0.57868  -0.57018  -0.56217  -0.54938
 Alpha  occ. eigenvalues --   -0.54383  -0.54242  -0.53469  -0.53095  -0.51737
 Alpha  occ. eigenvalues --   -0.51327  -0.51088  -0.50556  -0.50517  -0.50172
 Alpha  occ. eigenvalues --   -0.50109  -0.49622  -0.49072  -0.47623  -0.47348
 Alpha  occ. eigenvalues --   -0.46990  -0.46042  -0.45961  -0.45583  -0.44632
 Alpha  occ. eigenvalues --   -0.44016  -0.43629  -0.43250  -0.42928  -0.42488
 Alpha  occ. eigenvalues --   -0.42402  -0.41633  -0.41580  -0.41192  -0.40927
 Alpha  occ. eigenvalues --   -0.40596  -0.40311  -0.40284  -0.39992  -0.39823
 Alpha  occ. eigenvalues --   -0.39680  -0.39581  -0.39321  -0.39156  -0.39019
 Alpha  occ. eigenvalues --   -0.38649  -0.38535  -0.38485  -0.38239  -0.38004
 Alpha  occ. eigenvalues --   -0.37949  -0.37899  -0.37442  -0.37348  -0.37252
 Alpha  occ. eigenvalues --   -0.37010  -0.36912  -0.36819  -0.36654  -0.36576
 Alpha  occ. eigenvalues --   -0.36237  -0.36174  -0.36089  -0.35721  -0.35564
 Alpha  occ. eigenvalues --   -0.35461  -0.35340  -0.35297  -0.35088  -0.34934
 Alpha  occ. eigenvalues --   -0.34611  -0.34503  -0.34440  -0.34301  -0.34033
 Alpha  occ. eigenvalues --   -0.33926  -0.33829  -0.33649  -0.33447  -0.33221
 Alpha  occ. eigenvalues --   -0.33116  -0.32828  -0.32654  -0.32634  -0.32394
 Alpha  occ. eigenvalues --   -0.32263  -0.32197  -0.31924  -0.31805  -0.31551
 Alpha  occ. eigenvalues --   -0.31345  -0.31113  -0.30912  -0.30750  -0.30578
 Alpha  occ. eigenvalues --   -0.30253  -0.30206  -0.30101  -0.29905  -0.29638
 Alpha  occ. eigenvalues --   -0.29598  -0.29403  -0.29351  -0.29248  -0.28780
 Alpha  occ. eigenvalues --   -0.28460  -0.28411  -0.28160  -0.27962  -0.27873
 Alpha  occ. eigenvalues --   -0.27637  -0.27503  -0.27347  -0.26961  -0.26747
 Alpha  occ. eigenvalues --   -0.26562  -0.26364  -0.25944  -0.25699  -0.24889
 Alpha  occ. eigenvalues --   -0.24783  -0.24356  -0.24053  -0.23944  -0.23688
 Alpha  occ. eigenvalues --   -0.23489  -0.23215  -0.22449  -0.21341  -0.21151
 Alpha  occ. eigenvalues --   -0.20540  -0.19931  -0.18117  -0.17983  -0.17313
 Alpha  occ. eigenvalues --   -0.15913
 Alpha virt. eigenvalues --   -0.11613  -0.07183  -0.06394  -0.04764  -0.04186
 Alpha virt. eigenvalues --   -0.02653  -0.02588  -0.01978  -0.00954   0.00092
 Alpha virt. eigenvalues --    0.00976   0.01690   0.02388   0.02782   0.02928

 Mulliken charges:
               1
     1  Mg   0.706331
     2  C    0.020365
     3  C   -0.095699
     4  C   -0.055794
     5  C   -0.062565
     6  N   -0.166898
     7  C   -0.049027
     8  C   -0.046897
     9  C    0.004738
    10  C   -0.003273
    11  C    0.126058
    12  C    0.125118
    13  C    0.171612
    14  C    0.069039
    15  O   -0.175544
    16  O   -0.284654
    17  N   -0.308642
    18  C    0.171216
    19  C   -0.157256
    20  C    0.103678
    21  C    0.150947
    22  C    0.204474
    23  C   -0.094379
    24  O   -0.205693
    25  C    0.110517
    26  N   -0.196196
    27  C    0.003042
    28  C    0.001417
    29  C    0.050745
    30  C   -0.005291
    31  C    0.113143
    32  C    0.093915
    33  C    0.059045
    34  N   -0.166102
    35  C    0.064737
    36  C   -0.176782
    37  C    0.139663
    38  C    0.028401
    39  C    0.163963
    40  C   -0.109093
    41  O   -0.169376
    42  C    0.068126
    43  C    0.126337
    44  O   -0.170406
    45  O   -0.300606
    46  C    0.218317
    47  C    0.305315
    48  C   -0.091237
    49  C   -0.173883
    50  C    0.127334
    51  C    0.093840
    52  C    0.085679
    53  C    0.125391
    54  C   -0.114895
    55  C    0.073766
    56  C    0.090858
    57  C    0.062703
    58  C    0.111185
    59  C   -0.064559
    60  C    0.121729
    61  C    0.080930
    62  C    0.088320
    63  C    0.090893
    64  C   -0.101755
    65  C    0.100716
    66  C    0.077096
    67  H   -0.068082
    68  H   -0.041656
    69  H   -0.058401
    70  H    0.002707
    71  H   -0.029054
    72  H   -0.005293
    73  H    0.001157
    74  H    0.002152
    75  H   -0.033043
    76  H   -0.028072
    77  H    0.012611
    78  H    0.000361
    79  H    0.008932
    80  H    0.008417
    81  H   -0.018326
    82  H    0.006967
    83  H   -0.009820
    84  H   -0.013139
    85  H   -0.014630
    86  H   -0.031827
    87  H   -0.014859
    88  H   -0.002228
    89  H    0.004209
    90  H   -0.020258
    91  H   -0.016245
    92  H   -0.009675
    93  H   -0.010551
    94  H   -0.008681
    95  H    0.011352
    96  H    0.001959
    97  H   -0.027295
    98  H    0.007562
    99  H    0.022353
   100  H    0.031017
   101  H    0.004705
   102  H    0.025835
   103  H    0.007628
   104  H   -0.038467
   105  H    0.010436
   106  H    0.006186
   107  H   -0.010520
   108  H   -0.028824
   109  H   -0.011540
   110  H   -0.018253
   111  H   -0.011387
   112  H   -0.032270
   113  H   -0.030771
   114  H   -0.025021
   115  H   -0.014344
   116  H   -0.022981
   117  H   -0.018853
   118  H   -0.023021
   119  H   -0.029218
   120  H   -0.020305
   121  H   -0.037330
   122  H   -0.056725
   123  H   -0.044001
   124  H   -0.042438
   125  H   -0.028638
   126  H   -0.008615
   127  H   -0.018508
   128  H   -0.039472
   129  H   -0.049521
   130  H   -0.032693
   131  H   -0.042752
   132  H   -0.039112
   133  H   -0.022480
   134  H   -0.021179
   135  H   -0.015725
   136  H   -0.020947
   137  H   -0.011485
   138  H   -0.012503
   139  H   -0.006590
   140  H   -0.013123
 Sum of Mulliken charges =  -0.00000

 Dipole moment (field-independent basis, Debye):
    X=             -4.3946    Y=              2.8336    Z=              1.9763  Tot=              5.5900
 Quadrupole moment (field-independent basis, Debye-Ang):
   XX=           -392.3591   YY=           -445.3559   ZZ=           -404.2265
   XY=             23.3192   XZ=             10.9588   YZ=             -6.0019

 Normal termination of Gaussian 16 at Wed May  4 10:42:43 2022.
