 Gaussian 16, Revision A.03,
 Gaussian 16:  ES64L-G16RevA.03 25-Dec-2016

 -----------------------------------
 #p cam-b3lyp/Def2SVP td=(nstates=5)
 -----------------------------------

 --------------------------------------------------------
 step_1601_chromophore_18 TDDFT with cam-b3lyp functional
 --------------------------------------------------------
 Symbolic Z-matrix:
 Charge =  0 Multiplicity = 1

                         Standard orientation:
 ---------------------------------------------------------------------
 Center     Atomic      Atomic             Coordinates (Angstroms)
 Number     Number       Type             X           Y           Z
 ---------------------------------------------------------------------
      1         12           0        5.303093    1.183908    0.111238
      2          6           0        4.753289   -2.247005    0.067501
      3          6           0        1.861715    1.621592   -0.258037
      4          6           0        5.796400    4.378611   -0.176077
      5          6           0        8.794563    0.539622    0.093541
      6          7           0        3.565808   -0.193585   -0.199486
      7          6           0        3.569761   -1.517354   -0.055416
      8          6           0        2.141177   -2.074896   -0.035517
      9          6           0        1.309012   -0.868003   -0.477776
     10          6           0        2.291102    0.251283   -0.311215
     11          6           0        0.663020   -0.973138   -1.911338
     12          6           0        1.695312   -2.680781    1.369386
     13          6           0        1.022646   -4.048358    1.294189
     14          6           0        0.045356   -4.249575    0.210774
     15          8           0       -0.087625   -5.218790   -0.519137
     16          8           0       -0.788386   -3.156490    0.136024
     17          7           0        4.054868    2.754851   -0.245116
     18          6           0        2.656274    2.760720   -0.237008
     19          6           0        2.112219    4.093669   -0.422536
     20          6           0        3.257776    4.870338   -0.433530
     21          6           0        4.457147    4.030726   -0.240759
     22          6           0        0.664284    4.578662   -0.462043
     23          6           0        3.355111    6.339141   -0.558442
     24          8           0        4.352706    7.063316   -0.269177
     25          6           0        2.110149    7.208597   -0.877406
     26          7           0        7.058907    2.269773    0.167290
     27          6           0        6.972939    3.608196    0.043517
     28          6           0        8.371515    4.268886    0.035856
     29          6           0        9.324830    2.995770    0.322494
     30          6           0        8.307526    1.862093    0.174451
     31          6           0        8.697108    5.006234   -1.265551
     32          6           0       10.107215    2.863609    1.684784
     33          6           0       10.284978    4.059865    2.620332
     34          7           0        6.614811   -0.526382    0.095725
     35          6           0        7.931237   -0.646478    0.099433
     36          6           0        8.296234   -2.016919    0.198842
     37          6           0        7.083635   -2.737473    0.202317
     38          6           0        6.086461   -1.724784    0.049002
     39          6           0        9.727590   -2.589987    0.155773
     40          6           0        6.484842   -3.999394    0.313620
     41          8           0        7.019386   -5.143689    0.310571
     42          6           0        4.934327   -3.780704    0.305954
     43          6           0        4.246463   -4.667993   -0.703050
     44          8           0        3.893351   -4.338085   -1.815115
     45          8           0        4.138309   -5.969757   -0.224291
     46          6           0        3.407595   -7.012384   -0.994197
     47          6           0       -1.908659   -3.292978   -0.787523
     48          6           0       -3.111295   -2.427630   -0.561502
     49          6           0       -4.262960   -2.464330   -1.288461
     50          6           0       -4.539771   -3.372736   -2.559000
     51          6           0       -5.507609   -1.733054   -0.731948
     52          6           0       -5.995207   -2.366732    0.687617
     53          6           0       -6.718007   -1.171854    1.507941
     54          6           0       -8.188234   -1.518116    1.815064
     55          6           0       -8.359692   -1.794158    3.364218
     56          6           0       -9.230686   -0.400076    1.431851
     57          6           0       -9.801131   -0.807317    0.010056
     58          6           0      -11.330900   -0.932385    0.005728
     59          6           0      -12.187445    0.331613    0.364463
     60          6           0      -12.725116    0.448457    1.819229
     61          6           0      -13.257616    0.622558   -0.646504
     62          6           0      -13.571558    2.118551   -0.856748
     63          6           0      -14.723192    2.674546    0.055142
     64          6           0      -15.877879    3.229843   -0.771472
     65          6           0      -16.774726    4.134285    0.150524
     66          6           0      -16.827981    2.018024   -1.142431
     67          1           0        0.774375    1.718903   -0.279670
     68          1           0        6.051473    5.439792   -0.146292
     69          1           0        9.868992    0.364776    0.012068
     70          1           0        1.969518   -2.885557   -0.744118
     71          1           0        0.477510   -0.671902    0.199052
     72          1           0       -0.375765   -0.682239   -1.759280
     73          1           0        0.570515   -1.998093   -2.272798
     74          1           0        1.256648   -0.470310   -2.674872
     75          1           0        1.099803   -1.909800    1.858983
     76          1           0        2.571879   -2.682484    2.016275
     77          1           0        0.628205   -4.210638    2.296325
     78          1           0        1.782360   -4.785975    1.035677
     79          1           0        0.407864    4.997940   -1.435442
     80          1           0        0.499502    5.318130    0.321361
     81          1           0        0.007462    3.733518   -0.252077
     82          1           0        1.385404    7.337602   -0.073476
     83          1           0        1.619791    6.880496   -1.793332
     84          1           0        2.489134    8.218542   -1.032513
     85          1           0        8.414504    5.042113    0.803714
     86          1           0       10.021975    2.959721   -0.514336
     87          1           0        8.362047    4.392300   -2.101270
     88          1           0        9.763606    5.204851   -1.366089
     89          1           0        8.111563    5.918372   -1.384634
     90          1           0       11.128763    2.510509    1.547248
     91          1           0        9.576037    2.092431    2.242820
     92          1           0       10.260644    4.993531    2.059151
     93          1           0       11.255733    3.970428    3.109279
     94          1           0        9.538133    4.189964    3.402853
     95          1           0       10.298118   -2.546777   -0.771997
     96          1           0        9.743131   -3.578729    0.614669
     97          1           0       10.333016   -2.005907    0.847737
     98          1           0        4.768575   -4.113735    1.330004
     99          1           0        3.981447   -7.307503   -1.872531
    100          1           0        2.382507   -6.650187   -1.069731
    101          1           0        3.405265   -7.919813   -0.389673
    102          1           0       -2.257330   -4.324354   -0.847709
    103          1           0       -1.568648   -2.923199   -1.754167
    104          1           0       -3.147066   -1.735003    0.278865
    105          1           0       -4.699861   -2.736502   -3.428875
    106          1           0       -5.415066   -3.964736   -2.291060
    107          1           0       -3.702997   -4.045669   -2.746809
    108          1           0       -6.382142   -1.594405   -1.366560
    109          1           0       -5.153542   -0.702670   -0.683923
    110          1           0       -5.182069   -2.614845    1.370014
    111          1           0       -6.708707   -3.189474    0.660174
    112          1           0       -6.761535   -0.247371    0.931260
    113          1           0       -6.266916   -0.974235    2.480060
    114          1           0       -8.558628   -2.485415    1.476138
    115          1           0       -9.112832   -2.573973    3.479653
    116          1           0       -8.757889   -0.866998    3.776945
    117          1           0       -7.461338   -1.976232    3.953899
    118          1           0       -8.861174    0.608882    1.247705
    119          1           0      -10.064455   -0.383321    2.134458
    120          1           0       -9.320817   -1.711865   -0.363627
    121          1           0       -9.493319   -0.008155   -0.664607
    122          1           0      -11.618897   -1.637364    0.785533
    123          1           0      -11.785457   -1.395873   -0.871025
    124          1           0      -11.412694    1.095218    0.285678
    125          1           0      -12.272455    1.325190    2.282714
    126          1           0      -12.428892   -0.373857    2.470134
    127          1           0      -13.784808    0.690106    1.903196
    128          1           0      -14.216512    0.173241   -0.388481
    129          1           0      -13.090900    0.192016   -1.633402
    130          1           0      -13.806667    2.300172   -1.905017
    131          1           0      -12.611927    2.570330   -0.604239
    132          1           0      -14.272424    3.439858    0.687052
    133          1           0      -15.135882    1.909773    0.713431
    134          1           0      -15.474117    3.750509   -1.639556
    135          1           0      -16.599377    5.126744   -0.265151
    136          1           0      -16.431625    4.135909    1.185331
    137          1           0      -17.839624    3.932628    0.264107
    138          1           0      -17.261445    2.474435   -2.032723
    139          1           0      -17.600832    1.786584   -0.409176
    140          1           0      -16.355513    1.064719   -1.376737
 ---------------------------------------------------------------------

 SCF Done:  E(RCAM-B3LYP) =  -3007.16615929     A.U. after   17 cycles

 Excitation energies and oscillator strengths:

 Excited State   1:      Singlet-A      1.7378 eV  713.44 nm  f=0.4006  <S**2>=0.000
     245 -> 248       -0.17930
     246 -> 247        0.68493
     245 <- 248       -0.10344
 This state for optimization and/or second-order correction.
 Total Energy, E(TD-HF/TD-DFT) =  -3007.10229520
 Copying the excited state density for this state as the 1-particle RhoCI density.

 Excited State   2:      Singlet-A      2.2528 eV  550.36 nm  f=0.1185  <S**2>=0.000
     245 -> 247        0.63977
     246 -> 248        0.28470

 Excited State   3:      Singlet-A      3.2745 eV  378.63 nm  f=0.0026  <S**2>=0.000
     242 -> 247        0.32303
     242 -> 249       -0.19451
     242 -> 250        0.18233
     244 -> 247        0.48977
     244 -> 249       -0.17355
     244 -> 250        0.12472
     246 -> 248       -0.10191

 Excited State   4:      Singlet-A      3.3460 eV  370.55 nm  f=0.0080  <S**2>=0.000
     240 -> 247        0.40039
     240 -> 248       -0.15400
     240 -> 249        0.28371
     240 -> 250        0.16268
     241 -> 247        0.32271
     241 -> 248       -0.10646
     241 -> 249        0.20071
     241 -> 250        0.11526
     246 -> 248       -0.10983

 Excited State   5:      Singlet-A      3.5091 eV  353.33 nm  f=0.4697  <S**2>=0.000
     242 -> 247        0.24904
     244 -> 247       -0.11957
     245 -> 247       -0.24612
     246 -> 248        0.57404

 The electronic state is 1-A.
 Alpha  occ. eigenvalues --  -46.89129 -19.25941 -19.23092 -19.21076 -19.19134
 Alpha  occ. eigenvalues --  -19.18812 -19.17578 -14.42619 -14.42014 -14.40272
 Alpha  occ. eigenvalues --  -14.38842 -10.40290 -10.38809 -10.35298 -10.34075
 Alpha  occ. eigenvalues --  -10.32431 -10.31533 -10.31202 -10.30894 -10.30778
 Alpha  occ. eigenvalues --  -10.30717 -10.30597 -10.30349 -10.29669 -10.28782
 Alpha  occ. eigenvalues --  -10.28501 -10.28409 -10.28267 -10.28160 -10.28118
 Alpha  occ. eigenvalues --  -10.28072 -10.27867 -10.27697 -10.27676 -10.27613
 Alpha  occ. eigenvalues --  -10.27566 -10.27514 -10.27354 -10.27239 -10.27173
 Alpha  occ. eigenvalues --  -10.26916 -10.26722 -10.26711 -10.26554 -10.26320
 Alpha  occ. eigenvalues --  -10.26282 -10.26115 -10.26018 -10.25954 -10.25879
 Alpha  occ. eigenvalues --  -10.25706 -10.25578 -10.25559 -10.25419 -10.25345
 Alpha  occ. eigenvalues --  -10.25276 -10.25224 -10.24742 -10.24673 -10.24635
 Alpha  occ. eigenvalues --  -10.24568 -10.24494 -10.24467 -10.24357 -10.24280
 Alpha  occ. eigenvalues --  -10.24191  -3.17708  -1.92618  -1.92170  -1.92005
 Alpha  occ. eigenvalues --   -1.17507  -1.14319  -1.08781  -1.07898  -1.06746
 Alpha  occ. eigenvalues --   -1.06372  -1.05679  -1.05126  -1.04746  -1.03931
 Alpha  occ. eigenvalues --   -0.91993  -0.90671  -0.90171  -0.89619  -0.89545
 Alpha  occ. eigenvalues --   -0.88697  -0.88119  -0.88003  -0.87490  -0.87382
 Alpha  occ. eigenvalues --   -0.86170  -0.85600  -0.84067  -0.83379  -0.83041
 Alpha  occ. eigenvalues --   -0.82368  -0.81515  -0.80493  -0.80356  -0.79962
 Alpha  occ. eigenvalues --   -0.79473  -0.79289  -0.78129  -0.77375  -0.75964
 Alpha  occ. eigenvalues --   -0.75888  -0.75497  -0.75392  -0.74917  -0.74141
 Alpha  occ. eigenvalues --   -0.73629  -0.72817  -0.71923  -0.71078  -0.69582
 Alpha  occ. eigenvalues --   -0.69057  -0.68847  -0.67976  -0.67580  -0.65928
 Alpha  occ. eigenvalues --   -0.65379  -0.65183  -0.64689  -0.64311  -0.64263
 Alpha  occ. eigenvalues --   -0.64048  -0.63642  -0.63026  -0.61313  -0.61141
 Alpha  occ. eigenvalues --   -0.60704  -0.59505  -0.59354  -0.58946  -0.57950
 Alpha  occ. eigenvalues --   -0.57418  -0.56913  -0.56509  -0.56095  -0.55758
 Alpha  occ. eigenvalues --   -0.55299  -0.54868  -0.54778  -0.53942  -0.53567
 Alpha  occ. eigenvalues --   -0.53294  -0.53226  -0.53080  -0.52914  -0.52702
 Alpha  occ. eigenvalues --   -0.52529  -0.52319  -0.52078  -0.51805  -0.51597
 Alpha  occ. eigenvalues --   -0.51384  -0.50937  -0.50817  -0.50661  -0.50403
 Alpha  occ. eigenvalues --   -0.50280  -0.50178  -0.49738  -0.49609  -0.49456
 Alpha  occ. eigenvalues --   -0.49415  -0.49193  -0.49001  -0.48894  -0.48750
 Alpha  occ. eigenvalues --   -0.48638  -0.48539  -0.48285  -0.48226  -0.47790
 Alpha  occ. eigenvalues --   -0.47559  -0.47461  -0.47328  -0.47205  -0.46991
 Alpha  occ. eigenvalues --   -0.46723  -0.46444  -0.46269  -0.46127  -0.46025
 Alpha  occ. eigenvalues --   -0.45703  -0.45642  -0.45319  -0.45121  -0.44886
 Alpha  occ. eigenvalues --   -0.44716  -0.44438  -0.44282  -0.44147  -0.44069
 Alpha  occ. eigenvalues --   -0.43989  -0.43932  -0.43573  -0.43389  -0.43230
 Alpha  occ. eigenvalues --   -0.42953  -0.42486  -0.42323  -0.42106  -0.41957
 Alpha  occ. eigenvalues --   -0.41670  -0.41632  -0.41544  -0.41224  -0.41203
 Alpha  occ. eigenvalues --   -0.40897  -0.40607  -0.40484  -0.40349  -0.39880
 Alpha  occ. eigenvalues --   -0.39683  -0.39589  -0.39361  -0.39084  -0.38940
 Alpha  occ. eigenvalues --   -0.38770  -0.38397  -0.38200  -0.38059  -0.37895
 Alpha  occ. eigenvalues --   -0.37794  -0.36980  -0.36881  -0.36391  -0.35598
 Alpha  occ. eigenvalues --   -0.35436  -0.35404  -0.35361  -0.34827  -0.34353
 Alpha  occ. eigenvalues --   -0.34095  -0.33595  -0.33128  -0.32013  -0.30834
 Alpha  occ. eigenvalues --   -0.30604  -0.30010  -0.29589  -0.29309  -0.24085
 Alpha  occ. eigenvalues --   -0.21216
 Alpha virt. eigenvalues --   -0.08676  -0.01861  -0.00159   0.02143   0.02383
 Alpha virt. eigenvalues --    0.03567   0.04737   0.05582   0.05745   0.06658
 Alpha virt. eigenvalues --    0.07848   0.08475   0.08912   0.09048   0.09202

 Mulliken charges:
               1
     1  Mg   0.840709
     2  C   -0.001150
     3  C   -0.102113
     4  C   -0.080863
     5  C   -0.062942
     6  N   -0.236012
     7  C   -0.011607
     8  C   -0.096883
     9  C   -0.048005
    10  C    0.014441
    11  C    0.071762
    12  C    0.079492
    13  C    0.098820
    14  C    0.145976
    15  O   -0.216704
    16  O   -0.346829
    17  N   -0.397955
    18  C    0.176121
    19  C   -0.153093
    20  C    0.024818
    21  C    0.176650
    22  C    0.147471
    23  C   -0.014547
    24  O   -0.244121
    25  C    0.031213
    26  N   -0.277114
    27  C    0.034072
    28  C   -0.056470
    29  C   -0.002275
    30  C    0.007993
    31  C    0.057574
    32  C    0.037631
    33  C   -0.001628
    34  N   -0.255407
    35  C    0.063485
    36  C   -0.171678
    37  C    0.054822
    38  C    0.060732
    39  C    0.114885
    40  C   -0.008746
    41  O   -0.210796
    42  C   -0.004036
    43  C    0.211380
    44  O   -0.206084
    45  O   -0.365341
    46  C    0.183114
    47  C    0.275044
    48  C   -0.115363
    49  C   -0.194860
    50  C    0.072008
    51  C    0.036445
    52  C    0.031144
    53  C    0.073614
    54  C   -0.169993
    55  C    0.019169
    56  C    0.036132
    57  C    0.011888
    58  C    0.060849
    59  C   -0.120814
    60  C    0.058880
    61  C    0.027194
    62  C    0.033692
    63  C    0.035382
    64  C   -0.158263
    65  C    0.040736
    66  C    0.018560
    67  H   -0.031104
    68  H   -0.001890
    69  H   -0.022504
    70  H    0.034056
    71  H    0.006101
    72  H    0.015944
    73  H    0.024042
    74  H    0.029003
    75  H   -0.001790
    76  H    0.004612
    77  H    0.046633
    78  H    0.028527
    79  H    0.037392
    80  H    0.035695
    81  H    0.011285
    82  H    0.035644
    83  H    0.018354
    84  H    0.024709
    85  H    0.018875
    86  H    0.004537
    87  H    0.010398
    88  H    0.022435
    89  H    0.027978
    90  H    0.007445
    91  H    0.014765
    92  H    0.010424
    93  H    0.013699
    94  H    0.014530
    95  H    0.035256
    96  H    0.028898
    97  H   -0.003866
    98  H    0.047785
    99  H    0.045219
   100  H    0.050725
   101  H    0.028195
   102  H    0.054077
   103  H    0.030464
   104  H   -0.003883
   105  H    0.033864
   106  H    0.028693
   107  H    0.013013
   108  H    0.000591
   109  H    0.017462
   110  H    0.010192
   111  H    0.015699
   112  H   -0.005348
   113  H   -0.001749
   114  H    0.005637
   115  H    0.009094
   116  H    0.000799
   117  H    0.005613
   118  H    0.005449
   119  H   -0.002295
   120  H    0.005800
   121  H   -0.010061
   122  H   -0.027823
   123  H   -0.012506
   124  H   -0.011782
   125  H   -0.003509
   126  H    0.014646
   127  H    0.006455
   128  H   -0.013089
   129  H   -0.017224
   130  H   -0.003376
   131  H   -0.013426
   132  H   -0.008626
   133  H    0.001439
   134  H    0.009387
   135  H    0.008025
   136  H    0.003958
   137  H    0.013068
   138  H    0.012042
   139  H    0.016700
   140  H    0.008314
 Sum of Mulliken charges =  -0.00000

 Dipole moment (field-independent basis, Debye):
    X=             -5.4084    Y=              3.8807    Z=              2.0132  Tot=              6.9544
 Quadrupole moment (field-independent basis, Debye-Ang):
   XX=           -397.8835   YY=           -440.9517   ZZ=           -404.0842
   XY=             26.2757   XZ=             10.9418   YZ=             -7.2797

 Normal termination of Gaussian 16 at Wed May  4 09:45:39 2022.
