 Gaussian 16, Revision A.03,
 Gaussian 16:  ES64L-G16RevA.03 25-Dec-2016

 ---------------------------------
 #p PBE1PBE/Def2SVP td=(nstates=5)
 ---------------------------------

 ------------------------------------------------------
 step_1601_chromophore_18 TDDFT with PBE1PBE functional
 ------------------------------------------------------
 Symbolic Z-matrix:
 Charge =  0 Multiplicity = 1

                         Standard orientation:
 ---------------------------------------------------------------------
 Center     Atomic      Atomic             Coordinates (Angstroms)
 Number     Number       Type             X           Y           Z
 ---------------------------------------------------------------------
      1         12           0        5.303093    1.183908    0.111238
      2          6           0        4.753289   -2.247005    0.067501
      3          6           0        1.861715    1.621592   -0.258037
      4          6           0        5.796400    4.378611   -0.176077
      5          6           0        8.794563    0.539622    0.093541
      6          7           0        3.565808   -0.193585   -0.199486
      7          6           0        3.569761   -1.517354   -0.055416
      8          6           0        2.141177   -2.074896   -0.035517
      9          6           0        1.309012   -0.868003   -0.477776
     10          6           0        2.291102    0.251283   -0.311215
     11          6           0        0.663020   -0.973138   -1.911338
     12          6           0        1.695312   -2.680781    1.369386
     13          6           0        1.022646   -4.048358    1.294189
     14          6           0        0.045356   -4.249575    0.210774
     15          8           0       -0.087625   -5.218790   -0.519137
     16          8           0       -0.788386   -3.156490    0.136024
     17          7           0        4.054868    2.754851   -0.245116
     18          6           0        2.656274    2.760720   -0.237008
     19          6           0        2.112219    4.093669   -0.422536
     20          6           0        3.257776    4.870338   -0.433530
     21          6           0        4.457147    4.030726   -0.240759
     22          6           0        0.664284    4.578662   -0.462043
     23          6           0        3.355111    6.339141   -0.558442
     24          8           0        4.352706    7.063316   -0.269177
     25          6           0        2.110149    7.208597   -0.877406
     26          7           0        7.058907    2.269773    0.167290
     27          6           0        6.972939    3.608196    0.043517
     28          6           0        8.371515    4.268886    0.035856
     29          6           0        9.324830    2.995770    0.322494
     30          6           0        8.307526    1.862093    0.174451
     31          6           0        8.697108    5.006234   -1.265551
     32          6           0       10.107215    2.863609    1.684784
     33          6           0       10.284978    4.059865    2.620332
     34          7           0        6.614811   -0.526382    0.095725
     35          6           0        7.931237   -0.646478    0.099433
     36          6           0        8.296234   -2.016919    0.198842
     37          6           0        7.083635   -2.737473    0.202317
     38          6           0        6.086461   -1.724784    0.049002
     39          6           0        9.727590   -2.589987    0.155773
     40          6           0        6.484842   -3.999394    0.313620
     41          8           0        7.019386   -5.143689    0.310571
     42          6           0        4.934327   -3.780704    0.305954
     43          6           0        4.246463   -4.667993   -0.703050
     44          8           0        3.893351   -4.338085   -1.815115
     45          8           0        4.138309   -5.969757   -0.224291
     46          6           0        3.407595   -7.012384   -0.994197
     47          6           0       -1.908659   -3.292978   -0.787523
     48          6           0       -3.111295   -2.427630   -0.561502
     49          6           0       -4.262960   -2.464330   -1.288461
     50          6           0       -4.539771   -3.372736   -2.559000
     51          6           0       -5.507609   -1.733054   -0.731948
     52          6           0       -5.995207   -2.366732    0.687617
     53          6           0       -6.718007   -1.171854    1.507941
     54          6           0       -8.188234   -1.518116    1.815064
     55          6           0       -8.359692   -1.794158    3.364218
     56          6           0       -9.230686   -0.400076    1.431851
     57          6           0       -9.801131   -0.807317    0.010056
     58          6           0      -11.330900   -0.932385    0.005728
     59          6           0      -12.187445    0.331613    0.364463
     60          6           0      -12.725116    0.448457    1.819229
     61          6           0      -13.257616    0.622558   -0.646504
     62          6           0      -13.571558    2.118551   -0.856748
     63          6           0      -14.723192    2.674546    0.055142
     64          6           0      -15.877879    3.229843   -0.771472
     65          6           0      -16.774726    4.134285    0.150524
     66          6           0      -16.827981    2.018024   -1.142431
     67          1           0        0.774375    1.718903   -0.279670
     68          1           0        6.051473    5.439792   -0.146292
     69          1           0        9.868992    0.364776    0.012068
     70          1           0        1.969518   -2.885557   -0.744118
     71          1           0        0.477510   -0.671902    0.199052
     72          1           0       -0.375765   -0.682239   -1.759280
     73          1           0        0.570515   -1.998093   -2.272798
     74          1           0        1.256648   -0.470310   -2.674872
     75          1           0        1.099803   -1.909800    1.858983
     76          1           0        2.571879   -2.682484    2.016275
     77          1           0        0.628205   -4.210638    2.296325
     78          1           0        1.782360   -4.785975    1.035677
     79          1           0        0.407864    4.997940   -1.435442
     80          1           0        0.499502    5.318130    0.321361
     81          1           0        0.007462    3.733518   -0.252077
     82          1           0        1.385404    7.337602   -0.073476
     83          1           0        1.619791    6.880496   -1.793332
     84          1           0        2.489134    8.218542   -1.032513
     85          1           0        8.414504    5.042113    0.803714
     86          1           0       10.021975    2.959721   -0.514336
     87          1           0        8.362047    4.392300   -2.101270
     88          1           0        9.763606    5.204851   -1.366089
     89          1           0        8.111563    5.918372   -1.384634
     90          1           0       11.128763    2.510509    1.547248
     91          1           0        9.576037    2.092431    2.242820
     92          1           0       10.260644    4.993531    2.059151
     93          1           0       11.255733    3.970428    3.109279
     94          1           0        9.538133    4.189964    3.402853
     95          1           0       10.298118   -2.546777   -0.771997
     96          1           0        9.743131   -3.578729    0.614669
     97          1           0       10.333016   -2.005907    0.847737
     98          1           0        4.768575   -4.113735    1.330004
     99          1           0        3.981447   -7.307503   -1.872531
    100          1           0        2.382507   -6.650187   -1.069731
    101          1           0        3.405265   -7.919813   -0.389673
    102          1           0       -2.257330   -4.324354   -0.847709
    103          1           0       -1.568648   -2.923199   -1.754167
    104          1           0       -3.147066   -1.735003    0.278865
    105          1           0       -4.699861   -2.736502   -3.428875
    106          1           0       -5.415066   -3.964736   -2.291060
    107          1           0       -3.702997   -4.045669   -2.746809
    108          1           0       -6.382142   -1.594405   -1.366560
    109          1           0       -5.153542   -0.702670   -0.683923
    110          1           0       -5.182069   -2.614845    1.370014
    111          1           0       -6.708707   -3.189474    0.660174
    112          1           0       -6.761535   -0.247371    0.931260
    113          1           0       -6.266916   -0.974235    2.480060
    114          1           0       -8.558628   -2.485415    1.476138
    115          1           0       -9.112832   -2.573973    3.479653
    116          1           0       -8.757889   -0.866998    3.776945
    117          1           0       -7.461338   -1.976232    3.953899
    118          1           0       -8.861174    0.608882    1.247705
    119          1           0      -10.064455   -0.383321    2.134458
    120          1           0       -9.320817   -1.711865   -0.363627
    121          1           0       -9.493319   -0.008155   -0.664607
    122          1           0      -11.618897   -1.637364    0.785533
    123          1           0      -11.785457   -1.395873   -0.871025
    124          1           0      -11.412694    1.095218    0.285678
    125          1           0      -12.272455    1.325190    2.282714
    126          1           0      -12.428892   -0.373857    2.470134
    127          1           0      -13.784808    0.690106    1.903196
    128          1           0      -14.216512    0.173241   -0.388481
    129          1           0      -13.090900    0.192016   -1.633402
    130          1           0      -13.806667    2.300172   -1.905017
    131          1           0      -12.611927    2.570330   -0.604239
    132          1           0      -14.272424    3.439858    0.687052
    133          1           0      -15.135882    1.909773    0.713431
    134          1           0      -15.474117    3.750509   -1.639556
    135          1           0      -16.599377    5.126744   -0.265151
    136          1           0      -16.431625    4.135909    1.185331
    137          1           0      -17.839624    3.932628    0.264107
    138          1           0      -17.261445    2.474435   -2.032723
    139          1           0      -17.600832    1.786584   -0.409176
    140          1           0      -16.355513    1.064719   -1.376737
 ---------------------------------------------------------------------

 SCF Done:  E(RPBE1PBE) =  -3005.35345295     A.U. after   15 cycles

 Excitation energies and oscillator strengths:

 Excited State   1:      Singlet-A      1.8707 eV  662.77 nm  f=0.3830  <S**2>=0.000
     245 -> 248       -0.17254
     246 -> 247        0.69122
     246 <- 247       -0.10490
 This state for optimization and/or second-order correction.
 Total Energy, E(TD-HF/TD-DFT) =  -3005.28470630
 Copying the excited state density for this state as the 1-particle RhoCI density.

 Excited State   2:      Singlet-A      2.2399 eV  553.52 nm  f=0.1207  <S**2>=0.000
     245 -> 247        0.65237
     246 -> 248        0.24896

 Excited State   3:      Singlet-A      2.7753 eV  446.75 nm  f=0.0005  <S**2>=0.000
     241 -> 247       -0.12250
     244 -> 247        0.65971
     244 -> 249       -0.15090

 Excited State   4:      Singlet-A      2.8916 eV  428.78 nm  f=0.0001  <S**2>=0.000
     242 -> 247        0.65296
     242 -> 248       -0.13807
     242 -> 249        0.18175
     242 -> 250        0.10436

 Excited State   5:      Singlet-A      3.1656 eV  391.66 nm  f=0.0009  <S**2>=0.000
     240 -> 247       -0.15092
     241 -> 247        0.64883
     244 -> 247        0.13336
     246 -> 248       -0.15216

 The electronic state is 1-A.
 Alpha  occ. eigenvalues --  -46.92533 -19.26598 -19.23805 -19.21334 -19.19378
 Alpha  occ. eigenvalues --  -19.18862 -19.18067 -14.42002 -14.41582 -14.39837
 Alpha  occ. eigenvalues --  -14.38581 -10.37301 -10.35843 -10.32250 -10.31389
 Alpha  occ. eigenvalues --  -10.29833 -10.29105 -10.28765 -10.28472 -10.28337
 Alpha  occ. eigenvalues --  -10.28255 -10.28130 -10.28043 -10.26993 -10.26786
 Alpha  occ. eigenvalues --  -10.26221 -10.26210 -10.25979 -10.25770 -10.25679
 Alpha  occ. eigenvalues --  -10.25616 -10.25616 -10.25611 -10.25364 -10.25284
 Alpha  occ. eigenvalues --  -10.25188 -10.25123 -10.25108 -10.25012 -10.24827
 Alpha  occ. eigenvalues --  -10.24586 -10.24522 -10.24105 -10.24083 -10.24022
 Alpha  occ. eigenvalues --  -10.23967 -10.23769 -10.23655 -10.23550 -10.23248
 Alpha  occ. eigenvalues --  -10.23167 -10.23164 -10.23019 -10.23003 -10.22975
 Alpha  occ. eigenvalues --  -10.22777 -10.22745 -10.22301 -10.22259 -10.22178
 Alpha  occ. eigenvalues --  -10.22069 -10.22042 -10.21978 -10.21880 -10.21788
 Alpha  occ. eigenvalues --  -10.21735  -3.14692  -1.87543  -1.87073  -1.86911
 Alpha  occ. eigenvalues --   -1.12293  -1.09100  -1.03634  -1.02403  -1.01641
 Alpha  occ. eigenvalues --   -1.01244  -1.00460  -0.99754  -0.99532  -0.98502
 Alpha  occ. eigenvalues --   -0.86458  -0.84856  -0.84245  -0.83770  -0.83683
 Alpha  occ. eigenvalues --   -0.82806  -0.82417  -0.82197  -0.81779  -0.81529
 Alpha  occ. eigenvalues --   -0.80427  -0.80116  -0.78220  -0.77673  -0.77393
 Alpha  occ. eigenvalues --   -0.76575  -0.75776  -0.74732  -0.74601  -0.74090
 Alpha  occ. eigenvalues --   -0.73612  -0.73316  -0.72409  -0.71763  -0.70326
 Alpha  occ. eigenvalues --   -0.70054  -0.69755  -0.69581  -0.68992  -0.68309
 Alpha  occ. eigenvalues --   -0.67970  -0.67305  -0.66358  -0.65393  -0.63934
 Alpha  occ. eigenvalues --   -0.63491  -0.63095  -0.62464  -0.61803  -0.60396
 Alpha  occ. eigenvalues --   -0.59766  -0.59575  -0.59216  -0.58804  -0.58549
 Alpha  occ. eigenvalues --   -0.58397  -0.57779  -0.57178  -0.55866  -0.55632
 Alpha  occ. eigenvalues --   -0.55148  -0.54054  -0.53930  -0.53586  -0.52614
 Alpha  occ. eigenvalues --   -0.51863  -0.51445  -0.51042  -0.50672  -0.50257
 Alpha  occ. eigenvalues --   -0.49820  -0.49456  -0.49230  -0.48464  -0.47997
 Alpha  occ. eigenvalues --   -0.47886  -0.47692  -0.47472  -0.47274  -0.47124
 Alpha  occ. eigenvalues --   -0.47089  -0.46794  -0.46636  -0.46321  -0.46068
 Alpha  occ. eigenvalues --   -0.45918  -0.45539  -0.45336  -0.45282  -0.45104
 Alpha  occ. eigenvalues --   -0.44841  -0.44724  -0.44282  -0.44175  -0.43944
 Alpha  occ. eigenvalues --   -0.43873  -0.43825  -0.43625  -0.43456  -0.43318
 Alpha  occ. eigenvalues --   -0.43245  -0.43116  -0.42933  -0.42801  -0.42439
 Alpha  occ. eigenvalues --   -0.42261  -0.42084  -0.41923  -0.41865  -0.41683
 Alpha  occ. eigenvalues --   -0.41427  -0.41170  -0.40929  -0.40839  -0.40650
 Alpha  occ. eigenvalues --   -0.40453  -0.40241  -0.40046  -0.39772  -0.39697
 Alpha  occ. eigenvalues --   -0.39504  -0.39245  -0.39107  -0.38893  -0.38840
 Alpha  occ. eigenvalues --   -0.38778  -0.38718  -0.38289  -0.38101  -0.37998
 Alpha  occ. eigenvalues --   -0.37813  -0.37233  -0.37198  -0.36939  -0.36737
 Alpha  occ. eigenvalues --   -0.36524  -0.36405  -0.36299  -0.36009  -0.35968
 Alpha  occ. eigenvalues --   -0.35787  -0.35519  -0.35419  -0.35101  -0.34645
 Alpha  occ. eigenvalues --   -0.34536  -0.34452  -0.34132  -0.33968  -0.33747
 Alpha  occ. eigenvalues --   -0.33731  -0.33196  -0.33048  -0.32997  -0.32890
 Alpha  occ. eigenvalues --   -0.32595  -0.32043  -0.31975  -0.31221  -0.30502
 Alpha  occ. eigenvalues --   -0.30374  -0.30249  -0.30221  -0.29784  -0.29655
 Alpha  occ. eigenvalues --   -0.29037  -0.29016  -0.28146  -0.27518  -0.26294
 Alpha  occ. eigenvalues --   -0.25528  -0.25285  -0.24861  -0.24693  -0.21014
 Alpha  occ. eigenvalues --   -0.18850
 Alpha virt. eigenvalues --   -0.11185  -0.05427  -0.04262  -0.02250  -0.01023
 Alpha virt. eigenvalues --   -0.00352   0.00307   0.01092   0.01883   0.02819
 Alpha virt. eigenvalues --    0.03749   0.04775   0.05324   0.05698   0.05910

 Mulliken charges:
               1
     1  Mg   0.989655
     2  C   -0.014681
     3  C   -0.085348
     4  C   -0.070285
     5  C   -0.045499
     6  N   -0.347953
     7  C    0.062222
     8  C   -0.167943
     9  C   -0.124348
    10  C    0.055637
    11  C    0.016324
    12  C    0.035127
    13  C    0.013591
    14  C    0.209606
    15  O   -0.253427
    16  O   -0.376356
    17  N   -0.513219
    18  C    0.183598
    19  C   -0.166774
    20  C   -0.038209
    21  C    0.207223
    22  C    0.084225
    23  C    0.039097
    24  O   -0.280009
    25  C   -0.043249
    26  N   -0.390981
    27  C    0.068940
    28  C   -0.135206
    29  C   -0.067939
    30  C    0.040197
    31  C   -0.001162
    32  C   -0.023452
    33  C   -0.074253
    34  N   -0.387349
    35  C    0.088379
    36  C   -0.182078
    37  C    0.001723
    38  C    0.117686
    39  C    0.063164
    40  C    0.081509
    41  O   -0.252537
    42  C   -0.098488
    43  C    0.295940
    44  O   -0.241816
    45  O   -0.397861
    46  C    0.128157
    47  C    0.238129
    48  C   -0.131908
    49  C   -0.232108
    50  C    0.006745
    51  C   -0.025949
    52  C   -0.032224
    53  C    0.022863
    54  C   -0.255033
    55  C   -0.040493
    56  C   -0.019942
    57  C   -0.055845
    58  C    0.007433
    59  C   -0.204397
    60  C   -0.001884
    61  C   -0.030226
    62  C   -0.026308
    63  C   -0.019816
    64  C   -0.255005
    65  C   -0.015721
    66  C   -0.042504
    67  H    0.000179
    68  H    0.030344
    69  H    0.008995
    70  H    0.076590
    71  H    0.042061
    72  H    0.043650
    73  H    0.050052
    74  H    0.056536
    75  H    0.030953
    76  H    0.038008
    77  H    0.078571
    78  H    0.066272
    79  H    0.063703
    80  H    0.062457
    81  H    0.038874
    82  H    0.061062
    83  H    0.045165
    84  H    0.051798
    85  H    0.055408
    86  H    0.041613
    87  H    0.039337
    88  H    0.050092
    89  H    0.055566
    90  H    0.039199
    91  H    0.048679
    92  H    0.038822
    93  H    0.041999
    94  H    0.042951
    95  H    0.063037
    96  H    0.057127
    97  H    0.024909
    98  H    0.084099
    99  H    0.066667
   100  H    0.073318
   101  H    0.050211
   102  H    0.079121
   103  H    0.058170
   104  H    0.026131
   105  H    0.061612
   106  H    0.056514
   107  H    0.039615
   108  H    0.032571
   109  H    0.049236
   110  H    0.042519
   111  H    0.046873
   112  H    0.027520
   113  H    0.030358
   114  H    0.042174
   115  H    0.037000
   116  H    0.029178
   117  H    0.032954
   118  H    0.036097
   119  H    0.035143
   120  H    0.038153
   121  H    0.023521
   122  H    0.007855
   123  H    0.019581
   124  H    0.028443
   125  H    0.023983
   126  H    0.039503
   127  H    0.035094
   128  H    0.021507
   129  H    0.015211
   130  H    0.028421
   131  H    0.020483
   132  H    0.024755
   133  H    0.033317
   134  H    0.043837
   135  H    0.036286
   136  H    0.030726
   137  H    0.039165
   138  H    0.041353
   139  H    0.043459
   140  H    0.036874
 Sum of Mulliken charges =  -0.00000

 Dipole moment (field-independent basis, Debye):
    X=             -4.9570    Y=              3.4896    Z=              2.1108  Tot=              6.4191
 Quadrupole moment (field-independent basis, Debye-Ang):
   XX=           -387.6771   YY=           -439.1750   ZZ=           -401.5939
   XY=             25.3218   XZ=             11.3478   YZ=             -6.9998

 Normal termination of Gaussian 16 at Wed May  4 10:04:38 2022.
