 Gaussian 16, Revision A.03,
 Gaussian 16:  ES64L-G16RevA.03 25-Dec-2016

 --------------------------------
 #p wB97XD/Def2SVP td=(nstates=5)
 --------------------------------

 -----------------------------------------------------
 step_1601_chromophore_18 TDDFT with wB97XD functional
 -----------------------------------------------------
 Symbolic Z-matrix:
 Charge =  0 Multiplicity = 1

                         Standard orientation:
 ---------------------------------------------------------------------
 Center     Atomic      Atomic             Coordinates (Angstroms)
 Number     Number       Type             X           Y           Z
 ---------------------------------------------------------------------
      1         12           0        5.303093    1.183908    0.111238
      2          6           0        4.753289   -2.247005    0.067501
      3          6           0        1.861715    1.621592   -0.258037
      4          6           0        5.796400    4.378611   -0.176077
      5          6           0        8.794563    0.539622    0.093541
      6          7           0        3.565808   -0.193585   -0.199486
      7          6           0        3.569761   -1.517354   -0.055416
      8          6           0        2.141177   -2.074896   -0.035517
      9          6           0        1.309012   -0.868003   -0.477776
     10          6           0        2.291102    0.251283   -0.311215
     11          6           0        0.663020   -0.973138   -1.911338
     12          6           0        1.695312   -2.680781    1.369386
     13          6           0        1.022646   -4.048358    1.294189
     14          6           0        0.045356   -4.249575    0.210774
     15          8           0       -0.087625   -5.218790   -0.519137
     16          8           0       -0.788386   -3.156490    0.136024
     17          7           0        4.054868    2.754851   -0.245116
     18          6           0        2.656274    2.760720   -0.237008
     19          6           0        2.112219    4.093669   -0.422536
     20          6           0        3.257776    4.870338   -0.433530
     21          6           0        4.457147    4.030726   -0.240759
     22          6           0        0.664284    4.578662   -0.462043
     23          6           0        3.355111    6.339141   -0.558442
     24          8           0        4.352706    7.063316   -0.269177
     25          6           0        2.110149    7.208597   -0.877406
     26          7           0        7.058907    2.269773    0.167290
     27          6           0        6.972939    3.608196    0.043517
     28          6           0        8.371515    4.268886    0.035856
     29          6           0        9.324830    2.995770    0.322494
     30          6           0        8.307526    1.862093    0.174451
     31          6           0        8.697108    5.006234   -1.265551
     32          6           0       10.107215    2.863609    1.684784
     33          6           0       10.284978    4.059865    2.620332
     34          7           0        6.614811   -0.526382    0.095725
     35          6           0        7.931237   -0.646478    0.099433
     36          6           0        8.296234   -2.016919    0.198842
     37          6           0        7.083635   -2.737473    0.202317
     38          6           0        6.086461   -1.724784    0.049002
     39          6           0        9.727590   -2.589987    0.155773
     40          6           0        6.484842   -3.999394    0.313620
     41          8           0        7.019386   -5.143689    0.310571
     42          6           0        4.934327   -3.780704    0.305954
     43          6           0        4.246463   -4.667993   -0.703050
     44          8           0        3.893351   -4.338085   -1.815115
     45          8           0        4.138309   -5.969757   -0.224291
     46          6           0        3.407595   -7.012384   -0.994197
     47          6           0       -1.908659   -3.292978   -0.787523
     48          6           0       -3.111295   -2.427630   -0.561502
     49          6           0       -4.262960   -2.464330   -1.288461
     50          6           0       -4.539771   -3.372736   -2.559000
     51          6           0       -5.507609   -1.733054   -0.731948
     52          6           0       -5.995207   -2.366732    0.687617
     53          6           0       -6.718007   -1.171854    1.507941
     54          6           0       -8.188234   -1.518116    1.815064
     55          6           0       -8.359692   -1.794158    3.364218
     56          6           0       -9.230686   -0.400076    1.431851
     57          6           0       -9.801131   -0.807317    0.010056
     58          6           0      -11.330900   -0.932385    0.005728
     59          6           0      -12.187445    0.331613    0.364463
     60          6           0      -12.725116    0.448457    1.819229
     61          6           0      -13.257616    0.622558   -0.646504
     62          6           0      -13.571558    2.118551   -0.856748
     63          6           0      -14.723192    2.674546    0.055142
     64          6           0      -15.877879    3.229843   -0.771472
     65          6           0      -16.774726    4.134285    0.150524
     66          6           0      -16.827981    2.018024   -1.142431
     67          1           0        0.774375    1.718903   -0.279670
     68          1           0        6.051473    5.439792   -0.146292
     69          1           0        9.868992    0.364776    0.012068
     70          1           0        1.969518   -2.885557   -0.744118
     71          1           0        0.477510   -0.671902    0.199052
     72          1           0       -0.375765   -0.682239   -1.759280
     73          1           0        0.570515   -1.998093   -2.272798
     74          1           0        1.256648   -0.470310   -2.674872
     75          1           0        1.099803   -1.909800    1.858983
     76          1           0        2.571879   -2.682484    2.016275
     77          1           0        0.628205   -4.210638    2.296325
     78          1           0        1.782360   -4.785975    1.035677
     79          1           0        0.407864    4.997940   -1.435442
     80          1           0        0.499502    5.318130    0.321361
     81          1           0        0.007462    3.733518   -0.252077
     82          1           0        1.385404    7.337602   -0.073476
     83          1           0        1.619791    6.880496   -1.793332
     84          1           0        2.489134    8.218542   -1.032513
     85          1           0        8.414504    5.042113    0.803714
     86          1           0       10.021975    2.959721   -0.514336
     87          1           0        8.362047    4.392300   -2.101270
     88          1           0        9.763606    5.204851   -1.366089
     89          1           0        8.111563    5.918372   -1.384634
     90          1           0       11.128763    2.510509    1.547248
     91          1           0        9.576037    2.092431    2.242820
     92          1           0       10.260644    4.993531    2.059151
     93          1           0       11.255733    3.970428    3.109279
     94          1           0        9.538133    4.189964    3.402853
     95          1           0       10.298118   -2.546777   -0.771997
     96          1           0        9.743131   -3.578729    0.614669
     97          1           0       10.333016   -2.005907    0.847737
     98          1           0        4.768575   -4.113735    1.330004
     99          1           0        3.981447   -7.307503   -1.872531
    100          1           0        2.382507   -6.650187   -1.069731
    101          1           0        3.405265   -7.919813   -0.389673
    102          1           0       -2.257330   -4.324354   -0.847709
    103          1           0       -1.568648   -2.923199   -1.754167
    104          1           0       -3.147066   -1.735003    0.278865
    105          1           0       -4.699861   -2.736502   -3.428875
    106          1           0       -5.415066   -3.964736   -2.291060
    107          1           0       -3.702997   -4.045669   -2.746809
    108          1           0       -6.382142   -1.594405   -1.366560
    109          1           0       -5.153542   -0.702670   -0.683923
    110          1           0       -5.182069   -2.614845    1.370014
    111          1           0       -6.708707   -3.189474    0.660174
    112          1           0       -6.761535   -0.247371    0.931260
    113          1           0       -6.266916   -0.974235    2.480060
    114          1           0       -8.558628   -2.485415    1.476138
    115          1           0       -9.112832   -2.573973    3.479653
    116          1           0       -8.757889   -0.866998    3.776945
    117          1           0       -7.461338   -1.976232    3.953899
    118          1           0       -8.861174    0.608882    1.247705
    119          1           0      -10.064455   -0.383321    2.134458
    120          1           0       -9.320817   -1.711865   -0.363627
    121          1           0       -9.493319   -0.008155   -0.664607
    122          1           0      -11.618897   -1.637364    0.785533
    123          1           0      -11.785457   -1.395873   -0.871025
    124          1           0      -11.412694    1.095218    0.285678
    125          1           0      -12.272455    1.325190    2.282714
    126          1           0      -12.428892   -0.373857    2.470134
    127          1           0      -13.784808    0.690106    1.903196
    128          1           0      -14.216512    0.173241   -0.388481
    129          1           0      -13.090900    0.192016   -1.633402
    130          1           0      -13.806667    2.300172   -1.905017
    131          1           0      -12.611927    2.570330   -0.604239
    132          1           0      -14.272424    3.439858    0.687052
    133          1           0      -15.135882    1.909773    0.713431
    134          1           0      -15.474117    3.750509   -1.639556
    135          1           0      -16.599377    5.126744   -0.265151
    136          1           0      -16.431625    4.135909    1.185331
    137          1           0      -17.839624    3.932628    0.264107
    138          1           0      -17.261445    2.474435   -2.032723
    139          1           0      -17.600832    1.786584   -0.409176
    140          1           0      -16.355513    1.064719   -1.376737
 ---------------------------------------------------------------------

 SCF Done:  E(RwB97XD) =  -3007.86644925     A.U. after   18 cycles

 Excitation energies and oscillator strengths:

 Excited State   1:      Singlet-A      1.6894 eV  733.87 nm  f=0.3990  <S**2>=0.000
     245 -> 248       -0.18399
     246 -> 247        0.68276
     245 <- 248       -0.11194
 This state for optimization and/or second-order correction.
 Total Energy, E(TD-HF/TD-DFT) =  -3007.80436321
 Copying the excited state density for this state as the 1-particle RhoCI density.

 Excited State   2:      Singlet-A      2.2006 eV  563.42 nm  f=0.1149  <S**2>=0.000
     245 -> 247        0.63778
     246 -> 248        0.28737

 Excited State   3:      Singlet-A      3.3161 eV  373.89 nm  f=0.0035  <S**2>=0.000
     242 -> 247        0.24142
     242 -> 249       -0.17902
     242 -> 250        0.17674
     244 -> 247        0.51406
     244 -> 249       -0.21759
     244 -> 250        0.16210
     246 -> 248       -0.10323

 Excited State   4:      Singlet-A      3.3494 eV  370.17 nm  f=0.0069  <S**2>=0.000
     240 -> 247       -0.17641
     240 -> 249       -0.15408
     241 -> 247        0.47022
     241 -> 248       -0.16441
     241 -> 249        0.33706
     241 -> 250        0.18568
     246 -> 248       -0.10406

 Excited State   5:      Singlet-A      3.5340 eV  350.84 nm  f=0.5610  <S**2>=0.000
     242 -> 247        0.19851
     245 -> 247       -0.25990
     246 -> 248        0.59662
     245 <- 247        0.10653

 The electronic state is 1-A.
 Alpha  occ. eigenvalues --  -46.95473 -19.31169 -19.28311 -19.25988 -19.24044
 Alpha  occ. eigenvalues --  -19.23913 -19.22625 -14.47227 -14.46556 -14.44904
 Alpha  occ. eigenvalues --  -14.43388 -10.44084 -10.42646 -10.39339 -10.38069
 Alpha  occ. eigenvalues --  -10.36352 -10.35606 -10.35272 -10.35010 -10.34809
 Alpha  occ. eigenvalues --  -10.34577 -10.34508 -10.34300 -10.33892 -10.32728
 Alpha  occ. eigenvalues --  -10.32550 -10.32411 -10.32323 -10.32211 -10.32112
 Alpha  occ. eigenvalues --  -10.32008 -10.31915 -10.31782 -10.31739 -10.31707
 Alpha  occ. eigenvalues --  -10.31590 -10.31586 -10.31422 -10.31246 -10.31218
 Alpha  occ. eigenvalues --  -10.30899 -10.30732 -10.30550 -10.30515 -10.30249
 Alpha  occ. eigenvalues --  -10.30231 -10.30041 -10.30012 -10.30007 -10.29799
 Alpha  occ. eigenvalues --  -10.29570 -10.29548 -10.29538 -10.29389 -10.29192
 Alpha  occ. eigenvalues --  -10.29154 -10.29079 -10.28675 -10.28557 -10.28530
 Alpha  occ. eigenvalues --  -10.28426 -10.28411 -10.28302 -10.28278 -10.28212
 Alpha  occ. eigenvalues --  -10.28111  -3.21483  -1.95084  -1.94615  -1.94450
 Alpha  occ. eigenvalues --   -1.19667  -1.16454  -1.10970  -1.10153  -1.08910
 Alpha  occ. eigenvalues --   -1.08553  -1.07710  -1.07133  -1.06795  -1.06016
 Alpha  occ. eigenvalues --   -0.93959  -0.92511  -0.91932  -0.91605  -0.91374
 Alpha  occ. eigenvalues --   -0.90491  -0.89996  -0.89947  -0.89381  -0.89198
 Alpha  occ. eigenvalues --   -0.88084  -0.87514  -0.85904  -0.85240  -0.84967
 Alpha  occ. eigenvalues --   -0.84243  -0.83455  -0.82395  -0.82257  -0.81920
 Alpha  occ. eigenvalues --   -0.81329  -0.81252  -0.80015  -0.79276  -0.77886
 Alpha  occ. eigenvalues --   -0.77756  -0.77322  -0.77299  -0.76710  -0.75986
 Alpha  occ. eigenvalues --   -0.75560  -0.74786  -0.73902  -0.73018  -0.71521
 Alpha  occ. eigenvalues --   -0.71019  -0.70740  -0.69980  -0.69463  -0.67899
 Alpha  occ. eigenvalues --   -0.67239  -0.67137  -0.66697  -0.66273  -0.66095
 Alpha  occ. eigenvalues --   -0.66009  -0.65463  -0.64846  -0.63308  -0.63177
 Alpha  occ. eigenvalues --   -0.62659  -0.61443  -0.61320  -0.60925  -0.59937
 Alpha  occ. eigenvalues --   -0.59335  -0.58833  -0.58501  -0.58048  -0.57698
 Alpha  occ. eigenvalues --   -0.57196  -0.56868  -0.56646  -0.55863  -0.55439
 Alpha  occ. eigenvalues --   -0.55208  -0.55136  -0.55036  -0.54816  -0.54609
 Alpha  occ. eigenvalues --   -0.54492  -0.54199  -0.53995  -0.53712  -0.53474
 Alpha  occ. eigenvalues --   -0.53340  -0.52817  -0.52700  -0.52588  -0.52320
 Alpha  occ. eigenvalues --   -0.52178  -0.52066  -0.51701  -0.51532  -0.51406
 Alpha  occ. eigenvalues --   -0.51301  -0.51110  -0.50921  -0.50832  -0.50656
 Alpha  occ. eigenvalues --   -0.50601  -0.50458  -0.50209  -0.50177  -0.49772
 Alpha  occ. eigenvalues --   -0.49463  -0.49342  -0.49213  -0.49116  -0.48904
 Alpha  occ. eigenvalues --   -0.48658  -0.48371  -0.48128  -0.48041  -0.47892
 Alpha  occ. eigenvalues --   -0.47619  -0.47497  -0.47223  -0.46990  -0.46794
 Alpha  occ. eigenvalues --   -0.46628  -0.46346  -0.46193  -0.46029  -0.45961
 Alpha  occ. eigenvalues --   -0.45916  -0.45852  -0.45507  -0.45256  -0.45142
 Alpha  occ. eigenvalues --   -0.44820  -0.44356  -0.44290  -0.44012  -0.43866
 Alpha  occ. eigenvalues --   -0.43702  -0.43540  -0.43421  -0.43210  -0.43081
 Alpha  occ. eigenvalues --   -0.42826  -0.42570  -0.42369  -0.42205  -0.41749
 Alpha  occ. eigenvalues --   -0.41617  -0.41498  -0.41212  -0.40955  -0.40808
 Alpha  occ. eigenvalues --   -0.40661  -0.40269  -0.40090  -0.40003  -0.39830
 Alpha  occ. eigenvalues --   -0.39644  -0.39082  -0.38885  -0.38233  -0.37544
 Alpha  occ. eigenvalues --   -0.37347  -0.37291  -0.37214  -0.36697  -0.36326
 Alpha  occ. eigenvalues --   -0.35934  -0.35704  -0.35174  -0.34248  -0.32959
 Alpha  occ. eigenvalues --   -0.32675  -0.32035  -0.31637  -0.31376  -0.26016
 Alpha  occ. eigenvalues --   -0.23037
 Alpha virt. eigenvalues --   -0.07032   0.00065   0.01875   0.04237   0.05516
 Alpha virt. eigenvalues --    0.05818   0.06975   0.07910   0.08446   0.09139
 Alpha virt. eigenvalues --    0.10395   0.11582   0.12076   0.12416   0.12679

 Mulliken charges:
               1
     1  Mg   0.980036
     2  C   -0.012762
     3  C   -0.105938
     4  C   -0.091113
     5  C   -0.067918
     6  N   -0.308542
     7  C    0.028291
     8  C   -0.135468
     9  C   -0.097262
    10  C    0.038753
    11  C    0.025864
    12  C    0.043035
    13  C    0.038999
    14  C    0.195778
    15  O   -0.248364
    16  O   -0.373290
    17  N   -0.482424
    18  C    0.184789
    19  C   -0.161227
    20  C   -0.027833
    21  C    0.203032
    22  C    0.099483
    23  C    0.032451
    24  O   -0.272603
    25  C   -0.029336
    26  N   -0.356362
    27  C    0.059280
    28  C   -0.109415
    29  C   -0.049268
    30  C    0.030177
    31  C    0.009085
    32  C   -0.009415
    33  C   -0.057366
    34  N   -0.344703
    35  C    0.076477
    36  C   -0.183525
    37  C    0.006632
    38  C    0.095553
    39  C    0.073801
    40  C    0.063951
    41  O   -0.244555
    42  C   -0.066458
    43  C    0.272709
    44  O   -0.234808
    45  O   -0.395556
    46  C    0.143712
    47  C    0.250819
    48  C   -0.137869
    49  C   -0.221946
    50  C    0.023624
    51  C   -0.008352
    52  C   -0.016246
    53  C    0.036266
    54  C   -0.224263
    55  C   -0.026381
    56  C   -0.001949
    57  C   -0.035798
    58  C    0.025230
    59  C   -0.174560
    60  C    0.008847
    61  C   -0.008929
    62  C   -0.011962
    63  C   -0.002431
    64  C   -0.222896
    65  C   -0.006416
    66  C   -0.030357
    67  H   -0.005311
    68  H    0.023439
    69  H    0.004639
    70  H    0.055112
    71  H    0.030434
    72  H    0.036718
    73  H    0.043527
    74  H    0.052740
    75  H    0.022861
    76  H    0.029670
    77  H    0.074770
    78  H    0.052361
    79  H    0.060002
    80  H    0.057279
    81  H    0.035548
    82  H    0.057086
    83  H    0.039401
    84  H    0.051040
    85  H    0.044703
    86  H    0.032164
    87  H    0.032340
    88  H    0.045255
    89  H    0.050172
    90  H    0.032400
    91  H    0.039224
    92  H    0.029920
    93  H    0.036819
    94  H    0.036870
    95  H    0.057837
    96  H    0.052919
    97  H    0.016911
    98  H    0.076846
    99  H    0.063377
   100  H    0.068722
   101  H    0.046472
   102  H    0.073875
   103  H    0.048933
   104  H    0.022923
   105  H    0.056399
   106  H    0.050120
   107  H    0.034174
   108  H    0.025851
   109  H    0.039970
   110  H    0.033947
   111  H    0.039398
   112  H    0.015811
   113  H    0.022486
   114  H    0.027391
   115  H    0.031580
   116  H    0.021423
   117  H    0.027198
   118  H    0.029358
   119  H    0.016466
   120  H    0.028148
   121  H    0.014584
   122  H   -0.004712
   123  H    0.012313
   124  H    0.009919
   125  H    0.018570
   126  H    0.034571
   127  H    0.028089
   128  H    0.007027
   129  H    0.007631
   130  H    0.020479
   131  H    0.010905
   132  H    0.016440
   133  H    0.018187
   134  H    0.034866
   135  H    0.030517
   136  H    0.024611
   137  H    0.033954
   138  H    0.034607
   139  H    0.037406
   140  H    0.029512
 Sum of Mulliken charges =  -0.00000

 Dipole moment (field-independent basis, Debye):
    X=             -5.5476    Y=              4.0486    Z=              2.0532  Tot=              7.1681
 Quadrupole moment (field-independent basis, Debye-Ang):
   XX=           -393.6498   YY=           -436.5431   ZZ=           -401.1975
   XY=             26.6107   XZ=             11.2061   YZ=             -7.4794

 Normal termination of Gaussian 16 at Wed May  4 10:30:13 2022.
