 Gaussian 16, Revision A.03,
 Gaussian 16:  ES64L-G16RevA.03 25-Dec-2016

 --------------------
 #p ZINDO=(nstates=5)
 --------------------

 ------------------------------
 step_1601_chromophore_18 ZINDO
 ------------------------------
 Symbolic Z-matrix:
 Charge =  0 Multiplicity = 1

                         Standard orientation:
 ---------------------------------------------------------------------
 Center     Atomic      Atomic             Coordinates (Angstroms)
 Number     Number       Type             X           Y           Z
 ---------------------------------------------------------------------
      1         12           0        5.303093    1.183908    0.111238
      2          6           0        4.753289   -2.247005    0.067501
      3          6           0        1.861715    1.621592   -0.258037
      4          6           0        5.796400    4.378611   -0.176077
      5          6           0        8.794563    0.539622    0.093541
      6          7           0        3.565808   -0.193585   -0.199486
      7          6           0        3.569761   -1.517354   -0.055416
      8          6           0        2.141177   -2.074896   -0.035517
      9          6           0        1.309012   -0.868003   -0.477776
     10          6           0        2.291102    0.251283   -0.311215
     11          6           0        0.663020   -0.973138   -1.911338
     12          6           0        1.695312   -2.680781    1.369386
     13          6           0        1.022646   -4.048358    1.294189
     14          6           0        0.045356   -4.249575    0.210774
     15          8           0       -0.087625   -5.218790   -0.519137
     16          8           0       -0.788386   -3.156490    0.136024
     17          7           0        4.054868    2.754851   -0.245116
     18          6           0        2.656274    2.760720   -0.237008
     19          6           0        2.112219    4.093669   -0.422536
     20          6           0        3.257776    4.870338   -0.433530
     21          6           0        4.457147    4.030726   -0.240759
     22          6           0        0.664284    4.578662   -0.462043
     23          6           0        3.355111    6.339141   -0.558442
     24          8           0        4.352706    7.063316   -0.269177
     25          6           0        2.110149    7.208597   -0.877406
     26          7           0        7.058907    2.269773    0.167290
     27          6           0        6.972939    3.608196    0.043517
     28          6           0        8.371515    4.268886    0.035856
     29          6           0        9.324830    2.995770    0.322494
     30          6           0        8.307526    1.862093    0.174451
     31          6           0        8.697108    5.006234   -1.265551
     32          6           0       10.107215    2.863609    1.684784
     33          6           0       10.284978    4.059865    2.620332
     34          7           0        6.614811   -0.526382    0.095725
     35          6           0        7.931237   -0.646478    0.099433
     36          6           0        8.296234   -2.016919    0.198842
     37          6           0        7.083635   -2.737473    0.202317
     38          6           0        6.086461   -1.724784    0.049002
     39          6           0        9.727590   -2.589987    0.155773
     40          6           0        6.484842   -3.999394    0.313620
     41          8           0        7.019386   -5.143689    0.310571
     42          6           0        4.934327   -3.780704    0.305954
     43          6           0        4.246463   -4.667993   -0.703050
     44          8           0        3.893351   -4.338085   -1.815115
     45          8           0        4.138309   -5.969757   -0.224291
     46          6           0        3.407595   -7.012384   -0.994197
     47          6           0       -1.908659   -3.292978   -0.787523
     48          6           0       -3.111295   -2.427630   -0.561502
     49          6           0       -4.262960   -2.464330   -1.288461
     50          6           0       -4.539771   -3.372736   -2.559000
     51          6           0       -5.507609   -1.733054   -0.731948
     52          6           0       -5.995207   -2.366732    0.687617
     53          6           0       -6.718007   -1.171854    1.507941
     54          6           0       -8.188234   -1.518116    1.815064
     55          6           0       -8.359692   -1.794158    3.364218
     56          6           0       -9.230686   -0.400076    1.431851
     57          6           0       -9.801131   -0.807317    0.010056
     58          6           0      -11.330900   -0.932385    0.005728
     59          6           0      -12.187445    0.331613    0.364463
     60          6           0      -12.725116    0.448457    1.819229
     61          6           0      -13.257616    0.622558   -0.646504
     62          6           0      -13.571558    2.118551   -0.856748
     63          6           0      -14.723192    2.674546    0.055142
     64          6           0      -15.877879    3.229843   -0.771472
     65          6           0      -16.774726    4.134285    0.150524
     66          6           0      -16.827981    2.018024   -1.142431
     67          1           0        0.774375    1.718903   -0.279670
     68          1           0        6.051473    5.439792   -0.146292
     69          1           0        9.868992    0.364776    0.012068
     70          1           0        1.969518   -2.885557   -0.744118
     71          1           0        0.477510   -0.671902    0.199052
     72          1           0       -0.375765   -0.682239   -1.759280
     73          1           0        0.570515   -1.998093   -2.272798
     74          1           0        1.256648   -0.470310   -2.674872
     75          1           0        1.099803   -1.909800    1.858983
     76          1           0        2.571879   -2.682484    2.016275
     77          1           0        0.628205   -4.210638    2.296325
     78          1           0        1.782360   -4.785975    1.035677
     79          1           0        0.407864    4.997940   -1.435442
     80          1           0        0.499502    5.318130    0.321361
     81          1           0        0.007462    3.733518   -0.252077
     82          1           0        1.385404    7.337602   -0.073476
     83          1           0        1.619791    6.880496   -1.793332
     84          1           0        2.489134    8.218542   -1.032513
     85          1           0        8.414504    5.042113    0.803714
     86          1           0       10.021975    2.959721   -0.514336
     87          1           0        8.362047    4.392300   -2.101270
     88          1           0        9.763606    5.204851   -1.366089
     89          1           0        8.111563    5.918372   -1.384634
     90          1           0       11.128763    2.510509    1.547248
     91          1           0        9.576037    2.092431    2.242820
     92          1           0       10.260644    4.993531    2.059151
     93          1           0       11.255733    3.970428    3.109279
     94          1           0        9.538133    4.189964    3.402853
     95          1           0       10.298118   -2.546777   -0.771997
     96          1           0        9.743131   -3.578729    0.614669
     97          1           0       10.333016   -2.005907    0.847737
     98          1           0        4.768575   -4.113735    1.330004
     99          1           0        3.981447   -7.307503   -1.872531
    100          1           0        2.382507   -6.650187   -1.069731
    101          1           0        3.405265   -7.919813   -0.389673
    102          1           0       -2.257330   -4.324354   -0.847709
    103          1           0       -1.568648   -2.923199   -1.754167
    104          1           0       -3.147066   -1.735003    0.278865
    105          1           0       -4.699861   -2.736502   -3.428875
    106          1           0       -5.415066   -3.964736   -2.291060
    107          1           0       -3.702997   -4.045669   -2.746809
    108          1           0       -6.382142   -1.594405   -1.366560
    109          1           0       -5.153542   -0.702670   -0.683923
    110          1           0       -5.182069   -2.614845    1.370014
    111          1           0       -6.708707   -3.189474    0.660174
    112          1           0       -6.761535   -0.247371    0.931260
    113          1           0       -6.266916   -0.974235    2.480060
    114          1           0       -8.558628   -2.485415    1.476138
    115          1           0       -9.112832   -2.573973    3.479653
    116          1           0       -8.757889   -0.866998    3.776945
    117          1           0       -7.461338   -1.976232    3.953899
    118          1           0       -8.861174    0.608882    1.247705
    119          1           0      -10.064455   -0.383321    2.134458
    120          1           0       -9.320817   -1.711865   -0.363627
    121          1           0       -9.493319   -0.008155   -0.664607
    122          1           0      -11.618897   -1.637364    0.785533
    123          1           0      -11.785457   -1.395873   -0.871025
    124          1           0      -11.412694    1.095218    0.285678
    125          1           0      -12.272455    1.325190    2.282714
    126          1           0      -12.428892   -0.373857    2.470134
    127          1           0      -13.784808    0.690106    1.903196
    128          1           0      -14.216512    0.173241   -0.388481
    129          1           0      -13.090900    0.192016   -1.633402
    130          1           0      -13.806667    2.300172   -1.905017
    131          1           0      -12.611927    2.570330   -0.604239
    132          1           0      -14.272424    3.439858    0.687052
    133          1           0      -15.135882    1.909773    0.713431
    134          1           0      -15.474117    3.750509   -1.639556
    135          1           0      -16.599377    5.126744   -0.265151
    136          1           0      -16.431625    4.135909    1.185331
    137          1           0      -17.839624    3.932628    0.264107
    138          1           0      -17.261445    2.474435   -2.032723
    139          1           0      -17.600832    1.786584   -0.409176
    140          1           0      -16.355513    1.064719   -1.376737
 ---------------------------------------------------------------------

 SCF Done:  E(RZINDO/S) =  -474.215156509     A.U. after   18 cycles

 Excitation energies and oscillator strengths:

 Excited State   1:      Singlet-A      1.3007 eV  953.21 nm  f=0.6039  <S**2>=0.000
     175 ->178         0.17775
     176 ->177         0.66678
 This state for optimization and/or second-order correction.
 Total Energy, E(CIS/TDA) =  -474.167356821
 Copying the excited state density for this state as the 1-particle RhoCI density.

 Excited State   2:      Singlet-A      1.9360 eV  640.40 nm  f=0.0375  <S**2>=0.000
     175 ->177         0.53774
     176 ->178        -0.42930

 Excited State   3:      Singlet-A      2.7450 eV  451.67 nm  f=0.0052  <S**2>=0.000
     167 ->179        -0.11928
     168 ->177         0.31988
     168 ->178        -0.12316
     168 ->179        -0.43553
     168 ->180         0.21256
     168 ->184        -0.12948
     168 ->186         0.17176

 Excited State   4:      Singlet-A      2.9303 eV  423.11 nm  f=0.1539  <S**2>=0.000
     170 ->180         0.10423
     171 ->177         0.25437
     171 ->178        -0.10308
     171 ->179         0.22260
     171 ->180         0.32277
     171 ->186        -0.13446
     171 ->187         0.11725
     171 ->203        -0.10455
     174 ->177         0.12079
     175 ->177         0.16652
     176 ->178         0.20935
     176 ->179        -0.18818
     176 ->180        -0.13299

 Excited State   5:      Singlet-A      2.9787 eV  416.24 nm  f=0.0972  <S**2>=0.000
     170 ->180         0.12096
     171 ->177         0.11850
     171 ->179         0.11074
     171 ->180         0.13863
     176 ->179         0.55025
     176 ->180         0.25381

 The electronic state is 1-A.
 Alpha  occ. eigenvalues --   -1.86045  -1.83516  -1.82792  -1.75597  -1.72536
 Alpha  occ. eigenvalues --   -1.69255  -1.65767  -1.60429  -1.57321  -1.56196
 Alpha  occ. eigenvalues --   -1.54041  -1.50700  -1.47536  -1.46785  -1.46001
 Alpha  occ. eigenvalues --   -1.45699  -1.42791  -1.41103  -1.39409  -1.38603
 Alpha  occ. eigenvalues --   -1.36552  -1.33882  -1.31248  -1.30526  -1.29224
 Alpha  occ. eigenvalues --   -1.25546  -1.24534  -1.20811  -1.19846  -1.18334
 Alpha  occ. eigenvalues --   -1.17542  -1.16486  -1.15640  -1.13931  -1.13621
 Alpha  occ. eigenvalues --   -1.13487  -1.12509  -1.10096  -1.05670  -1.03543
 Alpha  occ. eigenvalues --   -1.02375  -1.01383  -0.99035  -0.98853  -0.97629
 Alpha  occ. eigenvalues --   -0.95994  -0.94789  -0.94539  -0.93954  -0.91613
 Alpha  occ. eigenvalues --   -0.91154  -0.90756  -0.89332  -0.88938  -0.88013
 Alpha  occ. eigenvalues --   -0.86428  -0.85620  -0.83182  -0.82253  -0.81431
 Alpha  occ. eigenvalues --   -0.79582  -0.78653  -0.76684  -0.76016  -0.75901
 Alpha  occ. eigenvalues --   -0.75300  -0.74853  -0.74245  -0.73887  -0.73655
 Alpha  occ. eigenvalues --   -0.72697  -0.72089  -0.71348  -0.71225  -0.70564
 Alpha  occ. eigenvalues --   -0.70157  -0.68821  -0.68653  -0.68641  -0.67782
 Alpha  occ. eigenvalues --   -0.67684  -0.66920  -0.66355  -0.66247  -0.65511
 Alpha  occ. eigenvalues --   -0.65226  -0.65046  -0.64023  -0.63917  -0.63756
 Alpha  occ. eigenvalues --   -0.63148  -0.62996  -0.62576  -0.62305  -0.61868
 Alpha  occ. eigenvalues --   -0.61664  -0.61280  -0.61076  -0.60662  -0.59862
 Alpha  occ. eigenvalues --   -0.59454  -0.59215  -0.59168  -0.58663  -0.58321
 Alpha  occ. eigenvalues --   -0.58269  -0.57794  -0.57386  -0.57103  -0.56810
 Alpha  occ. eigenvalues --   -0.56545  -0.55864  -0.55706  -0.55510  -0.55263
 Alpha  occ. eigenvalues --   -0.55125  -0.54658  -0.54142  -0.53418  -0.52915
 Alpha  occ. eigenvalues --   -0.52835  -0.52246  -0.52243  -0.52223  -0.51886
 Alpha  occ. eigenvalues --   -0.51701  -0.51457  -0.51206  -0.50663  -0.50236
 Alpha  occ. eigenvalues --   -0.50171  -0.49427  -0.49130  -0.48952  -0.48612
 Alpha  occ. eigenvalues --   -0.48407  -0.48074  -0.47956  -0.47874  -0.47806
 Alpha  occ. eigenvalues --   -0.47530  -0.47422  -0.47271  -0.46953  -0.46549
 Alpha  occ. eigenvalues --   -0.46219  -0.45952  -0.45817  -0.45623  -0.45416
 Alpha  occ. eigenvalues --   -0.45260  -0.45122  -0.44458  -0.44400  -0.43729
 Alpha  occ. eigenvalues --   -0.43603  -0.43011  -0.42818  -0.42600  -0.42354
 Alpha  occ. eigenvalues --   -0.42113  -0.41530  -0.40994  -0.39453  -0.39359
 Alpha  occ. eigenvalues --   -0.38029  -0.36782  -0.35863  -0.35124  -0.34490
 Alpha  occ. eigenvalues --   -0.34004  -0.32608  -0.31818  -0.31687  -0.26867
 Alpha  occ. eigenvalues --   -0.21985
 Alpha virt. eigenvalues --   -0.08543  -0.02350  -0.01228   0.00972   0.01498
 Alpha virt. eigenvalues --    0.02040   0.03196   0.03262   0.03963   0.04365
 Alpha virt. eigenvalues --    0.06257   0.06425   0.07029   0.07379   0.07824

 Mulliken charges:
               1
     1  Mg   0.432085
     2  C   -0.040100
     3  C   -0.082075
     4  C   -0.083623
     5  C   -0.090443
     6  N   -0.262801
     7  C    0.109328
     8  C    0.000026
     9  C    0.007000
    10  C    0.154897
    11  C   -0.052523
    12  C   -0.027808
    13  C    0.013177
    14  C    0.480794
    15  O   -0.513015
    16  O   -0.281373
    17  N   -0.332655
    18  C    0.123760
    19  C    0.031257
    20  C   -0.024593
    21  C    0.165109
    22  C   -0.034325
    23  C    0.313860
    24  O   -0.533138
    25  C   -0.037234
    26  N   -0.250472
    27  C    0.164309
    28  C    0.002583
    29  C   -0.005620
    30  C    0.117000
    31  C   -0.046472
    32  C   -0.025792
    33  C   -0.056147
    34  N   -0.293205
    35  C    0.081076
    36  C    0.006391
    37  C   -0.059506
    38  C    0.093893
    39  C   -0.046410
    40  C    0.331459
    41  O   -0.555415
    42  C    0.050798
    43  C    0.489254
    44  O   -0.516564
    45  O   -0.284971
    46  C    0.074994
    47  C    0.106506
    48  C   -0.082131
    49  C   -0.033349
    50  C   -0.047721
    51  C   -0.024070
    52  C   -0.041145
    53  C   -0.043912
    54  C   -0.022007
    55  C   -0.073409
    56  C   -0.041922
    57  C   -0.037810
    58  C   -0.037359
    59  C   -0.004086
    60  C   -0.058677
    61  C   -0.028778
    62  C   -0.047112
    63  C   -0.032248
    64  C   -0.011306
    65  C   -0.063941
    66  C   -0.063706
    67  H    0.028133
    68  H    0.040338
    69  H    0.033207
    70  H    0.044864
    71  H    0.025527
    72  H    0.022579
    73  H    0.026187
    74  H    0.034036
    75  H    0.020542
    76  H    0.019120
    77  H    0.049529
    78  H    0.041014
    79  H    0.040266
    80  H    0.036861
    81  H    0.022208
    82  H    0.041800
    83  H    0.026686
    84  H    0.033171
    85  H    0.035782
    86  H    0.029158
    87  H    0.017172
    88  H    0.023655
    89  H    0.025250
    90  H    0.022912
    91  H    0.022059
    92  H    0.016289
    93  H    0.017330
    94  H    0.020651
    95  H    0.038611
    96  H    0.031163
    97  H    0.009858
    98  H    0.062638
    99  H    0.055400
   100  H    0.054086
   101  H    0.027179
   102  H    0.061587
   103  H    0.047337
   104  H    0.032261
   105  H    0.033649
   106  H    0.029956
   107  H    0.024467
   108  H    0.025133
   109  H    0.022564
   110  H    0.026206
   111  H    0.037959
   112  H    0.020136
   113  H    0.025738
   114  H    0.029863
   115  H    0.016955
   116  H    0.010097
   117  H    0.021028
   118  H    0.028038
   119  H    0.027822
   120  H    0.020755
   121  H    0.010515
   122  H    0.006852
   123  H    0.016923
   124  H    0.013692
   125  H    0.008426
   126  H    0.023006
   127  H    0.025439
   128  H    0.011745
   129  H    0.009934
   130  H    0.020199
   131  H    0.016950
   132  H    0.010790
   133  H    0.024125
   134  H    0.035554
   135  H    0.011587
   136  H    0.015672
   137  H    0.026012
   138  H    0.012884
   139  H    0.025541
   140  H    0.018753
 Sum of Mulliken charges =   0.00000

 Dipole moment (field-independent basis, Debye):
    X=             -8.4951    Y=              7.4047    Z=              3.5205  Tot=             11.8064
 N-N= 4.292592841878D+03 E-N= 0.000000000000D+00  KE=-9.259125053780D+03
 Leave Link  601 at Wed May  4 10:42:48 2022, MaxMem=  6710886400 cpu:               0.8 elap:               0.0
 (Enter /sw/apps/gaussian-16.0/g16/l9999.exe)
 1\1\GINC-BP1-COMPUTE122\SP\RZINDO CIS\STO-3G\C55H74Mg1N4O6\OF15641\04-
 May-2022\0\\#p ZINDO=(nstates=5)\\step_1601_chromophore_18 ZINDO\\0,1\
 Mg,0,34.724,48.69,25.544\C,0,34.981,46.985,28.561\C,0,33.043,51.224,27
 .254\C,0,34.177,50.166,22.706\C,0,36.099,45.849,23.918\N,0,33.995,48.9
 56,27.644\C,0,34.322,48.208,28.696\C,0,33.891,48.879,30.006\C,0,33.,50
 .023,29.514\C,0,33.354,50.075,28.059\C,0,31.461,49.867,29.815\C,0,35.1
 02,49.359,30.924\C,0,34.983,48.975,32.396\C,0,33.656,49.126,33.017\O,0

 Normal termination of Gaussian 16 at Wed May  4 10:42:48 2022.
