 Gaussian 16, Revision A.03,
 Gaussian 16:  ES64L-G16RevA.03 25-Dec-2016

 ------------------------------
 #p blyp/Def2SVP td=(nstates=5)
 ------------------------------

 --------------------------------------------------
 step_701_chromophore_19 TDDFT with blyp functional
 --------------------------------------------------
 Symbolic Z-matrix:
 Charge =  0 Multiplicity = 1

                         Standard orientation:
 ---------------------------------------------------------------------
 Center     Atomic      Atomic             Coordinates (Angstroms)
 Number     Number       Type             X           Y           Z
 ---------------------------------------------------------------------
      1         12           0       -5.937291    0.390362   -0.316538
      2          6           0       -3.477473   -2.190083   -0.091401
      3          6           0       -3.437300    2.584344    0.427968
      4          6           0       -8.313386    2.639097    0.166204
      5          6           0       -8.371478   -2.068395   -0.607585
      6          7           0       -3.749615    0.198971    0.385372
      7          6           0       -2.941974   -0.873539    0.154899
      8          6           0       -1.432691   -0.556443    0.210130
      9          6           0       -1.482100    0.963986    0.710813
     10          6           0       -2.962609    1.297952    0.615485
     11          6           0       -0.784784    1.276307    2.076955
     12          6           0       -0.730140   -0.867548   -1.141925
     13          6           0        0.623826   -1.612854   -1.001630
     14          6           0        1.589677   -1.217342    0.151493
     15          8           0        1.673363   -1.776887    1.229109
     16          8           0        2.457318   -0.206787   -0.269616
     17          7           0       -5.895686    2.368868   -0.083072
     18          6           0       -4.780889    3.075733    0.225646
     19          6           0       -5.127150    4.500114    0.288774
     20          6           0       -6.512496    4.576835    0.181151
     21          6           0       -6.979931    3.152153    0.052083
     22          6           0       -4.064603    5.627050    0.498400
     23          6           0       -7.423592    5.835046    0.452107
     24          8           0       -8.634022    5.769956    0.431484
     25          6           0       -6.852682    7.244818    0.532900
     26          7           0       -8.176500    0.238773   -0.097244
     27          6           0       -8.866276    1.351137    0.181494
     28          6           0      -10.363897    0.983933    0.360003
     29          6           0      -10.375808   -0.407697   -0.411657
     30          6           0       -8.850727   -0.731882   -0.387376
     31          6           0      -10.946387    0.992432    1.739216
     32          6           0      -11.049384   -0.524787   -1.840819
     33          6           0      -12.064952   -1.557395   -2.133453
     34          7           0       -5.950007   -1.702116   -0.207827
     35          6           0       -7.026818   -2.552947   -0.426620
     36          6           0       -6.527939   -3.904950   -0.601544
     37          6           0       -5.146597   -3.777907   -0.452871
     38          6           0       -4.839816   -2.434322   -0.244232
     39          6           0       -7.369488   -4.996907   -0.980856
     40          6           0       -3.931673   -4.555272   -0.655145
     41          8           0       -3.831524   -5.682958   -0.931391
     42          6           0       -2.773768   -3.530257   -0.323991
     43          6           0       -2.031062   -3.958109    0.861819
     44          8           0       -2.341412   -3.665881    2.036571
     45          8           0       -0.893650   -4.677917    0.577997
     46          6           0       -0.023621   -4.866958    1.812740
     47          6           0        3.573281    0.212006    0.664096
     48          6           0        4.871202   -0.326278    0.184693
     49          6           0        6.173209    0.131962    0.246793
     50          6           0        6.495518    1.442442    0.890905
     51          6           0        7.133375   -0.540417   -0.684396
     52          6           0        8.595710   -0.044601   -0.866772
     53          6           0        8.819226    0.365478   -2.315625
     54          6           0        9.844178    1.488300   -2.483602
     55          6           0        9.384471    2.697372   -3.383138
     56          6           0       11.128906    0.970476   -3.221857
     57          6           0       12.387308    1.715954   -2.561782
     58          6           0       13.479008    0.649039   -2.267519
     59          6           0       13.996918    0.612289   -0.801111
     60          6           0       15.515565    0.995336   -0.769998
     61          6           0       13.616983   -0.738711   -0.130274
     62          6           0       12.286532   -0.645146    0.703813
     63          6           0       12.616794   -0.838292    2.228361
     64          6           0       11.609254   -0.159672    3.077417
     65          6           0       11.985998    1.228194    3.614742
     66          6           0       11.187006   -1.127347    4.206426
     67          1           0       -2.603366    3.281164    0.532549
     68          1           0       -9.052366    3.442170    0.172378
     69          1           0       -9.140797   -2.828057   -0.764718
     70          1           0       -0.911962   -1.161088    0.951750
     71          1           0       -1.074650    1.599843   -0.073963
     72          1           0       -1.458166    1.858036    2.705933
     73          1           0        0.131486    1.860986    2.003966
     74          1           0       -0.717650    0.343500    2.637294
     75          1           0       -0.670633    0.071880   -1.691915
     76          1           0       -1.345742   -1.417365   -1.853477
     77          1           0        1.109174   -1.458153   -1.964793
     78          1           0        0.435181   -2.651278   -0.728608
     79          1           0       -4.186699    6.499380   -0.144083
     80          1           0       -3.016145    5.381456    0.669910
     81          1           0       -4.399035    5.970162    1.476683
     82          1           0       -6.268385    7.442181   -0.365286
     83          1           0       -6.202845    7.261433    1.407566
     84          1           0       -7.626622    8.007474    0.618310
     85          1           0      -10.895467    1.689151   -0.278609
     86          1           0      -10.837766   -1.072117    0.318257
     87          1           0      -11.777276    1.697285    1.718421
     88          1           0      -10.115205    1.280640    2.382531
     89          1           0      -11.549287    0.112081    1.961321
     90          1           0      -10.259338   -0.671874   -2.577193
     91          1           0      -11.531823    0.400302   -2.158236
     92          1           0      -12.956276   -1.024232   -2.465458
     93          1           0      -12.357315   -2.014281   -1.187097
     94          1           0      -11.814245   -2.414284   -2.757380
     95          1           0       -7.152289   -5.371286   -1.981026
     96          1           0       -8.390836   -4.627954   -1.072281
     97          1           0       -7.336761   -5.736194   -0.180593
     98          1           0       -2.188695   -3.571113   -1.243139
     99          1           0       -0.501580   -5.328078    2.676412
    100          1           0        0.402059   -3.904092    2.097269
    101          1           0        0.842652   -5.446894    1.493874
    102          1           0        3.402587    0.063614    1.730851
    103          1           0        3.649351    1.297208    0.598835
    104          1           0        4.631429   -1.326374   -0.177434
    105          1           0        7.003544    1.961556    0.078865
    106          1           0        7.134608    1.287255    1.760796
    107          1           0        5.624811    1.990546    1.250491
    108          1           0        6.754280   -0.766242   -1.680896
    109          1           0        7.233988   -1.458479   -0.106232
    110          1           0        9.320456   -0.773649   -0.503286
    111          1           0        8.780842    0.812664   -0.219913
    112          1           0        7.876599    0.597920   -2.810800
    113          1           0        9.053732   -0.592295   -2.779559
    114          1           0       10.079726    1.843015   -1.480957
    115          1           0        8.671318    2.304744   -4.107238
    116          1           0       10.111151    3.186925   -4.031283
    117          1           0        8.710855    3.381711   -2.867884
    118          1           0       11.152769    1.258501   -4.272732
    119          1           0       11.122724   -0.118220   -3.271733
    120          1           0       12.078051    2.208643   -1.639615
    121          1           0       12.709905    2.491456   -3.256579
    122          1           0       14.245634    1.046625   -2.933920
    123          1           0       13.248592   -0.358629   -2.611559
    124          1           0       13.458828    1.388149   -0.256502
    125          1           0       15.578653    1.967681   -0.283186
    126          1           0       16.069678    1.068319   -1.705861
    127          1           0       16.096268    0.284164   -0.183736
    128          1           0       14.440351   -1.121487    0.472803
    129          1           0       13.395252   -1.519271   -0.857896
    130          1           0       11.513550   -1.362809    0.427711
    131          1           0       11.929949    0.368633    0.521305
    132          1           0       13.597229   -0.395368    2.401648
    133          1           0       12.613120   -1.911217    2.425080
    134          1           0       10.665016   -0.066775    2.540022
    135          1           0       11.035631    1.743938    3.753293
    136          1           0       12.574297    1.775425    2.878661
    137          1           0       12.486325    1.268334    4.582800
    138          1           0       11.987564   -1.143412    4.945312
    139          1           0       11.025495   -2.087192    3.714836
    140          1           0       10.261345   -0.610776    4.461480
 ---------------------------------------------------------------------

 SCF Done:  E(RB-LYP) =  -3007.30123503     A.U. after   19 cycles

 Excitation energies and oscillator strengths:

 Excited State   1:      Singlet-A      1.8651 eV  664.76 nm  f=0.2625  <S**2>=0.000
     245 -> 248        0.22224
     246 -> 247        0.67525
     246 <- 247       -0.12624
 This state for optimization and/or second-order correction.
 Total Energy, E(TD-HF/TD-DFT) =  -3007.23269360
 Copying the excited state density for this state as the 1-particle RhoCI density.

 Excited State   2:      Singlet-A      2.0703 eV  598.87 nm  f=0.0676  <S**2>=0.000
     244 -> 247        0.14171
     245 -> 247        0.62903
     246 -> 248       -0.25982

 Excited State   3:      Singlet-A      2.1539 eV  575.62 nm  f=0.0036  <S**2>=0.000
     244 -> 247        0.69176
     245 -> 247       -0.12081

 Excited State   4:      Singlet-A      2.2611 eV  548.33 nm  f=0.0000  <S**2>=0.000
     243 -> 247        0.70690

 Excited State   5:      Singlet-A      2.3244 eV  533.40 nm  f=0.0002  <S**2>=0.000
     242 -> 247        0.70424

 The electronic state is 1-A.
 Alpha  occ. eigenvalues --  -46.27822 -18.82433 -18.81550 -18.78058 -18.76388
 Alpha  occ. eigenvalues --  -18.75640 -18.75362 -14.02680 -14.02088 -14.01502
 Alpha  occ. eigenvalues --  -14.00256 -10.04955 -10.02983 -10.00157  -9.99501
 Alpha  occ. eigenvalues --   -9.98213  -9.96582  -9.96426  -9.95953  -9.95699
 Alpha  occ. eigenvalues --   -9.95610  -9.95516  -9.95479  -9.95286  -9.94187
 Alpha  occ. eigenvalues --   -9.93994  -9.93936  -9.93926  -9.93774  -9.93722
 Alpha  occ. eigenvalues --   -9.93662  -9.93618  -9.93337  -9.93214  -9.93139
 Alpha  occ. eigenvalues --   -9.92986  -9.92910  -9.92819  -9.92755  -9.92547
 Alpha  occ. eigenvalues --   -9.92474  -9.92366  -9.92364  -9.92258  -9.92154
 Alpha  occ. eigenvalues --   -9.92146  -9.92061  -9.92060  -9.91822  -9.91738
 Alpha  occ. eigenvalues --   -9.91711  -9.91618  -9.91466  -9.91415  -9.91375
 Alpha  occ. eigenvalues --   -9.91275  -9.91274  -9.91263  -9.91254  -9.91122
 Alpha  occ. eigenvalues --   -9.91011  -9.90845  -9.90787  -9.90663  -9.90658
 Alpha  occ. eigenvalues --   -9.90075  -2.92416  -1.72819  -1.72348  -1.72099
 Alpha  occ. eigenvalues --   -0.97232  -0.95874  -0.94763  -0.92111  -0.90116
 Alpha  occ. eigenvalues --   -0.89309  -0.87197  -0.86265  -0.85971  -0.84896
 Alpha  occ. eigenvalues --   -0.75113  -0.74179  -0.73239  -0.72562  -0.72254
 Alpha  occ. eigenvalues --   -0.71840  -0.71451  -0.71144  -0.70732  -0.70318
 Alpha  occ. eigenvalues --   -0.69761  -0.68850  -0.68174  -0.67744  -0.66812
 Alpha  occ. eigenvalues --   -0.66395  -0.65618  -0.65023  -0.64552  -0.63965
 Alpha  occ. eigenvalues --   -0.63822  -0.62416  -0.62222  -0.61600  -0.61516
 Alpha  occ. eigenvalues --   -0.60660  -0.60459  -0.60282  -0.59389  -0.58704
 Alpha  occ. eigenvalues --   -0.57984  -0.57178  -0.56821  -0.56020  -0.53851
 Alpha  occ. eigenvalues --   -0.53613  -0.53242  -0.52374  -0.52172  -0.51876
 Alpha  occ. eigenvalues --   -0.51319  -0.51098  -0.50963  -0.50556  -0.49755
 Alpha  occ. eigenvalues --   -0.49555  -0.49234  -0.48562  -0.47492  -0.46870
 Alpha  occ. eigenvalues --   -0.46424  -0.45782  -0.45621  -0.44941  -0.44422
 Alpha  occ. eigenvalues --   -0.44136  -0.43133  -0.42930  -0.42660  -0.42139
 Alpha  occ. eigenvalues --   -0.41931  -0.41672  -0.41538  -0.41312  -0.41113
 Alpha  occ. eigenvalues --   -0.40891  -0.40519  -0.40205  -0.40125  -0.39944
 Alpha  occ. eigenvalues --   -0.39685  -0.39463  -0.39376  -0.39200  -0.39005
 Alpha  occ. eigenvalues --   -0.38898  -0.38839  -0.38747  -0.38454  -0.38123
 Alpha  occ. eigenvalues --   -0.37964  -0.37904  -0.37763  -0.37343  -0.37305
 Alpha  occ. eigenvalues --   -0.37158  -0.36897  -0.36757  -0.36610  -0.36529
 Alpha  occ. eigenvalues --   -0.36444  -0.36292  -0.36109  -0.35863  -0.35757
 Alpha  occ. eigenvalues --   -0.35624  -0.35275  -0.35210  -0.35071  -0.34660
 Alpha  occ. eigenvalues --   -0.34513  -0.34432  -0.34363  -0.34234  -0.34121
 Alpha  occ. eigenvalues --   -0.33769  -0.33476  -0.33377  -0.33190  -0.33044
 Alpha  occ. eigenvalues --   -0.33009  -0.32552  -0.32387  -0.32310  -0.32079
 Alpha  occ. eigenvalues --   -0.31992  -0.31929  -0.31787  -0.31604  -0.31486
 Alpha  occ. eigenvalues --   -0.31353  -0.31284  -0.30967  -0.30906  -0.30645
 Alpha  occ. eigenvalues --   -0.30495  -0.30242  -0.30002  -0.29955  -0.29850
 Alpha  occ. eigenvalues --   -0.29737  -0.29417  -0.29192  -0.29064  -0.28989
 Alpha  occ. eigenvalues --   -0.28495  -0.28293  -0.28237  -0.28198  -0.28055
 Alpha  occ. eigenvalues --   -0.27710  -0.27295  -0.27165  -0.26997  -0.26971
 Alpha  occ. eigenvalues --   -0.26897  -0.26320  -0.25904  -0.25727  -0.25516
 Alpha  occ. eigenvalues --   -0.24860  -0.24123  -0.23461  -0.23264  -0.22916
 Alpha  occ. eigenvalues --   -0.22811  -0.22185  -0.21717  -0.20922  -0.20623
 Alpha  occ. eigenvalues --   -0.20314  -0.19071  -0.18972  -0.18507  -0.16558
 Alpha  occ. eigenvalues --   -0.15358
 Alpha virt. eigenvalues --   -0.10663  -0.06716  -0.05454  -0.04064  -0.03900
 Alpha virt. eigenvalues --   -0.03361  -0.02762  -0.02039  -0.00587   0.00464
 Alpha virt. eigenvalues --    0.00921   0.01976   0.02161   0.02348   0.02905

 Mulliken charges:
               1
     1  Mg   0.709711
     2  C    0.002890
     3  C   -0.078561
     4  C   -0.014820
     5  C   -0.066936
     6  N   -0.186604
     7  C   -0.100038
     8  C   -0.018864
     9  C    0.007709
    10  C   -0.002953
    11  C    0.149106
    12  C    0.127068
    13  C    0.129114
    14  C    0.089013
    15  O   -0.180038
    16  O   -0.299883
    17  N   -0.301392
    18  C    0.154344
    19  C   -0.136911
    20  C    0.009489
    21  C    0.056889
    22  C    0.170584
    23  C   -0.061980
    24  O   -0.152512
    25  C    0.129369
    26  N   -0.067900
    27  C   -0.026104
    28  C   -0.016565
    29  C    0.004892
    30  C   -0.069251
    31  C    0.192519
    32  C    0.116156
    33  C    0.071085
    34  N   -0.244549
    35  C    0.101280
    36  C   -0.168960
    37  C    0.052398
    38  C    0.101158
    39  C    0.200674
    40  C   -0.091144
    41  O   -0.051455
    42  C    0.067353
    43  C    0.140681
    44  O   -0.217339
    45  O   -0.282588
    46  C    0.217157
    47  C    0.322767
    48  C   -0.144988
    49  C   -0.128923
    50  C    0.153956
    51  C    0.110707
    52  C    0.042422
    53  C    0.094608
    54  C   -0.051353
    55  C    0.101749
    56  C    0.068988
    57  C    0.049766
    58  C    0.119298
    59  C   -0.071924
    60  C    0.100345
    61  C    0.121895
    62  C   -0.001713
    63  C    0.124845
    64  C   -0.109006
    65  C    0.112683
    66  C    0.094693
    67  H   -0.070926
    68  H   -0.045486
    69  H   -0.059749
    70  H    0.009410
    71  H   -0.030033
    72  H   -0.020998
    73  H   -0.000214
    74  H    0.004300
    75  H   -0.035049
    76  H   -0.018558
    77  H   -0.001707
    78  H    0.013905
    79  H    0.000897
    80  H   -0.006718
    81  H   -0.005744
    82  H    0.013975
    83  H   -0.004337
    84  H   -0.003195
    85  H   -0.033886
    86  H   -0.037149
    87  H   -0.018056
    88  H    0.010247
    89  H   -0.017966
    90  H   -0.026517
    91  H   -0.023747
    92  H   -0.011821
    93  H   -0.029209
    94  H    0.000698
    95  H    0.008628
    96  H   -0.043029
    97  H    0.014861
    98  H   -0.009255
    99  H    0.026420
   100  H    0.022519
   101  H    0.001320
   102  H    0.012707
   103  H   -0.019776
   104  H   -0.034836
   105  H    0.016270
   106  H    0.006297
   107  H   -0.021436
   108  H    0.001641
   109  H   -0.018790
   110  H   -0.022470
   111  H   -0.038619
   112  H   -0.035970
   113  H   -0.030611
   114  H   -0.020188
   115  H   -0.035003
   116  H   -0.003201
   117  H   -0.027874
   118  H   -0.034880
   119  H   -0.030306
   120  H   -0.024303
   121  H   -0.024803
   122  H   -0.040850
   123  H   -0.024328
   124  H   -0.031512
   125  H   -0.018385
   126  H   -0.011635
   127  H   -0.026030
   128  H   -0.033874
   129  H   -0.042464
   130  H   -0.006671
   131  H   -0.017609
   132  H   -0.036033
   133  H   -0.037923
   134  H   -0.040789
   135  H   -0.024551
   136  H   -0.016967
   137  H   -0.012127
   138  H   -0.006049
   139  H   -0.012850
   140  H   -0.021144
 Sum of Mulliken charges =  -0.00000

 Dipole moment (field-independent basis, Debye):
    X=              3.6412    Y=              3.8582    Z=             -2.6207  Tot=              5.9171
 Quadrupole moment (field-independent basis, Debye-Ang):
   XX=           -376.2146   YY=           -425.8964   ZZ=           -406.3873
   XY=             12.8194   XZ=             11.5514   YZ=              5.1148

 Normal termination of Gaussian 16 at Thu May  5 06:44:39 2022.
