 Gaussian 16, Revision A.03,
 Gaussian 16:  ES64L-G16RevA.03 25-Dec-2016

 -----------------------------------
 #p cam-b3lyp/Def2SVP td=(nstates=5)
 -----------------------------------

 -------------------------------------------------------
 step_701_chromophore_19 TDDFT with cam-b3lyp functional
 -------------------------------------------------------
 Symbolic Z-matrix:
 Charge =  0 Multiplicity = 1

                         Standard orientation:
 ---------------------------------------------------------------------
 Center     Atomic      Atomic             Coordinates (Angstroms)
 Number     Number       Type             X           Y           Z
 ---------------------------------------------------------------------
      1         12           0       -5.937291    0.390362   -0.316538
      2          6           0       -3.477473   -2.190083   -0.091401
      3          6           0       -3.437300    2.584344    0.427968
      4          6           0       -8.313386    2.639097    0.166204
      5          6           0       -8.371478   -2.068395   -0.607585
      6          7           0       -3.749615    0.198971    0.385372
      7          6           0       -2.941974   -0.873539    0.154899
      8          6           0       -1.432691   -0.556443    0.210130
      9          6           0       -1.482100    0.963986    0.710813
     10          6           0       -2.962609    1.297952    0.615485
     11          6           0       -0.784784    1.276307    2.076955
     12          6           0       -0.730140   -0.867548   -1.141925
     13          6           0        0.623826   -1.612854   -1.001630
     14          6           0        1.589677   -1.217342    0.151493
     15          8           0        1.673363   -1.776887    1.229109
     16          8           0        2.457318   -0.206787   -0.269616
     17          7           0       -5.895686    2.368868   -0.083072
     18          6           0       -4.780889    3.075733    0.225646
     19          6           0       -5.127150    4.500114    0.288774
     20          6           0       -6.512496    4.576835    0.181151
     21          6           0       -6.979931    3.152153    0.052083
     22          6           0       -4.064603    5.627050    0.498400
     23          6           0       -7.423592    5.835046    0.452107
     24          8           0       -8.634022    5.769956    0.431484
     25          6           0       -6.852682    7.244818    0.532900
     26          7           0       -8.176500    0.238773   -0.097244
     27          6           0       -8.866276    1.351137    0.181494
     28          6           0      -10.363897    0.983933    0.360003
     29          6           0      -10.375808   -0.407697   -0.411657
     30          6           0       -8.850727   -0.731882   -0.387376
     31          6           0      -10.946387    0.992432    1.739216
     32          6           0      -11.049384   -0.524787   -1.840819
     33          6           0      -12.064952   -1.557395   -2.133453
     34          7           0       -5.950007   -1.702116   -0.207827
     35          6           0       -7.026818   -2.552947   -0.426620
     36          6           0       -6.527939   -3.904950   -0.601544
     37          6           0       -5.146597   -3.777907   -0.452871
     38          6           0       -4.839816   -2.434322   -0.244232
     39          6           0       -7.369488   -4.996907   -0.980856
     40          6           0       -3.931673   -4.555272   -0.655145
     41          8           0       -3.831524   -5.682958   -0.931391
     42          6           0       -2.773768   -3.530257   -0.323991
     43          6           0       -2.031062   -3.958109    0.861819
     44          8           0       -2.341412   -3.665881    2.036571
     45          8           0       -0.893650   -4.677917    0.577997
     46          6           0       -0.023621   -4.866958    1.812740
     47          6           0        3.573281    0.212006    0.664096
     48          6           0        4.871202   -0.326278    0.184693
     49          6           0        6.173209    0.131962    0.246793
     50          6           0        6.495518    1.442442    0.890905
     51          6           0        7.133375   -0.540417   -0.684396
     52          6           0        8.595710   -0.044601   -0.866772
     53          6           0        8.819226    0.365478   -2.315625
     54          6           0        9.844178    1.488300   -2.483602
     55          6           0        9.384471    2.697372   -3.383138
     56          6           0       11.128906    0.970476   -3.221857
     57          6           0       12.387308    1.715954   -2.561782
     58          6           0       13.479008    0.649039   -2.267519
     59          6           0       13.996918    0.612289   -0.801111
     60          6           0       15.515565    0.995336   -0.769998
     61          6           0       13.616983   -0.738711   -0.130274
     62          6           0       12.286532   -0.645146    0.703813
     63          6           0       12.616794   -0.838292    2.228361
     64          6           0       11.609254   -0.159672    3.077417
     65          6           0       11.985998    1.228194    3.614742
     66          6           0       11.187006   -1.127347    4.206426
     67          1           0       -2.603366    3.281164    0.532549
     68          1           0       -9.052366    3.442170    0.172378
     69          1           0       -9.140797   -2.828057   -0.764718
     70          1           0       -0.911962   -1.161088    0.951750
     71          1           0       -1.074650    1.599843   -0.073963
     72          1           0       -1.458166    1.858036    2.705933
     73          1           0        0.131486    1.860986    2.003966
     74          1           0       -0.717650    0.343500    2.637294
     75          1           0       -0.670633    0.071880   -1.691915
     76          1           0       -1.345742   -1.417365   -1.853477
     77          1           0        1.109174   -1.458153   -1.964793
     78          1           0        0.435181   -2.651278   -0.728608
     79          1           0       -4.186699    6.499380   -0.144083
     80          1           0       -3.016145    5.381456    0.669910
     81          1           0       -4.399035    5.970162    1.476683
     82          1           0       -6.268385    7.442181   -0.365286
     83          1           0       -6.202845    7.261433    1.407566
     84          1           0       -7.626622    8.007474    0.618310
     85          1           0      -10.895467    1.689151   -0.278609
     86          1           0      -10.837766   -1.072117    0.318257
     87          1           0      -11.777276    1.697285    1.718421
     88          1           0      -10.115205    1.280640    2.382531
     89          1           0      -11.549287    0.112081    1.961321
     90          1           0      -10.259338   -0.671874   -2.577193
     91          1           0      -11.531823    0.400302   -2.158236
     92          1           0      -12.956276   -1.024232   -2.465458
     93          1           0      -12.357315   -2.014281   -1.187097
     94          1           0      -11.814245   -2.414284   -2.757380
     95          1           0       -7.152289   -5.371286   -1.981026
     96          1           0       -8.390836   -4.627954   -1.072281
     97          1           0       -7.336761   -5.736194   -0.180593
     98          1           0       -2.188695   -3.571113   -1.243139
     99          1           0       -0.501580   -5.328078    2.676412
    100          1           0        0.402059   -3.904092    2.097269
    101          1           0        0.842652   -5.446894    1.493874
    102          1           0        3.402587    0.063614    1.730851
    103          1           0        3.649351    1.297208    0.598835
    104          1           0        4.631429   -1.326374   -0.177434
    105          1           0        7.003544    1.961556    0.078865
    106          1           0        7.134608    1.287255    1.760796
    107          1           0        5.624811    1.990546    1.250491
    108          1           0        6.754280   -0.766242   -1.680896
    109          1           0        7.233988   -1.458479   -0.106232
    110          1           0        9.320456   -0.773649   -0.503286
    111          1           0        8.780842    0.812664   -0.219913
    112          1           0        7.876599    0.597920   -2.810800
    113          1           0        9.053732   -0.592295   -2.779559
    114          1           0       10.079726    1.843015   -1.480957
    115          1           0        8.671318    2.304744   -4.107238
    116          1           0       10.111151    3.186925   -4.031283
    117          1           0        8.710855    3.381711   -2.867884
    118          1           0       11.152769    1.258501   -4.272732
    119          1           0       11.122724   -0.118220   -3.271733
    120          1           0       12.078051    2.208643   -1.639615
    121          1           0       12.709905    2.491456   -3.256579
    122          1           0       14.245634    1.046625   -2.933920
    123          1           0       13.248592   -0.358629   -2.611559
    124          1           0       13.458828    1.388149   -0.256502
    125          1           0       15.578653    1.967681   -0.283186
    126          1           0       16.069678    1.068319   -1.705861
    127          1           0       16.096268    0.284164   -0.183736
    128          1           0       14.440351   -1.121487    0.472803
    129          1           0       13.395252   -1.519271   -0.857896
    130          1           0       11.513550   -1.362809    0.427711
    131          1           0       11.929949    0.368633    0.521305
    132          1           0       13.597229   -0.395368    2.401648
    133          1           0       12.613120   -1.911217    2.425080
    134          1           0       10.665016   -0.066775    2.540022
    135          1           0       11.035631    1.743938    3.753293
    136          1           0       12.574297    1.775425    2.878661
    137          1           0       12.486325    1.268334    4.582800
    138          1           0       11.987564   -1.143412    4.945312
    139          1           0       11.025495   -2.087192    3.714836
    140          1           0       10.261345   -0.610776    4.461480
 ---------------------------------------------------------------------

 SCF Done:  E(RCAM-B3LYP) =  -3007.09602454     A.U. after   19 cycles

 Excitation energies and oscillator strengths:

 Excited State   1:      Singlet-A      1.8262 eV  678.92 nm  f=0.3411  <S**2>=0.000
     245 -> 248       -0.19611
     246 -> 247        0.67739
     245 <- 248       -0.10448
 This state for optimization and/or second-order correction.
 Total Energy, E(TD-HF/TD-DFT) =  -3007.02891303
 Copying the excited state density for this state as the 1-particle RhoCI density.

 Excited State   2:      Singlet-A      2.2877 eV  541.95 nm  f=0.0909  <S**2>=0.000
     245 -> 247        0.62285
     246 -> 248        0.32038

 Excited State   3:      Singlet-A      3.4521 eV  359.16 nm  f=0.5498  <S**2>=0.000
     242 -> 247       -0.18828
     243 -> 247       -0.26848
     245 -> 247       -0.26091
     246 -> 248        0.55463

 Excited State   4:      Singlet-A      3.6227 eV  342.24 nm  f=0.1313  <S**2>=0.000
     239 -> 247        0.17343
     242 -> 247        0.21928
     243 -> 247        0.45586
     245 -> 247       -0.13345
     246 -> 248        0.19788
     246 -> 249       -0.28825
     246 -> 250       -0.19361

 Excited State   5:      Singlet-A      3.6762 eV  337.26 nm  f=0.1670  <S**2>=0.000
     239 -> 247        0.16922
     243 -> 247        0.18777
     245 -> 247       -0.12537
     246 -> 248        0.17386
     246 -> 249        0.45495
     246 -> 250        0.38774

 The electronic state is 1-A.
 Alpha  occ. eigenvalues --  -46.89417 -19.25337 -19.24697 -19.21142 -19.19947
 Alpha  occ. eigenvalues --  -19.18656 -19.18530 -14.41456 -14.40873 -14.39834
 Alpha  occ. eigenvalues --  -14.38745 -10.40387 -10.38678 -10.35094 -10.35026
 Alpha  occ. eigenvalues --  -10.32354 -10.31481 -10.30621 -10.30078 -10.30068
 Alpha  occ. eigenvalues --  -10.29802 -10.29651 -10.29552 -10.29449 -10.28304
 Alpha  occ. eigenvalues --  -10.28278 -10.28270 -10.28123 -10.27961 -10.27903
 Alpha  occ. eigenvalues --  -10.27878 -10.27765 -10.27757 -10.27361 -10.27262
 Alpha  occ. eigenvalues --  -10.26933 -10.26932 -10.26801 -10.26783 -10.26566
 Alpha  occ. eigenvalues --  -10.26315 -10.26122 -10.26114 -10.26113 -10.25877
 Alpha  occ. eigenvalues --  -10.25861 -10.25861 -10.25842 -10.25739 -10.25620
 Alpha  occ. eigenvalues --  -10.25535 -10.25232 -10.25170 -10.25123 -10.25015
 Alpha  occ. eigenvalues --  -10.24919 -10.24916 -10.24872 -10.24861 -10.24830
 Alpha  occ. eigenvalues --  -10.24689 -10.24585 -10.24440 -10.24373 -10.24307
 Alpha  occ. eigenvalues --  -10.24285  -3.17912  -1.92790  -1.92388  -1.92198
 Alpha  occ. eigenvalues --   -1.15738  -1.14607  -1.13616  -1.10235  -1.07972
 Alpha  occ. eigenvalues --   -1.07179  -1.05254  -1.04000  -1.03466  -1.02459
 Alpha  occ. eigenvalues --   -0.92475  -0.91087  -0.90044  -0.89371  -0.88994
 Alpha  occ. eigenvalues --   -0.88455  -0.88200  -0.87737  -0.87524  -0.86763
 Alpha  occ. eigenvalues --   -0.86093  -0.85133  -0.84384  -0.84021  -0.83021
 Alpha  occ. eigenvalues --   -0.82493  -0.81565  -0.80977  -0.80509  -0.79757
 Alpha  occ. eigenvalues --   -0.79625  -0.78200  -0.77661  -0.77102  -0.76952
 Alpha  occ. eigenvalues --   -0.76025  -0.75798  -0.75662  -0.74669  -0.73880
 Alpha  occ. eigenvalues --   -0.73055  -0.72296  -0.71701  -0.70868  -0.68410
 Alpha  occ. eigenvalues --   -0.68153  -0.67917  -0.66705  -0.66473  -0.65972
 Alpha  occ. eigenvalues --   -0.65567  -0.65307  -0.65088  -0.64606  -0.63739
 Alpha  occ. eigenvalues --   -0.63521  -0.62957  -0.62448  -0.61487  -0.60395
 Alpha  occ. eigenvalues --   -0.59780  -0.59526  -0.59377  -0.58383  -0.57992
 Alpha  occ. eigenvalues --   -0.57613  -0.56416  -0.56144  -0.55888  -0.55356
 Alpha  occ. eigenvalues --   -0.54750  -0.54733  -0.54536  -0.54227  -0.54041
 Alpha  occ. eigenvalues --   -0.53561  -0.53246  -0.53124  -0.52806  -0.52677
 Alpha  occ. eigenvalues --   -0.52563  -0.52401  -0.52178  -0.51849  -0.51781
 Alpha  occ. eigenvalues --   -0.51713  -0.51345  -0.51205  -0.51077  -0.50738
 Alpha  occ. eigenvalues --   -0.50346  -0.50261  -0.50209  -0.50015  -0.49470
 Alpha  occ. eigenvalues --   -0.49421  -0.49313  -0.49104  -0.49058  -0.48809
 Alpha  occ. eigenvalues --   -0.48718  -0.48554  -0.48450  -0.47940  -0.47709
 Alpha  occ. eigenvalues --   -0.47498  -0.47338  -0.47223  -0.47153  -0.46753
 Alpha  occ. eigenvalues --   -0.46315  -0.46241  -0.46059  -0.46052  -0.45979
 Alpha  occ. eigenvalues --   -0.45833  -0.45421  -0.45301  -0.45008  -0.44916
 Alpha  occ. eigenvalues --   -0.44565  -0.44532  -0.44080  -0.43830  -0.43791
 Alpha  occ. eigenvalues --   -0.43697  -0.43490  -0.43364  -0.43158  -0.43006
 Alpha  occ. eigenvalues --   -0.42846  -0.42653  -0.42592  -0.42387  -0.42031
 Alpha  occ. eigenvalues --   -0.41888  -0.41819  -0.41698  -0.41219  -0.41160
 Alpha  occ. eigenvalues --   -0.41113  -0.40862  -0.40403  -0.40272  -0.40079
 Alpha  occ. eigenvalues --   -0.39510  -0.39250  -0.39225  -0.39134  -0.39106
 Alpha  occ. eigenvalues --   -0.38554  -0.38163  -0.38008  -0.37943  -0.37755
 Alpha  occ. eigenvalues --   -0.37628  -0.37544  -0.37058  -0.36401  -0.36303
 Alpha  occ. eigenvalues --   -0.35886  -0.35752  -0.34945  -0.33845  -0.33753
 Alpha  occ. eigenvalues --   -0.33340  -0.32551  -0.32481  -0.31098  -0.30873
 Alpha  occ. eigenvalues --   -0.30340  -0.30173  -0.29882  -0.28455  -0.23265
 Alpha  occ. eigenvalues --   -0.20685
 Alpha virt. eigenvalues --   -0.07532  -0.01497   0.00992   0.01750   0.03246
 Alpha virt. eigenvalues --    0.03539   0.04778   0.05407   0.06647   0.06905
 Alpha virt. eigenvalues --    0.07394   0.08237   0.08285   0.09179   0.09256

 Mulliken charges:
               1
     1  Mg   0.841192
     2  C   -0.026591
     3  C   -0.089703
     4  C   -0.027984
     5  C   -0.076118
     6  N   -0.255474
     7  C   -0.045730
     8  C   -0.071269
     9  C   -0.047276
    10  C    0.018392
    11  C    0.089421
    12  C    0.076793
    13  C    0.063029
    14  C    0.166777
    15  O   -0.222010
    16  O   -0.364487
    17  N   -0.388295
    18  C    0.156345
    19  C   -0.150748
    20  C   -0.050470
    21  C    0.073381
    22  C    0.114206
    23  C    0.012091
    24  O   -0.195354
    25  C    0.050449
    26  N   -0.141206
    27  C   -0.018783
    28  C   -0.058877
    29  C   -0.050195
    30  C   -0.043741
    31  C    0.125875
    32  C    0.057797
    33  C    0.006521
    34  N   -0.338226
    35  C    0.113601
    36  C   -0.167173
    37  C   -0.011665
    38  C    0.135708
    39  C    0.144256
    40  C    0.010016
    41  O   -0.088045
    42  C   -0.017298
    43  C    0.231361
    44  O   -0.252807
    45  O   -0.345903
    46  C    0.177425
    47  C    0.290622
    48  C   -0.161429
    49  C   -0.142926
    50  C    0.088730
    51  C    0.044857
    52  C   -0.001124
    53  C    0.040247
    54  C   -0.110989
    55  C    0.045862
    56  C    0.017985
    57  C    0.003895
    58  C    0.063854
    59  C   -0.130524
    60  C    0.045542
    61  C    0.066698
    62  C   -0.042481
    63  C    0.066553
    64  C   -0.169120
    65  C    0.055122
    66  C    0.039840
    67  H   -0.038321
    68  H   -0.004824
    69  H   -0.025647
    70  H    0.039764
    71  H    0.005344
    72  H    0.007064
    73  H    0.022461
    74  H    0.028209
    75  H   -0.001589
    76  H    0.012674
    77  H    0.033274
    78  H    0.041025
    79  H    0.024937
    80  H    0.020566
    81  H    0.016980
    82  H    0.038526
    83  H    0.021132
    84  H    0.030387
    85  H    0.001537
    86  H   -0.002311
    87  H    0.007458
    88  H    0.036187
    89  H    0.006890
    90  H    0.003959
    91  H    0.006606
    92  H    0.013150
    93  H   -0.005187
    94  H    0.023709
    95  H    0.037980
    96  H   -0.014436
    97  H    0.043695
    98  H    0.033472
    99  H    0.051685
   100  H    0.045870
   101  H    0.026981
   102  H    0.044064
   103  H    0.007745
   104  H   -0.004511
   105  H    0.036153
   106  H    0.029828
   107  H    0.004359
   108  H    0.030022
   109  H    0.012868
   110  H    0.003581
   111  H   -0.013152
   112  H   -0.006531
   113  H   -0.001461
   114  H    0.007786
   115  H   -0.010211
   116  H    0.019858
   117  H   -0.002440
   118  H   -0.005855
   119  H   -0.003350
   120  H    0.000092
   121  H    0.002880
   122  H   -0.010203
   123  H    0.002610
   124  H   -0.001774
   125  H    0.005402
   126  H    0.012168
   127  H   -0.002085
   128  H   -0.005085
   129  H   -0.012609
   130  H    0.017183
   131  H    0.002094
   132  H   -0.007163
   133  H   -0.007407
   134  H   -0.011343
   135  H   -0.000292
   136  H    0.005902
   137  H    0.011928
   138  H    0.016376
   139  H    0.010007
   140  H    0.002935
 Sum of Mulliken charges =  -0.00000

 Dipole moment (field-independent basis, Debye):
    X=              3.6785    Y=              3.3074    Z=             -2.8637  Tot=              5.7159
 Quadrupole moment (field-independent basis, Debye-Ang):
   XX=           -374.6845   YY=           -422.7211   ZZ=           -406.2858
   XY=             17.0079   XZ=             13.1643   YZ=              5.9124

 Normal termination of Gaussian 16 at Thu May  5 05:43:44 2022.
