 Gaussian 16, Revision A.03,
 Gaussian 16:  ES64L-G16RevA.03 25-Dec-2016

 ---------------------------------
 #p PBE1PBE/Def2SVP td=(nstates=5)
 ---------------------------------

 -----------------------------------------------------
 step_701_chromophore_19 TDDFT with PBE1PBE functional
 -----------------------------------------------------
 Symbolic Z-matrix:
 Charge =  0 Multiplicity = 1

                         Standard orientation:
 ---------------------------------------------------------------------
 Center     Atomic      Atomic             Coordinates (Angstroms)
 Number     Number       Type             X           Y           Z
 ---------------------------------------------------------------------
      1         12           0       -5.937291    0.390362   -0.316538
      2          6           0       -3.477473   -2.190083   -0.091401
      3          6           0       -3.437300    2.584344    0.427968
      4          6           0       -8.313386    2.639097    0.166204
      5          6           0       -8.371478   -2.068395   -0.607585
      6          7           0       -3.749615    0.198971    0.385372
      7          6           0       -2.941974   -0.873539    0.154899
      8          6           0       -1.432691   -0.556443    0.210130
      9          6           0       -1.482100    0.963986    0.710813
     10          6           0       -2.962609    1.297952    0.615485
     11          6           0       -0.784784    1.276307    2.076955
     12          6           0       -0.730140   -0.867548   -1.141925
     13          6           0        0.623826   -1.612854   -1.001630
     14          6           0        1.589677   -1.217342    0.151493
     15          8           0        1.673363   -1.776887    1.229109
     16          8           0        2.457318   -0.206787   -0.269616
     17          7           0       -5.895686    2.368868   -0.083072
     18          6           0       -4.780889    3.075733    0.225646
     19          6           0       -5.127150    4.500114    0.288774
     20          6           0       -6.512496    4.576835    0.181151
     21          6           0       -6.979931    3.152153    0.052083
     22          6           0       -4.064603    5.627050    0.498400
     23          6           0       -7.423592    5.835046    0.452107
     24          8           0       -8.634022    5.769956    0.431484
     25          6           0       -6.852682    7.244818    0.532900
     26          7           0       -8.176500    0.238773   -0.097244
     27          6           0       -8.866276    1.351137    0.181494
     28          6           0      -10.363897    0.983933    0.360003
     29          6           0      -10.375808   -0.407697   -0.411657
     30          6           0       -8.850727   -0.731882   -0.387376
     31          6           0      -10.946387    0.992432    1.739216
     32          6           0      -11.049384   -0.524787   -1.840819
     33          6           0      -12.064952   -1.557395   -2.133453
     34          7           0       -5.950007   -1.702116   -0.207827
     35          6           0       -7.026818   -2.552947   -0.426620
     36          6           0       -6.527939   -3.904950   -0.601544
     37          6           0       -5.146597   -3.777907   -0.452871
     38          6           0       -4.839816   -2.434322   -0.244232
     39          6           0       -7.369488   -4.996907   -0.980856
     40          6           0       -3.931673   -4.555272   -0.655145
     41          8           0       -3.831524   -5.682958   -0.931391
     42          6           0       -2.773768   -3.530257   -0.323991
     43          6           0       -2.031062   -3.958109    0.861819
     44          8           0       -2.341412   -3.665881    2.036571
     45          8           0       -0.893650   -4.677917    0.577997
     46          6           0       -0.023621   -4.866958    1.812740
     47          6           0        3.573281    0.212006    0.664096
     48          6           0        4.871202   -0.326278    0.184693
     49          6           0        6.173209    0.131962    0.246793
     50          6           0        6.495518    1.442442    0.890905
     51          6           0        7.133375   -0.540417   -0.684396
     52          6           0        8.595710   -0.044601   -0.866772
     53          6           0        8.819226    0.365478   -2.315625
     54          6           0        9.844178    1.488300   -2.483602
     55          6           0        9.384471    2.697372   -3.383138
     56          6           0       11.128906    0.970476   -3.221857
     57          6           0       12.387308    1.715954   -2.561782
     58          6           0       13.479008    0.649039   -2.267519
     59          6           0       13.996918    0.612289   -0.801111
     60          6           0       15.515565    0.995336   -0.769998
     61          6           0       13.616983   -0.738711   -0.130274
     62          6           0       12.286532   -0.645146    0.703813
     63          6           0       12.616794   -0.838292    2.228361
     64          6           0       11.609254   -0.159672    3.077417
     65          6           0       11.985998    1.228194    3.614742
     66          6           0       11.187006   -1.127347    4.206426
     67          1           0       -2.603366    3.281164    0.532549
     68          1           0       -9.052366    3.442170    0.172378
     69          1           0       -9.140797   -2.828057   -0.764718
     70          1           0       -0.911962   -1.161088    0.951750
     71          1           0       -1.074650    1.599843   -0.073963
     72          1           0       -1.458166    1.858036    2.705933
     73          1           0        0.131486    1.860986    2.003966
     74          1           0       -0.717650    0.343500    2.637294
     75          1           0       -0.670633    0.071880   -1.691915
     76          1           0       -1.345742   -1.417365   -1.853477
     77          1           0        1.109174   -1.458153   -1.964793
     78          1           0        0.435181   -2.651278   -0.728608
     79          1           0       -4.186699    6.499380   -0.144083
     80          1           0       -3.016145    5.381456    0.669910
     81          1           0       -4.399035    5.970162    1.476683
     82          1           0       -6.268385    7.442181   -0.365286
     83          1           0       -6.202845    7.261433    1.407566
     84          1           0       -7.626622    8.007474    0.618310
     85          1           0      -10.895467    1.689151   -0.278609
     86          1           0      -10.837766   -1.072117    0.318257
     87          1           0      -11.777276    1.697285    1.718421
     88          1           0      -10.115205    1.280640    2.382531
     89          1           0      -11.549287    0.112081    1.961321
     90          1           0      -10.259338   -0.671874   -2.577193
     91          1           0      -11.531823    0.400302   -2.158236
     92          1           0      -12.956276   -1.024232   -2.465458
     93          1           0      -12.357315   -2.014281   -1.187097
     94          1           0      -11.814245   -2.414284   -2.757380
     95          1           0       -7.152289   -5.371286   -1.981026
     96          1           0       -8.390836   -4.627954   -1.072281
     97          1           0       -7.336761   -5.736194   -0.180593
     98          1           0       -2.188695   -3.571113   -1.243139
     99          1           0       -0.501580   -5.328078    2.676412
    100          1           0        0.402059   -3.904092    2.097269
    101          1           0        0.842652   -5.446894    1.493874
    102          1           0        3.402587    0.063614    1.730851
    103          1           0        3.649351    1.297208    0.598835
    104          1           0        4.631429   -1.326374   -0.177434
    105          1           0        7.003544    1.961556    0.078865
    106          1           0        7.134608    1.287255    1.760796
    107          1           0        5.624811    1.990546    1.250491
    108          1           0        6.754280   -0.766242   -1.680896
    109          1           0        7.233988   -1.458479   -0.106232
    110          1           0        9.320456   -0.773649   -0.503286
    111          1           0        8.780842    0.812664   -0.219913
    112          1           0        7.876599    0.597920   -2.810800
    113          1           0        9.053732   -0.592295   -2.779559
    114          1           0       10.079726    1.843015   -1.480957
    115          1           0        8.671318    2.304744   -4.107238
    116          1           0       10.111151    3.186925   -4.031283
    117          1           0        8.710855    3.381711   -2.867884
    118          1           0       11.152769    1.258501   -4.272732
    119          1           0       11.122724   -0.118220   -3.271733
    120          1           0       12.078051    2.208643   -1.639615
    121          1           0       12.709905    2.491456   -3.256579
    122          1           0       14.245634    1.046625   -2.933920
    123          1           0       13.248592   -0.358629   -2.611559
    124          1           0       13.458828    1.388149   -0.256502
    125          1           0       15.578653    1.967681   -0.283186
    126          1           0       16.069678    1.068319   -1.705861
    127          1           0       16.096268    0.284164   -0.183736
    128          1           0       14.440351   -1.121487    0.472803
    129          1           0       13.395252   -1.519271   -0.857896
    130          1           0       11.513550   -1.362809    0.427711
    131          1           0       11.929949    0.368633    0.521305
    132          1           0       13.597229   -0.395368    2.401648
    133          1           0       12.613120   -1.911217    2.425080
    134          1           0       10.665016   -0.066775    2.540022
    135          1           0       11.035631    1.743938    3.753293
    136          1           0       12.574297    1.775425    2.878661
    137          1           0       12.486325    1.268334    4.582800
    138          1           0       11.987564   -1.143412    4.945312
    139          1           0       11.025495   -2.087192    3.714836
    140          1           0       10.261345   -0.610776    4.461480
 ---------------------------------------------------------------------

 SCF Done:  E(RPBE1PBE) =  -3005.28472499     A.U. after   16 cycles

 Excitation energies and oscillator strengths:

 Excited State   1:      Singlet-A      1.9394 eV  639.29 nm  f=0.3286  <S**2>=0.000
     245 -> 248        0.19589
     246 -> 247        0.68217
 This state for optimization and/or second-order correction.
 Total Energy, E(TD-HF/TD-DFT) =  -3005.21345361
 Copying the excited state density for this state as the 1-particle RhoCI density.

 Excited State   2:      Singlet-A      2.2930 eV  540.72 nm  f=0.0928  <S**2>=0.000
     245 -> 247        0.63672
     246 -> 248       -0.29327

 Excited State   3:      Singlet-A      3.2221 eV  384.79 nm  f=0.0545  <S**2>=0.000
     241 -> 247        0.39465
     242 -> 247       -0.33432
     243 -> 247        0.37048
     246 -> 248        0.25096

 Excited State   4:      Singlet-A      3.2927 eV  376.54 nm  f=0.2173  <S**2>=0.000
     240 -> 247       -0.10776
     241 -> 247        0.44663
     243 -> 247       -0.11739
     245 -> 247       -0.18065
     246 -> 248       -0.44266
     246 -> 249       -0.10314

 Excited State   5:      Singlet-A      3.3677 eV  368.16 nm  f=0.0015  <S**2>=0.000
     242 -> 247        0.49979
     242 -> 249        0.11700
     243 -> 247        0.43472
     243 -> 249        0.10704

 The electronic state is 1-A.
 Alpha  occ. eigenvalues --  -46.92812 -19.26036 -19.25226 -19.21366 -19.19894
 Alpha  occ. eigenvalues --  -19.18957 -19.18787 -14.41025 -14.40232 -14.39574
 Alpha  occ. eigenvalues --  -14.38303 -10.37413 -10.35562 -10.32418 -10.32004
 Alpha  occ. eigenvalues --  -10.29746 -10.29008 -10.27888 -10.27804 -10.27611
 Alpha  occ. eigenvalues --  -10.27554 -10.27551 -10.27486 -10.27465 -10.25891
 Alpha  occ. eigenvalues --  -10.25858 -10.25780 -10.25779 -10.25748 -10.25656
 Alpha  occ. eigenvalues --  -10.25539 -10.25515 -10.25226 -10.25072 -10.25000
 Alpha  occ. eigenvalues --  -10.24847 -10.24665 -10.24625 -10.24444 -10.24151
 Alpha  occ. eigenvalues --  -10.23948 -10.23857 -10.23815 -10.23668 -10.23610
 Alpha  occ. eigenvalues --  -10.23422 -10.23391 -10.23328 -10.23166 -10.23106
 Alpha  occ. eigenvalues --  -10.22903 -10.22750 -10.22728 -10.22705 -10.22553
 Alpha  occ. eigenvalues --  -10.22498 -10.22453 -10.22371 -10.22298 -10.22278
 Alpha  occ. eigenvalues --  -10.22234 -10.21995 -10.21897 -10.21851 -10.21815
 Alpha  occ. eigenvalues --  -10.21767  -3.14888  -1.87705  -1.87280  -1.87097
 Alpha  occ. eigenvalues --   -1.10496  -1.09216  -1.08203  -1.05199  -1.02825
 Alpha  occ. eigenvalues --   -1.01838  -0.99934  -0.98553  -0.98312  -0.97119
 Alpha  occ. eigenvalues --   -0.86682  -0.85218  -0.84135  -0.83526  -0.83127
 Alpha  occ. eigenvalues --   -0.82748  -0.82448  -0.81865  -0.81731  -0.81139
 Alpha  occ. eigenvalues --   -0.80571  -0.79375  -0.78640  -0.78234  -0.77281
 Alpha  occ. eigenvalues --   -0.76689  -0.75806  -0.75245  -0.74786  -0.73982
 Alpha  occ. eigenvalues --   -0.73871  -0.72435  -0.72075  -0.71393  -0.71115
 Alpha  occ. eigenvalues --   -0.70131  -0.70110  -0.70012  -0.68810  -0.68061
 Alpha  occ. eigenvalues --   -0.67356  -0.66644  -0.66137  -0.65223  -0.62713
 Alpha  occ. eigenvalues --   -0.62485  -0.62271  -0.61179  -0.60802  -0.60422
 Alpha  occ. eigenvalues --   -0.59825  -0.59723  -0.59224  -0.59165  -0.58082
 Alpha  occ. eigenvalues --   -0.57898  -0.57466  -0.56636  -0.55925  -0.54762
 Alpha  occ. eigenvalues --   -0.54511  -0.54007  -0.53845  -0.52910  -0.52444
 Alpha  occ. eigenvalues --   -0.52169  -0.50938  -0.50578  -0.50574  -0.49795
 Alpha  occ. eigenvalues --   -0.49275  -0.49182  -0.49090  -0.48601  -0.48524
 Alpha  occ. eigenvalues --   -0.48037  -0.47782  -0.47603  -0.47378  -0.47162
 Alpha  occ. eigenvalues --   -0.47097  -0.46861  -0.46679  -0.46399  -0.46280
 Alpha  occ. eigenvalues --   -0.46076  -0.45880  -0.45701  -0.45593  -0.45345
 Alpha  occ. eigenvalues --   -0.45052  -0.44812  -0.44791  -0.44565  -0.44091
 Alpha  occ. eigenvalues --   -0.43984  -0.43919  -0.43814  -0.43652  -0.43447
 Alpha  occ. eigenvalues --   -0.43346  -0.43180  -0.43086  -0.42625  -0.42306
 Alpha  occ. eigenvalues --   -0.42130  -0.42007  -0.41875  -0.41839  -0.41423
 Alpha  occ. eigenvalues --   -0.41004  -0.40960  -0.40754  -0.40620  -0.40603
 Alpha  occ. eigenvalues --   -0.40490  -0.40125  -0.40056  -0.39756  -0.39713
 Alpha  occ. eigenvalues --   -0.39245  -0.39202  -0.38910  -0.38648  -0.38534
 Alpha  occ. eigenvalues --   -0.38413  -0.38307  -0.38062  -0.37899  -0.37783
 Alpha  occ. eigenvalues --   -0.37678  -0.37555  -0.37418  -0.37147  -0.36945
 Alpha  occ. eigenvalues --   -0.36665  -0.36548  -0.36470  -0.36088  -0.35898
 Alpha  occ. eigenvalues --   -0.35862  -0.35755  -0.35330  -0.35140  -0.34879
 Alpha  occ. eigenvalues --   -0.34499  -0.34147  -0.34037  -0.33978  -0.33937
 Alpha  occ. eigenvalues --   -0.33348  -0.32970  -0.32906  -0.32824  -0.32571
 Alpha  occ. eigenvalues --   -0.32527  -0.32459  -0.31981  -0.31364  -0.31272
 Alpha  occ. eigenvalues --   -0.30883  -0.30648  -0.29764  -0.28932  -0.28790
 Alpha  occ. eigenvalues --   -0.28190  -0.27893  -0.27453  -0.26666  -0.25927
 Alpha  occ. eigenvalues --   -0.25797  -0.25346  -0.25304  -0.23768  -0.20203
 Alpha  occ. eigenvalues --   -0.18287
 Alpha virt. eigenvalues --   -0.10127  -0.05054  -0.03087  -0.01359  -0.01024
 Alpha virt. eigenvalues --   -0.00964   0.00290   0.00917   0.02281   0.03544
 Alpha virt. eigenvalues --    0.03702   0.04812   0.04869   0.05238   0.05861

 Mulliken charges:
               1
     1  Mg   0.982066
     2  C   -0.017688
     3  C   -0.085677
     4  C   -0.032268
     5  C   -0.069118
     6  N   -0.353585
     7  C    0.018976
     8  C   -0.132346
     9  C   -0.128363
    10  C    0.068288
    11  C    0.031628
    12  C    0.033254
    13  C   -0.022385
    14  C    0.235013
    15  O   -0.256157
    16  O   -0.392013
    17  N   -0.511658
    18  C    0.178734
    19  C   -0.179508
    20  C   -0.092130
    21  C    0.108418
    22  C    0.053891
    23  C    0.064793
    24  O   -0.229288
    25  C   -0.026449
    26  N   -0.251330
    27  C    0.019099
    28  C   -0.129441
    29  C   -0.125972
    30  C    0.002409
    31  C    0.065661
    32  C   -0.000532
    33  C   -0.064946
    34  N   -0.466209
    35  C    0.140336
    36  C   -0.200646
    37  C   -0.046882
    38  C    0.167427
    39  C    0.089902
    40  C    0.110510
    41  O   -0.138534
    42  C   -0.132603
    43  C    0.322796
    44  O   -0.285273
    45  O   -0.377910
    46  C    0.117738
    47  C    0.245181
    48  C   -0.166073
    49  C   -0.187615
    50  C    0.019532
    51  C   -0.019801
    52  C   -0.067167
    53  C   -0.007368
    54  C   -0.204786
    55  C   -0.012290
    56  C   -0.033743
    57  C   -0.055066
    58  C    0.014714
    59  C   -0.221230
    60  C   -0.011086
    61  C    0.015399
    62  C   -0.110482
    63  C    0.011947
    64  C   -0.262598
    65  C   -0.004779
    66  C   -0.025096
    67  H   -0.003974
    68  H    0.027518
    69  H    0.006379
    70  H    0.080063
    71  H    0.042677
    72  H    0.034964
    73  H    0.049223
    74  H    0.055816
    75  H    0.029710
    76  H    0.045234
    77  H    0.064911
    78  H    0.077696
    79  H    0.053796
    80  H    0.047894
    81  H    0.047605
    82  H    0.065528
    83  H    0.048784
    84  H    0.058772
    85  H    0.039791
    86  H    0.035625
    87  H    0.035404
    88  H    0.063781
    89  H    0.034229
    90  H    0.037217
    91  H    0.037592
    92  H    0.040454
    93  H    0.023082
    94  H    0.050318
    95  H    0.063708
    96  H    0.013270
    97  H    0.069745
    98  H    0.069839
    99  H    0.073518
   100  H    0.070434
   101  H    0.048910
   102  H    0.069467
   103  H    0.034922
   104  H    0.026136
   105  H    0.064606
   106  H    0.058204
   107  H    0.031754
   108  H    0.059713
   109  H    0.048068
   110  H    0.041457
   111  H    0.019658
   112  H    0.025307
   113  H    0.030671
   114  H    0.044384
   115  H    0.018260
   116  H    0.046322
   117  H    0.026196
   118  H    0.027305
   119  H    0.027264
   120  H    0.030729
   121  H    0.034247
   122  H    0.023465
   123  H    0.032618
   124  H    0.035929
   125  H    0.032811
   126  H    0.038042
   127  H    0.024991
   128  H    0.025954
   129  H    0.020213
   130  H    0.050144
   131  H    0.037547
   132  H    0.026432
   133  H    0.025201
   134  H    0.028239
   135  H    0.027557
   136  H    0.033913
   137  H    0.038556
   138  H    0.044352
   139  H    0.038535
   140  H    0.031698
 Sum of Mulliken charges =  -0.00000

 Dipole moment (field-independent basis, Debye):
    X=              3.6315    Y=              3.9447    Z=             -2.8269  Tot=              6.0613
 Quadrupole moment (field-independent basis, Debye-Ang):
   XX=           -369.1711   YY=           -419.4595   ZZ=           -403.8435
   XY=             13.9870   XZ=             12.6153   YZ=              6.2518

 Normal termination of Gaussian 16 at Thu May  5 06:06:08 2022.
