 Gaussian 16, Revision A.03,
 Gaussian 16:  ES64L-G16RevA.03 25-Dec-2016

 --------------------------------
 #p wB97XD/Def2SVP td=(nstates=5)
 --------------------------------

 ----------------------------------------------------
 step_701_chromophore_19 TDDFT with wB97XD functional
 ----------------------------------------------------
 Symbolic Z-matrix:
 Charge =  0 Multiplicity = 1

                         Standard orientation:
 ---------------------------------------------------------------------
 Center     Atomic      Atomic             Coordinates (Angstroms)
 Number     Number       Type             X           Y           Z
 ---------------------------------------------------------------------
      1         12           0       -5.937291    0.390362   -0.316538
      2          6           0       -3.477473   -2.190083   -0.091401
      3          6           0       -3.437300    2.584344    0.427968
      4          6           0       -8.313386    2.639097    0.166204
      5          6           0       -8.371478   -2.068395   -0.607585
      6          7           0       -3.749615    0.198971    0.385372
      7          6           0       -2.941974   -0.873539    0.154899
      8          6           0       -1.432691   -0.556443    0.210130
      9          6           0       -1.482100    0.963986    0.710813
     10          6           0       -2.962609    1.297952    0.615485
     11          6           0       -0.784784    1.276307    2.076955
     12          6           0       -0.730140   -0.867548   -1.141925
     13          6           0        0.623826   -1.612854   -1.001630
     14          6           0        1.589677   -1.217342    0.151493
     15          8           0        1.673363   -1.776887    1.229109
     16          8           0        2.457318   -0.206787   -0.269616
     17          7           0       -5.895686    2.368868   -0.083072
     18          6           0       -4.780889    3.075733    0.225646
     19          6           0       -5.127150    4.500114    0.288774
     20          6           0       -6.512496    4.576835    0.181151
     21          6           0       -6.979931    3.152153    0.052083
     22          6           0       -4.064603    5.627050    0.498400
     23          6           0       -7.423592    5.835046    0.452107
     24          8           0       -8.634022    5.769956    0.431484
     25          6           0       -6.852682    7.244818    0.532900
     26          7           0       -8.176500    0.238773   -0.097244
     27          6           0       -8.866276    1.351137    0.181494
     28          6           0      -10.363897    0.983933    0.360003
     29          6           0      -10.375808   -0.407697   -0.411657
     30          6           0       -8.850727   -0.731882   -0.387376
     31          6           0      -10.946387    0.992432    1.739216
     32          6           0      -11.049384   -0.524787   -1.840819
     33          6           0      -12.064952   -1.557395   -2.133453
     34          7           0       -5.950007   -1.702116   -0.207827
     35          6           0       -7.026818   -2.552947   -0.426620
     36          6           0       -6.527939   -3.904950   -0.601544
     37          6           0       -5.146597   -3.777907   -0.452871
     38          6           0       -4.839816   -2.434322   -0.244232
     39          6           0       -7.369488   -4.996907   -0.980856
     40          6           0       -3.931673   -4.555272   -0.655145
     41          8           0       -3.831524   -5.682958   -0.931391
     42          6           0       -2.773768   -3.530257   -0.323991
     43          6           0       -2.031062   -3.958109    0.861819
     44          8           0       -2.341412   -3.665881    2.036571
     45          8           0       -0.893650   -4.677917    0.577997
     46          6           0       -0.023621   -4.866958    1.812740
     47          6           0        3.573281    0.212006    0.664096
     48          6           0        4.871202   -0.326278    0.184693
     49          6           0        6.173209    0.131962    0.246793
     50          6           0        6.495518    1.442442    0.890905
     51          6           0        7.133375   -0.540417   -0.684396
     52          6           0        8.595710   -0.044601   -0.866772
     53          6           0        8.819226    0.365478   -2.315625
     54          6           0        9.844178    1.488300   -2.483602
     55          6           0        9.384471    2.697372   -3.383138
     56          6           0       11.128906    0.970476   -3.221857
     57          6           0       12.387308    1.715954   -2.561782
     58          6           0       13.479008    0.649039   -2.267519
     59          6           0       13.996918    0.612289   -0.801111
     60          6           0       15.515565    0.995336   -0.769998
     61          6           0       13.616983   -0.738711   -0.130274
     62          6           0       12.286532   -0.645146    0.703813
     63          6           0       12.616794   -0.838292    2.228361
     64          6           0       11.609254   -0.159672    3.077417
     65          6           0       11.985998    1.228194    3.614742
     66          6           0       11.187006   -1.127347    4.206426
     67          1           0       -2.603366    3.281164    0.532549
     68          1           0       -9.052366    3.442170    0.172378
     69          1           0       -9.140797   -2.828057   -0.764718
     70          1           0       -0.911962   -1.161088    0.951750
     71          1           0       -1.074650    1.599843   -0.073963
     72          1           0       -1.458166    1.858036    2.705933
     73          1           0        0.131486    1.860986    2.003966
     74          1           0       -0.717650    0.343500    2.637294
     75          1           0       -0.670633    0.071880   -1.691915
     76          1           0       -1.345742   -1.417365   -1.853477
     77          1           0        1.109174   -1.458153   -1.964793
     78          1           0        0.435181   -2.651278   -0.728608
     79          1           0       -4.186699    6.499380   -0.144083
     80          1           0       -3.016145    5.381456    0.669910
     81          1           0       -4.399035    5.970162    1.476683
     82          1           0       -6.268385    7.442181   -0.365286
     83          1           0       -6.202845    7.261433    1.407566
     84          1           0       -7.626622    8.007474    0.618310
     85          1           0      -10.895467    1.689151   -0.278609
     86          1           0      -10.837766   -1.072117    0.318257
     87          1           0      -11.777276    1.697285    1.718421
     88          1           0      -10.115205    1.280640    2.382531
     89          1           0      -11.549287    0.112081    1.961321
     90          1           0      -10.259338   -0.671874   -2.577193
     91          1           0      -11.531823    0.400302   -2.158236
     92          1           0      -12.956276   -1.024232   -2.465458
     93          1           0      -12.357315   -2.014281   -1.187097
     94          1           0      -11.814245   -2.414284   -2.757380
     95          1           0       -7.152289   -5.371286   -1.981026
     96          1           0       -8.390836   -4.627954   -1.072281
     97          1           0       -7.336761   -5.736194   -0.180593
     98          1           0       -2.188695   -3.571113   -1.243139
     99          1           0       -0.501580   -5.328078    2.676412
    100          1           0        0.402059   -3.904092    2.097269
    101          1           0        0.842652   -5.446894    1.493874
    102          1           0        3.402587    0.063614    1.730851
    103          1           0        3.649351    1.297208    0.598835
    104          1           0        4.631429   -1.326374   -0.177434
    105          1           0        7.003544    1.961556    0.078865
    106          1           0        7.134608    1.287255    1.760796
    107          1           0        5.624811    1.990546    1.250491
    108          1           0        6.754280   -0.766242   -1.680896
    109          1           0        7.233988   -1.458479   -0.106232
    110          1           0        9.320456   -0.773649   -0.503286
    111          1           0        8.780842    0.812664   -0.219913
    112          1           0        7.876599    0.597920   -2.810800
    113          1           0        9.053732   -0.592295   -2.779559
    114          1           0       10.079726    1.843015   -1.480957
    115          1           0        8.671318    2.304744   -4.107238
    116          1           0       10.111151    3.186925   -4.031283
    117          1           0        8.710855    3.381711   -2.867884
    118          1           0       11.152769    1.258501   -4.272732
    119          1           0       11.122724   -0.118220   -3.271733
    120          1           0       12.078051    2.208643   -1.639615
    121          1           0       12.709905    2.491456   -3.256579
    122          1           0       14.245634    1.046625   -2.933920
    123          1           0       13.248592   -0.358629   -2.611559
    124          1           0       13.458828    1.388149   -0.256502
    125          1           0       15.578653    1.967681   -0.283186
    126          1           0       16.069678    1.068319   -1.705861
    127          1           0       16.096268    0.284164   -0.183736
    128          1           0       14.440351   -1.121487    0.472803
    129          1           0       13.395252   -1.519271   -0.857896
    130          1           0       11.513550   -1.362809    0.427711
    131          1           0       11.929949    0.368633    0.521305
    132          1           0       13.597229   -0.395368    2.401648
    133          1           0       12.613120   -1.911217    2.425080
    134          1           0       10.665016   -0.066775    2.540022
    135          1           0       11.035631    1.743938    3.753293
    136          1           0       12.574297    1.775425    2.878661
    137          1           0       12.486325    1.268334    4.582800
    138          1           0       11.987564   -1.143412    4.945312
    139          1           0       11.025495   -2.087192    3.714836
    140          1           0       10.261345   -0.610776    4.461480
 ---------------------------------------------------------------------

 SCF Done:  E(RwB97XD) =  -3007.79458219     A.U. after   19 cycles

 Excitation energies and oscillator strengths:

 Excited State   1:      Singlet-A      1.7928 eV  691.56 nm  f=0.3400  <S**2>=0.000
     245 -> 248       -0.19998
     246 -> 247        0.67519
     245 <- 248       -0.11241
 This state for optimization and/or second-order correction.
 Total Energy, E(TD-HF/TD-DFT) =  -3007.72869768
 Copying the excited state density for this state as the 1-particle RhoCI density.

 Excited State   2:      Singlet-A      2.2376 eV  554.11 nm  f=0.0896  <S**2>=0.000
     245 -> 247        0.62155
     246 -> 248        0.32085

 Excited State   3:      Singlet-A      3.4513 eV  359.24 nm  f=0.4876  <S**2>=0.000
     241 -> 247       -0.26756
     242 -> 247        0.16915
     243 -> 247        0.23534
     245 -> 247       -0.23790
     246 -> 248        0.52632

 Excited State   4:      Singlet-A      3.6402 eV  340.60 nm  f=0.3553  <S**2>=0.000
     239 -> 247       -0.18126
     240 -> 247       -0.15953
     241 -> 247       -0.28672
     242 -> 247        0.22386
     243 -> 247        0.35369
     245 -> 247        0.20800
     246 -> 248       -0.30800

 Excited State   5:      Singlet-A      3.7124 eV  333.98 nm  f=0.0775  <S**2>=0.000
     239 -> 247        0.20174
     239 -> 249       -0.10888
     240 -> 247        0.52789
     240 -> 249       -0.21943
     243 -> 247        0.19264
     246 -> 248       -0.10875

 The electronic state is 1-A.
 Alpha  occ. eigenvalues --  -46.95767 -19.30597 -19.29940 -19.26073 -19.25045
 Alpha  occ. eigenvalues --  -19.23637 -19.23468 -14.46040 -14.45407 -14.44380
 Alpha  occ. eigenvalues --  -14.43369 -10.44229 -10.42552 -10.39152 -10.38931
 Alpha  occ. eigenvalues --  -10.36260 -10.35596 -10.34427 -10.34235 -10.34084
 Alpha  occ. eigenvalues --  -10.33758 -10.33628 -10.33521 -10.33396 -10.32389
 Alpha  occ. eigenvalues --  -10.32372 -10.32229 -10.32220 -10.31985 -10.31970
 Alpha  occ. eigenvalues --  -10.31941 -10.31884 -10.31797 -10.31519 -10.31345
 Alpha  occ. eigenvalues --  -10.31063 -10.30822 -10.30819 -10.30800 -10.30400
 Alpha  occ. eigenvalues --  -10.30324 -10.30155 -10.30120 -10.30055 -10.29872
 Alpha  occ. eigenvalues --  -10.29791 -10.29692 -10.29676 -10.29671 -10.29572
 Alpha  occ. eigenvalues --  -10.29477 -10.29089 -10.29055 -10.29052 -10.28854
 Alpha  occ. eigenvalues --  -10.28825 -10.28820 -10.28783 -10.28723 -10.28719
 Alpha  occ. eigenvalues --  -10.28660 -10.28626 -10.28269 -10.28245 -10.28187
 Alpha  occ. eigenvalues --  -10.28185  -3.21714  -1.95279  -1.94858  -1.94663
 Alpha  occ. eigenvalues --   -1.17903  -1.16807  -1.15916  -1.12377  -1.10191
 Alpha  occ. eigenvalues --   -1.09193  -1.07470  -1.06093  -1.05454  -1.04481
 Alpha  occ. eigenvalues --   -0.94511  -0.92894  -0.91791  -0.91218  -0.90792
 Alpha  occ. eigenvalues --   -0.90302  -0.90173  -0.89519  -0.89469  -0.88671
 Alpha  occ. eigenvalues --   -0.87967  -0.86996  -0.86228  -0.85924  -0.84961
 Alpha  occ. eigenvalues --   -0.84348  -0.83456  -0.82883  -0.82417  -0.81618
 Alpha  occ. eigenvalues --   -0.81544  -0.80158  -0.79550  -0.79004  -0.78794
 Alpha  occ. eigenvalues --   -0.77801  -0.77760  -0.77599  -0.76485  -0.75723
 Alpha  occ. eigenvalues --   -0.74985  -0.74305  -0.73653  -0.72818  -0.70320
 Alpha  occ. eigenvalues --   -0.70081  -0.69903  -0.68658  -0.68383  -0.67879
 Alpha  occ. eigenvalues --   -0.67402  -0.67304  -0.66899  -0.66589  -0.65556
 Alpha  occ. eigenvalues --   -0.65523  -0.64949  -0.64270  -0.63536  -0.62291
 Alpha  occ. eigenvalues --   -0.61735  -0.61546  -0.61382  -0.60370  -0.59971
 Alpha  occ. eigenvalues --   -0.59616  -0.58365  -0.58062  -0.57864  -0.57299
 Alpha  occ. eigenvalues --   -0.56701  -0.56657  -0.56500  -0.56061  -0.55935
 Alpha  occ. eigenvalues --   -0.55430  -0.55196  -0.55056  -0.54764  -0.54521
 Alpha  occ. eigenvalues --   -0.54479  -0.54347  -0.54069  -0.53778  -0.53732
 Alpha  occ. eigenvalues --   -0.53603  -0.53244  -0.53086  -0.53071  -0.52634
 Alpha  occ. eigenvalues --   -0.52250  -0.52151  -0.52117  -0.51961  -0.51359
 Alpha  occ. eigenvalues --   -0.51315  -0.51234  -0.51025  -0.50974  -0.50704
 Alpha  occ. eigenvalues --   -0.50598  -0.50456  -0.50357  -0.49853  -0.49577
 Alpha  occ. eigenvalues --   -0.49369  -0.49318  -0.49128  -0.49085  -0.48706
 Alpha  occ. eigenvalues --   -0.48218  -0.48162  -0.48038  -0.47914  -0.47877
 Alpha  occ. eigenvalues --   -0.47742  -0.47370  -0.47229  -0.46919  -0.46841
 Alpha  occ. eigenvalues --   -0.46507  -0.46396  -0.46019  -0.45746  -0.45696
 Alpha  occ. eigenvalues --   -0.45629  -0.45396  -0.45250  -0.45065  -0.44905
 Alpha  occ. eigenvalues --   -0.44716  -0.44547  -0.44497  -0.44273  -0.43980
 Alpha  occ. eigenvalues --   -0.43862  -0.43741  -0.43575  -0.43121  -0.43009
 Alpha  occ. eigenvalues --   -0.42974  -0.42793  -0.42331  -0.42144  -0.41938
 Alpha  occ. eigenvalues --   -0.41419  -0.41146  -0.41102  -0.41024  -0.40968
 Alpha  occ. eigenvalues --   -0.40383  -0.40025  -0.39872  -0.39850  -0.39580
 Alpha  occ. eigenvalues --   -0.39474  -0.39470  -0.39015  -0.38421  -0.38256
 Alpha  occ. eigenvalues --   -0.37928  -0.37734  -0.36872  -0.35769  -0.35664
 Alpha  occ. eigenvalues --   -0.35271  -0.34805  -0.34335  -0.33264  -0.33012
 Alpha  occ. eigenvalues --   -0.32350  -0.32203  -0.32053  -0.30507  -0.25210
 Alpha  occ. eigenvalues --   -0.22535
 Alpha virt. eigenvalues --   -0.05857   0.00427   0.03232   0.04729   0.05413
 Alpha virt. eigenvalues --    0.05737   0.07024   0.07523   0.09049   0.10244
 Alpha virt. eigenvalues --    0.10400   0.11034   0.11509   0.11981   0.12545

 Mulliken charges:
               1
     1  Mg   0.976612
     2  C   -0.032252
     3  C   -0.096723
     4  C   -0.038278
     5  C   -0.086591
     6  N   -0.321568
     7  C   -0.001042
     8  C   -0.108615
     9  C   -0.099024
    10  C    0.046203
    11  C    0.041277
    12  C    0.037487
    13  C    0.007553
    14  C    0.217671
    15  O   -0.251671
    16  O   -0.391390
    17  N   -0.476858
    18  C    0.167723
    19  C   -0.170599
    20  C   -0.088530
    21  C    0.093153
    22  C    0.068181
    23  C    0.058881
    24  O   -0.227002
    25  C   -0.012386
    26  N   -0.210900
    27  C   -0.003828
    28  C   -0.101744
    29  C   -0.097589
    30  C   -0.013664
    31  C    0.074102
    32  C    0.011066
    33  C   -0.049609
    34  N   -0.430442
    35  C    0.134536
    36  C   -0.187532
    37  C   -0.047569
    38  C    0.161315
    39  C    0.099686
    40  C    0.093429
    41  O   -0.127705
    42  C   -0.092789
    43  C    0.298016
    44  O   -0.279565
    45  O   -0.376079
    46  C    0.135743
    47  C    0.261461
    48  C   -0.176631
    49  C   -0.172554
    50  C    0.035972
    51  C   -0.001879
    52  C   -0.040843
    53  C    0.004568
    54  C   -0.169635
    55  C    0.000330
    56  C   -0.018365
    57  C   -0.037112
    58  C    0.027179
    59  C   -0.187477
    60  C    0.001250
    61  C    0.028543
    62  C   -0.082356
    63  C    0.025211
    64  C   -0.230954
    65  C    0.005801
    66  C   -0.009287
    67  H   -0.014441
    68  H    0.022571
    69  H   -0.000437
    70  H    0.059726
    71  H    0.031425
    72  H    0.029192
    73  H    0.044596
    74  H    0.050177
    75  H    0.024024
    76  H    0.036254
    77  H    0.061236
    78  H    0.063295
    79  H    0.046749
    80  H    0.043874
    81  H    0.037135
    82  H    0.059107
    83  H    0.041659
    84  H    0.056835
    85  H    0.028675
    86  H    0.021044
    87  H    0.030039
    88  H    0.058686
    89  H    0.028007
    90  H    0.028566
    91  H    0.031351
    92  H    0.035634
    93  H    0.015404
    94  H    0.045292
    95  H    0.061718
    96  H    0.008556
    97  H    0.067595
    98  H    0.062982
    99  H    0.070275
   100  H    0.063709
   101  H    0.046426
   102  H    0.066471
   103  H    0.028396
   104  H    0.020772
   105  H    0.055765
   106  H    0.052847
   107  H    0.026775
   108  H    0.052193
   109  H    0.039077
   110  H    0.028535
   111  H    0.004982
   112  H    0.014946
   113  H    0.021963
   114  H    0.028488
   115  H    0.010202
   116  H    0.040350
   117  H    0.020849
   118  H    0.018047
   119  H    0.016903
   120  H    0.018498
   121  H    0.027868
   122  H    0.014252
   123  H    0.022693
   124  H    0.019758
   125  H    0.027346
   126  H    0.032257
   127  H    0.018732
   128  H    0.016597
   129  H    0.011799
   130  H    0.040497
   131  H    0.017449
   132  H    0.015829
   133  H    0.016871
   134  H    0.014231
   135  H    0.021494
   136  H    0.027348
   137  H    0.033231
   138  H    0.037754
   139  H    0.031426
   140  H    0.025254
 Sum of Mulliken charges =  -0.00000

 Dipole moment (field-independent basis, Debye):
    X=              3.6873    Y=              3.1739    Z=             -2.9616  Tot=              5.6957
 Quadrupole moment (field-independent basis, Debye-Ang):
   XX=           -369.6350   YY=           -418.5385   ZZ=           -403.3329
   XY=             18.4554   XZ=             13.7396   YZ=              6.2954

 Normal termination of Gaussian 16 at Thu May  5 06:32:55 2022.
