 Gaussian 16, Revision A.03,
 Gaussian 16:  ES64L-G16RevA.03 25-Dec-2016

 --------------------
 #p ZINDO=(nstates=5)
 --------------------

 -----------------------------
 step_701_chromophore_19 ZINDO
 -----------------------------
 Symbolic Z-matrix:
 Charge =  0 Multiplicity = 1

                         Standard orientation:
 ---------------------------------------------------------------------
 Center     Atomic      Atomic             Coordinates (Angstroms)
 Number     Number       Type             X           Y           Z
 ---------------------------------------------------------------------
      1         12           0       -5.937291    0.390362   -0.316538
      2          6           0       -3.477473   -2.190083   -0.091401
      3          6           0       -3.437300    2.584344    0.427968
      4          6           0       -8.313386    2.639097    0.166204
      5          6           0       -8.371478   -2.068395   -0.607585
      6          7           0       -3.749615    0.198971    0.385372
      7          6           0       -2.941974   -0.873539    0.154899
      8          6           0       -1.432691   -0.556443    0.210130
      9          6           0       -1.482100    0.963986    0.710813
     10          6           0       -2.962609    1.297952    0.615485
     11          6           0       -0.784784    1.276307    2.076955
     12          6           0       -0.730140   -0.867548   -1.141925
     13          6           0        0.623826   -1.612854   -1.001630
     14          6           0        1.589677   -1.217342    0.151493
     15          8           0        1.673363   -1.776887    1.229109
     16          8           0        2.457318   -0.206787   -0.269616
     17          7           0       -5.895686    2.368868   -0.083072
     18          6           0       -4.780889    3.075733    0.225646
     19          6           0       -5.127150    4.500114    0.288774
     20          6           0       -6.512496    4.576835    0.181151
     21          6           0       -6.979931    3.152153    0.052083
     22          6           0       -4.064603    5.627050    0.498400
     23          6           0       -7.423592    5.835046    0.452107
     24          8           0       -8.634022    5.769956    0.431484
     25          6           0       -6.852682    7.244818    0.532900
     26          7           0       -8.176500    0.238773   -0.097244
     27          6           0       -8.866276    1.351137    0.181494
     28          6           0      -10.363897    0.983933    0.360003
     29          6           0      -10.375808   -0.407697   -0.411657
     30          6           0       -8.850727   -0.731882   -0.387376
     31          6           0      -10.946387    0.992432    1.739216
     32          6           0      -11.049384   -0.524787   -1.840819
     33          6           0      -12.064952   -1.557395   -2.133453
     34          7           0       -5.950007   -1.702116   -0.207827
     35          6           0       -7.026818   -2.552947   -0.426620
     36          6           0       -6.527939   -3.904950   -0.601544
     37          6           0       -5.146597   -3.777907   -0.452871
     38          6           0       -4.839816   -2.434322   -0.244232
     39          6           0       -7.369488   -4.996907   -0.980856
     40          6           0       -3.931673   -4.555272   -0.655145
     41          8           0       -3.831524   -5.682958   -0.931391
     42          6           0       -2.773768   -3.530257   -0.323991
     43          6           0       -2.031062   -3.958109    0.861819
     44          8           0       -2.341412   -3.665881    2.036571
     45          8           0       -0.893650   -4.677917    0.577997
     46          6           0       -0.023621   -4.866958    1.812740
     47          6           0        3.573281    0.212006    0.664096
     48          6           0        4.871202   -0.326278    0.184693
     49          6           0        6.173209    0.131962    0.246793
     50          6           0        6.495518    1.442442    0.890905
     51          6           0        7.133375   -0.540417   -0.684396
     52          6           0        8.595710   -0.044601   -0.866772
     53          6           0        8.819226    0.365478   -2.315625
     54          6           0        9.844178    1.488300   -2.483602
     55          6           0        9.384471    2.697372   -3.383138
     56          6           0       11.128906    0.970476   -3.221857
     57          6           0       12.387308    1.715954   -2.561782
     58          6           0       13.479008    0.649039   -2.267519
     59          6           0       13.996918    0.612289   -0.801111
     60          6           0       15.515565    0.995336   -0.769998
     61          6           0       13.616983   -0.738711   -0.130274
     62          6           0       12.286532   -0.645146    0.703813
     63          6           0       12.616794   -0.838292    2.228361
     64          6           0       11.609254   -0.159672    3.077417
     65          6           0       11.985998    1.228194    3.614742
     66          6           0       11.187006   -1.127347    4.206426
     67          1           0       -2.603366    3.281164    0.532549
     68          1           0       -9.052366    3.442170    0.172378
     69          1           0       -9.140797   -2.828057   -0.764718
     70          1           0       -0.911962   -1.161088    0.951750
     71          1           0       -1.074650    1.599843   -0.073963
     72          1           0       -1.458166    1.858036    2.705933
     73          1           0        0.131486    1.860986    2.003966
     74          1           0       -0.717650    0.343500    2.637294
     75          1           0       -0.670633    0.071880   -1.691915
     76          1           0       -1.345742   -1.417365   -1.853477
     77          1           0        1.109174   -1.458153   -1.964793
     78          1           0        0.435181   -2.651278   -0.728608
     79          1           0       -4.186699    6.499380   -0.144083
     80          1           0       -3.016145    5.381456    0.669910
     81          1           0       -4.399035    5.970162    1.476683
     82          1           0       -6.268385    7.442181   -0.365286
     83          1           0       -6.202845    7.261433    1.407566
     84          1           0       -7.626622    8.007474    0.618310
     85          1           0      -10.895467    1.689151   -0.278609
     86          1           0      -10.837766   -1.072117    0.318257
     87          1           0      -11.777276    1.697285    1.718421
     88          1           0      -10.115205    1.280640    2.382531
     89          1           0      -11.549287    0.112081    1.961321
     90          1           0      -10.259338   -0.671874   -2.577193
     91          1           0      -11.531823    0.400302   -2.158236
     92          1           0      -12.956276   -1.024232   -2.465458
     93          1           0      -12.357315   -2.014281   -1.187097
     94          1           0      -11.814245   -2.414284   -2.757380
     95          1           0       -7.152289   -5.371286   -1.981026
     96          1           0       -8.390836   -4.627954   -1.072281
     97          1           0       -7.336761   -5.736194   -0.180593
     98          1           0       -2.188695   -3.571113   -1.243139
     99          1           0       -0.501580   -5.328078    2.676412
    100          1           0        0.402059   -3.904092    2.097269
    101          1           0        0.842652   -5.446894    1.493874
    102          1           0        3.402587    0.063614    1.730851
    103          1           0        3.649351    1.297208    0.598835
    104          1           0        4.631429   -1.326374   -0.177434
    105          1           0        7.003544    1.961556    0.078865
    106          1           0        7.134608    1.287255    1.760796
    107          1           0        5.624811    1.990546    1.250491
    108          1           0        6.754280   -0.766242   -1.680896
    109          1           0        7.233988   -1.458479   -0.106232
    110          1           0        9.320456   -0.773649   -0.503286
    111          1           0        8.780842    0.812664   -0.219913
    112          1           0        7.876599    0.597920   -2.810800
    113          1           0        9.053732   -0.592295   -2.779559
    114          1           0       10.079726    1.843015   -1.480957
    115          1           0        8.671318    2.304744   -4.107238
    116          1           0       10.111151    3.186925   -4.031283
    117          1           0        8.710855    3.381711   -2.867884
    118          1           0       11.152769    1.258501   -4.272732
    119          1           0       11.122724   -0.118220   -3.271733
    120          1           0       12.078051    2.208643   -1.639615
    121          1           0       12.709905    2.491456   -3.256579
    122          1           0       14.245634    1.046625   -2.933920
    123          1           0       13.248592   -0.358629   -2.611559
    124          1           0       13.458828    1.388149   -0.256502
    125          1           0       15.578653    1.967681   -0.283186
    126          1           0       16.069678    1.068319   -1.705861
    127          1           0       16.096268    0.284164   -0.183736
    128          1           0       14.440351   -1.121487    0.472803
    129          1           0       13.395252   -1.519271   -0.857896
    130          1           0       11.513550   -1.362809    0.427711
    131          1           0       11.929949    0.368633    0.521305
    132          1           0       13.597229   -0.395368    2.401648
    133          1           0       12.613120   -1.911217    2.425080
    134          1           0       10.665016   -0.066775    2.540022
    135          1           0       11.035631    1.743938    3.753293
    136          1           0       12.574297    1.775425    2.878661
    137          1           0       12.486325    1.268334    4.582800
    138          1           0       11.987564   -1.143412    4.945312
    139          1           0       11.025495   -2.087192    3.714836
    140          1           0       10.261345   -0.610776    4.461480
 ---------------------------------------------------------------------

 SCF Done:  E(RZINDO/S) =  -474.311670657     A.U. after   19 cycles

 Excitation energies and oscillator strengths:

 Excited State   1:      Singlet-A      1.3615 eV  910.63 nm  f=0.4937  <S**2>=0.000
     175 ->178        -0.18832
     176 ->177         0.66275
 This state for optimization and/or second-order correction.
 Total Energy, E(CIS/TDA) =  -474.261635445
 Copying the excited state density for this state as the 1-particle RhoCI density.

 Excited State   2:      Singlet-A      1.9080 eV  649.82 nm  f=0.0170  <S**2>=0.000
     175 ->177         0.51409
     176 ->178         0.45802

 Excited State   3:      Singlet-A      2.9135 eV  425.55 nm  f=0.7808  <S**2>=0.000
     175 ->177        -0.34441
     176 ->178         0.39717
     176 ->179        -0.31259
     176 ->180        -0.21850
     176 ->181        -0.14903
     176 ->182        -0.11550

 Excited State   4:      Singlet-A      2.9773 eV  416.43 nm  f=0.4141  <S**2>=0.000
     175 ->177        -0.23562
     176 ->178         0.25156
     176 ->179         0.22814
     176 ->180         0.41249
     176 ->181         0.34153

 Excited State   5:      Singlet-A      3.0320 eV  408.91 nm  f=0.0024  <S**2>=0.000
     168 ->177        -0.36834
     168 ->179         0.37781
     168 ->183         0.19452
     168 ->186         0.20513
     168 ->187        -0.10580

 The electronic state is 1-A.
 Alpha  occ. eigenvalues --   -1.86176  -1.83292  -1.79635  -1.72012  -1.71279
 Alpha  occ. eigenvalues --   -1.69106  -1.65574  -1.61904  -1.61212  -1.57956
 Alpha  occ. eigenvalues --   -1.56547  -1.51661  -1.50614  -1.48179  -1.47077
 Alpha  occ. eigenvalues --   -1.43831  -1.41745  -1.40100  -1.38676  -1.37717
 Alpha  occ. eigenvalues --   -1.36921  -1.35593  -1.33322  -1.30712  -1.29490
 Alpha  occ. eigenvalues --   -1.26858  -1.24111  -1.20588  -1.19643  -1.17470
 Alpha  occ. eigenvalues --   -1.17256  -1.16671  -1.16473  -1.14332  -1.13045
 Alpha  occ. eigenvalues --   -1.12539  -1.09895  -1.09318  -1.05431  -1.03735
 Alpha  occ. eigenvalues --   -1.03552  -1.00892  -0.99347  -0.97866  -0.97163
 Alpha  occ. eigenvalues --   -0.95815  -0.94436  -0.93680  -0.93173  -0.92820
 Alpha  occ. eigenvalues --   -0.91556  -0.90446  -0.88861  -0.87709  -0.85821
 Alpha  occ. eigenvalues --   -0.85692  -0.83404  -0.82965  -0.81671  -0.80557
 Alpha  occ. eigenvalues --   -0.79912  -0.78490  -0.77311  -0.76687  -0.76162
 Alpha  occ. eigenvalues --   -0.76021  -0.75013  -0.74929  -0.74051  -0.73456
 Alpha  occ. eigenvalues --   -0.73045  -0.72988  -0.72325  -0.71604  -0.70734
 Alpha  occ. eigenvalues --   -0.69870  -0.69205  -0.68823  -0.68266  -0.67966
 Alpha  occ. eigenvalues --   -0.67254  -0.66735  -0.66249  -0.66018  -0.65440
 Alpha  occ. eigenvalues --   -0.65277  -0.65064  -0.64631  -0.64262  -0.63897
 Alpha  occ. eigenvalues --   -0.63625  -0.63124  -0.62833  -0.62273  -0.61826
 Alpha  occ. eigenvalues --   -0.61301  -0.60989  -0.60746  -0.60575  -0.59493
 Alpha  occ. eigenvalues --   -0.59064  -0.58846  -0.58454  -0.58292  -0.57776
 Alpha  occ. eigenvalues --   -0.57202  -0.57163  -0.56942  -0.56732  -0.56511
 Alpha  occ. eigenvalues --   -0.55832  -0.55309  -0.55207  -0.54978  -0.54284
 Alpha  occ. eigenvalues --   -0.54151  -0.53621  -0.53126  -0.52710  -0.52614
 Alpha  occ. eigenvalues --   -0.52368  -0.51858  -0.51780  -0.51575  -0.51321
 Alpha  occ. eigenvalues --   -0.51237  -0.50679  -0.50649  -0.50311  -0.50259
 Alpha  occ. eigenvalues --   -0.50240  -0.49944  -0.49409  -0.49164  -0.48960
 Alpha  occ. eigenvalues --   -0.48611  -0.48464  -0.48353  -0.47944  -0.47705
 Alpha  occ. eigenvalues --   -0.47480  -0.47362  -0.47221  -0.47147  -0.46544
 Alpha  occ. eigenvalues --   -0.46248  -0.45943  -0.45740  -0.45297  -0.45113
 Alpha  occ. eigenvalues --   -0.45079  -0.44981  -0.44722  -0.44265  -0.43995
 Alpha  occ. eigenvalues --   -0.43773  -0.43674  -0.42387  -0.42079  -0.41775
 Alpha  occ. eigenvalues --   -0.41498  -0.41256  -0.39719  -0.39494  -0.38361
 Alpha  occ. eigenvalues --   -0.38059  -0.36649  -0.35147  -0.34184  -0.33936
 Alpha  occ. eigenvalues --   -0.33476  -0.32220  -0.31947  -0.30736  -0.25922
 Alpha  occ. eigenvalues --   -0.21282
 Alpha virt. eigenvalues --   -0.07303  -0.01783  -0.00102   0.01444   0.01500
 Alpha virt. eigenvalues --    0.01895   0.02868   0.03743   0.03850   0.05128
 Alpha virt. eigenvalues --    0.06823   0.07140   0.07749   0.08113   0.08269

 Mulliken charges:
               1
     1  Mg   0.435604
     2  C   -0.080682
     3  C   -0.081417
     4  C   -0.046234
     5  C   -0.094286
     6  N   -0.295160
     7  C    0.165783
     8  C    0.001184
     9  C    0.003610
    10  C    0.094056
    11  C   -0.050606
    12  C   -0.019666
    13  C    0.005148
    14  C    0.466358
    15  O   -0.504658
    16  O   -0.281916
    17  N   -0.278471
    18  C    0.072596
    19  C   -0.014338
    20  C   -0.062879
    21  C    0.096495
    22  C   -0.055541
    23  C    0.319021
    24  O   -0.520195
    25  C   -0.026066
    26  N   -0.218419
    27  C    0.077062
    28  C    0.004075
    29  C   -0.010909
    30  C    0.177023
    31  C   -0.049813
    32  C   -0.020004
    33  C   -0.052956
    34  N   -0.343000
    35  C    0.106722
    36  C    0.070758
    37  C   -0.056586
    38  C    0.149645
    39  C   -0.031527
    40  C    0.340704
    41  O   -0.488198
    42  C    0.059564
    43  C    0.490216
    44  O   -0.535059
    45  O   -0.268706
    46  C    0.073917
    47  C    0.108391
    48  C   -0.092536
    49  C   -0.007361
    50  C   -0.042000
    51  C   -0.024726
    52  C   -0.039100
    53  C   -0.032272
    54  C   -0.010340
    55  C   -0.066025
    56  C   -0.045844
    57  C   -0.041604
    58  C   -0.041569
    59  C   -0.008892
    60  C   -0.060693
    61  C   -0.038598
    62  C   -0.048881
    63  C   -0.031458
    64  C   -0.014729
    65  C   -0.054383
    66  C   -0.070988
    67  H    0.020023
    68  H    0.039434
    69  H    0.027869
    70  H    0.048503
    71  H    0.023513
    72  H    0.017355
    73  H    0.028981
    74  H    0.032017
    75  H    0.022620
    76  H    0.022518
    77  H    0.039652
    78  H    0.046767
    79  H    0.029758
    80  H    0.032818
    81  H    0.018252
    82  H    0.034936
    83  H    0.032886
    84  H    0.038425
    85  H    0.022016
    86  H    0.025688
    87  H    0.017976
    88  H    0.041389
    89  H    0.026340
    90  H    0.015413
    91  H    0.022849
    92  H    0.020176
    93  H    0.008070
    94  H    0.027472
    95  H    0.041950
    96  H    0.016693
    97  H    0.045157
    98  H    0.051952
    99  H    0.058044
   100  H    0.048174
   101  H    0.026370
   102  H    0.061262
   103  H    0.027344
   104  H    0.024790
   105  H    0.031223
   106  H    0.032427
   107  H    0.023003
   108  H    0.036358
   109  H    0.022282
   110  H    0.022246
   111  H    0.014364
   112  H    0.017722
   113  H    0.016393
   114  H    0.028747
   115  H    0.006814
   116  H    0.031661
   117  H    0.013341
   118  H    0.015360
   119  H    0.024358
   120  H    0.023267
   121  H    0.022581
   122  H    0.010544
   123  H    0.028137
   124  H    0.023973
   125  H    0.014648
   126  H    0.023863
   127  H    0.014265
   128  H    0.020527
   129  H    0.014014
   130  H    0.024200
   131  H    0.020414
   132  H    0.020105
   133  H    0.021035
   134  H    0.012277
   135  H    0.010753
   136  H    0.016480
   137  H    0.024001
   138  H    0.028588
   139  H    0.022778
   140  H    0.023159
 Sum of Mulliken charges =  -0.00000

 Dipole moment (field-independent basis, Debye):
    X=              3.4960    Y=              2.1132    Z=             -4.9331  Tot=              6.4049
 N-N= 4.287080197163D+03 E-N= 0.000000000000D+00  KE=-9.248824650713D+03
 Leave Link  601 at Thu May  5 06:44:49 2022, MaxMem=  6710886400 cpu:               0.8 elap:               0.1
 (Enter /sw/apps/gaussian-16.0/g16/l9999.exe)
 1\1\GINC-BP1-COMPUTE159\SP\RZINDO CIS\STO-3G\C55H74Mg1N4O6\OF15641\05-
 May-2022\0\\#p ZINDO=(nstates=5)\\step_701_chromophore_19 ZINDO\\0,1\M
 g,0,25.468,51.186,27.061\C,0,23.342,52.23,29.735\C,0,27.799,50.465,29.
 441\C,0,27.636,50.903,24.58\C,0,23.118,52.417,24.821\N,0,25.669,51.578
 ,29.324\C,0,24.629,51.759,30.185\C,0,24.962,51.446,31.659\C,0,26.538,5
 1.186,31.543\C,0,26.761,51.158,30.039\C,0,27.469,52.137,32.367\C,0,24.
 064,50.308,32.222\C,0,23.497,50.584,33.64\C,0,24.406,51.272,34.698\O,0

 Normal termination of Gaussian 16 at Thu May  5 06:44:49 2022.
