 Gaussian 16, Revision A.03,
 Gaussian 16:  ES64L-G16RevA.03 25-Dec-2016

 ------------------------------
 #p blyp/Def2SVP td=(nstates=5)
 ------------------------------

 -------------------------------------------------
 step_951_chromophore_4 TDDFT with blyp functional
 -------------------------------------------------
 Symbolic Z-matrix:
 Charge =  0 Multiplicity = 1

                         Standard orientation:
 ---------------------------------------------------------------------
 Center     Atomic      Atomic             Coordinates (Angstroms)
 Number     Number       Type             X           Y           Z
 ---------------------------------------------------------------------
      1         12           0        5.919136    0.513699    0.077072
      2          6           0        3.656503   -2.205612    0.105515
      3          6           0        3.478438    2.543258   -0.813585
      4          6           0        8.274205    3.114558   -0.066272
      5          6           0        8.513702   -1.719381    0.676070
      6          7           0        3.878695    0.085536   -0.625646
      7          6           0        3.046414   -1.010751   -0.249241
      8          6           0        1.522149   -0.705709   -0.354518
      9          6           0        1.600213    0.791225   -0.819265
     10          6           0        3.095028    1.156120   -0.750647
     11          6           0        0.812976    1.166339   -2.155540
     12          6           0        0.674779   -0.884023    0.896907
     13          6           0       -0.795142   -0.582699    0.809348
     14          6           0       -1.609726   -1.729456    0.199878
     15          8           0       -1.139848   -2.606319   -0.497476
     16          8           0       -2.930060   -1.589849    0.482035
     17          7           0        5.942040    2.488056   -0.433399
     18          6           0        4.768335    3.157140   -0.704622
     19          6           0        5.025471    4.593845   -0.767416
     20          6           0        6.414832    4.787512   -0.467048
     21          6           0        6.940012    3.482753   -0.207694
     22          6           0        3.960293    5.656462   -0.827635
     23          6           0        7.198560    6.078973   -0.268927
     24          8           0        8.380880    6.060271    0.062247
     25          6           0        6.410201    7.468955   -0.422731
     26          7           0        8.135197    0.609828    0.064154
     27          6           0        8.841166    1.799465   -0.031493
     28          6           0       10.354700    1.470544   -0.139653
     29          6           0       10.422102    0.021034    0.458807
     30          6           0        8.981588   -0.436343    0.375074
     31          6           0       10.827021    1.616308   -1.597903
     32          6           0       11.050011   -0.088991    1.910683
     33          6           0       12.408934   -0.690460    1.928425
     34          7           0        6.088476   -1.532819    0.322971
     35          6           0        7.202246   -2.282838    0.743998
     36          6           0        6.797293   -3.645426    0.945781
     37          6           0        5.370525   -3.671648    0.685907
     38          6           0        5.017226   -2.369790    0.390406
     39          6           0        7.669805   -4.759675    1.535370
     40          6           0        4.214745   -4.521492    0.719296
     41          8           0        4.148715   -5.807540    0.867585
     42          6           0        3.021520   -3.666493    0.357602
     43          6           0        2.337888   -4.095482   -0.886742
     44          8           0        2.437970   -3.523072   -1.934761
     45          8           0        1.481839   -5.192834   -0.654504
     46          6           0        0.600495   -5.609992   -1.815690
     47          6           0       -3.809150   -2.548359   -0.115610
     48          6           0       -5.249720   -2.085251    0.078500
     49          6           0       -6.439018   -2.740822    0.267375
     50          6           0       -6.703396   -4.181414    0.135231
     51          6           0       -7.657936   -1.866809    0.516313
     52          6           0       -8.156876   -1.091423   -0.762213
     53          6           0       -8.235554    0.404355   -0.492400
     54          6           0       -9.620847    1.095344   -0.692788
     55          6           0       -9.917363    1.264303   -2.241070
     56          6           0       -9.667550    2.414134    0.055489
     57          6           0      -10.009719    2.354484    1.594741
     58          6           0      -11.061072    3.422500    1.976669
     59          6           0      -12.422693    2.834427    2.273329
     60          6           0      -13.278816    3.907161    3.017378
     61          6           0      -13.070411    2.345349    0.948434
     62          6           0      -13.507667    0.891349    1.016373
     63          6           0      -14.665643    0.663321    0.044349
     64          6           0      -14.289924   -0.520180   -0.898080
     65          6           0      -14.032922   -0.045203   -2.308389
     66          6           0      -15.405502   -1.580356   -0.914180
     67          1           0        2.604752    3.196868   -0.856206
     68          1           0        9.022451    3.902203   -0.177227
     69          1           0        9.390273   -2.310587    0.950791
     70          1           0        1.011478   -1.238406   -1.156933
     71          1           0        1.090230    1.439902   -0.107011
     72          1           0        0.357354    0.323242   -2.673589
     73          1           0        1.536628    1.500805   -2.898321
     74          1           0        0.018013    1.894471   -1.996273
     75          1           0        1.103216   -0.368133    1.756349
     76          1           0        0.858447   -1.948406    1.046251
     77          1           0       -1.033618    0.219402    0.110734
     78          1           0       -1.074516   -0.328605    1.831888
     79          1           0        3.973263    6.416864   -0.047534
     80          1           0        2.968641    5.227485   -0.974656
     81          1           0        4.077649    6.238356   -1.741633
     82          1           0        5.706653    7.637249    0.393250
     83          1           0        6.068099    7.494760   -1.457399
     84          1           0        7.134451    8.248785   -0.187706
     85          1           0       11.003738    2.103862    0.465483
     86          1           0       10.965798   -0.567181   -0.280441
     87          1           0       10.041879    2.002267   -2.248167
     88          1           0       11.018970    0.645783   -2.054905
     89          1           0       11.517713    2.448721   -1.733625
     90          1           0       10.277860   -0.535404    2.537785
     91          1           0       11.112847    0.920416    2.315508
     92          1           0       12.830932   -0.598842    0.927036
     93          1           0       12.384085   -1.750349    2.181867
     94          1           0       13.099884   -0.235098    2.638186
     95          1           0        7.623348   -5.611715    0.857376
     96          1           0        7.380793   -5.066862    2.540627
     97          1           0        8.674115   -4.342220    1.615637
     98          1           0        2.264214   -3.799939    1.130265
     99          1           0        1.157602   -5.958124   -2.685997
    100          1           0       -0.009541   -4.722993   -1.985976
    101          1           0       -0.049419   -6.428495   -1.507049
    102          1           0       -3.533852   -3.451642    0.428734
    103          1           0       -3.482459   -2.830578   -1.116083
    104          1           0       -5.298955   -1.002686    0.189968
    105          1           0       -7.484811   -4.284990   -0.618536
    106          1           0       -7.104832   -4.612269    1.053046
    107          1           0       -5.829713   -4.789279   -0.101177
    108          1           0       -7.382363   -1.181241    1.318139
    109          1           0       -8.554949   -2.330694    0.927333
    110          1           0       -9.055694   -1.681113   -0.940589
    111          1           0       -7.570357   -1.236810   -1.669969
    112          1           0       -7.572349    0.927024   -1.181635
    113          1           0       -7.959139    0.641684    0.534203
    114          1           0      -10.460864    0.522732   -0.299081
    115          1           0      -11.006583    1.292660   -2.253606
    116          1           0       -9.552547    0.419398   -2.823944
    117          1           0       -9.427238    2.142212   -2.660703
    118          1           0      -10.318396    3.057502   -0.536309
    119          1           0       -8.620191    2.718530    0.058721
    120          1           0       -9.077358    2.564287    2.118850
    121          1           0      -10.350496    1.353397    1.854976
    122          1           0      -11.284201    4.144333    1.190376
    123          1           0      -10.724855    3.920713    2.886391
    124          1           0      -12.289949    2.015072    2.979770
    125          1           0      -14.314212    3.939721    2.677576
    126          1           0      -12.868237    4.914948    3.079963
    127          1           0      -13.328768    3.554953    4.048099
    128          1           0      -12.397365    2.342435    0.091111
    129          1           0      -13.863823    3.047165    0.689803
    130          1           0      -13.765385    0.628803    2.042195
    131          1           0      -12.649630    0.294185    0.708967
    132          1           0      -14.977391    1.552117   -0.504061
    133          1           0      -15.586497    0.487994    0.600116
    134          1           0      -13.407385   -1.091109   -0.612124
    135          1           0      -14.203843    0.995086   -2.585248
    136          1           0      -14.505818   -0.565426   -3.141193
    137          1           0      -12.963456   -0.145382   -2.495401
    138          1           0      -16.126475   -1.512183   -1.728511
    139          1           0      -15.942665   -1.633473    0.032616
    140          1           0      -15.058020   -2.612879   -0.944985
 ---------------------------------------------------------------------

 SCF Done:  E(RB-LYP) =  -3007.37626883     A.U. after   22 cycles

 Excitation energies and oscillator strengths:

 Excited State   1:      Singlet-A      1.5758 eV  786.80 nm  f=0.0011  <S**2>=0.000
     244 -> 247        0.69474
     245 -> 247        0.11404
 This state for optimization and/or second-order correction.
 Total Energy, E(TD-HF/TD-DFT) =  -3007.31835900
 Copying the excited state density for this state as the 1-particle RhoCI density.

 Excited State   2:      Singlet-A      1.7547 eV  706.60 nm  f=0.2934  <S**2>=0.000
     245 -> 248        0.16402
     246 -> 247        0.68665
     246 <- 247       -0.14883

 Excited State   3:      Singlet-A      1.9536 eV  634.63 nm  f=0.0900  <S**2>=0.000
     244 -> 247       -0.11046
     245 -> 247        0.64567
     246 -> 248       -0.19495
     246 -> 249        0.10370

 Excited State   4:      Singlet-A      2.1120 eV  587.06 nm  f=0.0027  <S**2>=0.000
     243 -> 247        0.69997

 Excited State   5:      Singlet-A      2.2494 eV  551.19 nm  f=0.0000  <S**2>=0.000
     241 -> 247        0.70692

 The electronic state is 1-A.
 Alpha  occ. eigenvalues --  -46.26760 -18.83075 -18.79853 -18.78179 -18.76495
 Alpha  occ. eigenvalues --  -18.75906 -18.74156 -14.03284 -14.02517 -14.01059
 Alpha  occ. eigenvalues --  -14.00375 -10.05056 -10.02712 -10.00837  -9.98684
 Alpha  occ. eigenvalues --   -9.98483  -9.96786  -9.96577  -9.96455  -9.96445
 Alpha  occ. eigenvalues --   -9.96185  -9.95851  -9.95648  -9.95383  -9.94438
 Alpha  occ. eigenvalues --   -9.94292  -9.93918  -9.93871  -9.93685  -9.93619
 Alpha  occ. eigenvalues --   -9.93550  -9.93468  -9.93446  -9.93410  -9.93356
 Alpha  occ. eigenvalues --   -9.93091  -9.93069  -9.92914  -9.92872  -9.92684
 Alpha  occ. eigenvalues --   -9.92644  -9.92623  -9.92504  -9.92383  -9.92364
 Alpha  occ. eigenvalues --   -9.92312  -9.92232  -9.92110  -9.91986  -9.91926
 Alpha  occ. eigenvalues --   -9.91859  -9.91801  -9.91675  -9.91598  -9.91597
 Alpha  occ. eigenvalues --   -9.91506  -9.91248  -9.90988  -9.90956  -9.90949
 Alpha  occ. eigenvalues --   -9.90847  -9.90805  -9.90704  -9.90585  -9.90584
 Alpha  occ. eigenvalues --   -9.90461  -2.91388  -1.71792  -1.71299  -1.71087
 Alpha  occ. eigenvalues --   -0.99878  -0.95571  -0.91844  -0.91795  -0.88143
 Alpha  occ. eigenvalues --   -0.86643  -0.85524  -0.84689  -0.84421  -0.83716
 Alpha  occ. eigenvalues --   -0.74681  -0.74078  -0.73645  -0.73397  -0.72322
 Alpha  occ. eigenvalues --   -0.71843  -0.71307  -0.70971  -0.70126  -0.69825
 Alpha  occ. eigenvalues --   -0.69350  -0.68834  -0.67962  -0.67476  -0.67065
 Alpha  occ. eigenvalues --   -0.66631  -0.65943  -0.65129  -0.64378  -0.64349
 Alpha  occ. eigenvalues --   -0.63759  -0.62511  -0.62381  -0.61603  -0.60765
 Alpha  occ. eigenvalues --   -0.60366  -0.60100  -0.59643  -0.59368  -0.59214
 Alpha  occ. eigenvalues --   -0.58584  -0.57085  -0.56540  -0.55698  -0.54301
 Alpha  occ. eigenvalues --   -0.54177  -0.53648  -0.52761  -0.52573  -0.51520
 Alpha  occ. eigenvalues --   -0.51207  -0.50940  -0.50578  -0.50488  -0.50079
 Alpha  occ. eigenvalues --   -0.49352  -0.49305  -0.48789  -0.47188  -0.46827
 Alpha  occ. eigenvalues --   -0.46396  -0.46039  -0.45237  -0.44832  -0.44597
 Alpha  occ. eigenvalues --   -0.43946  -0.43644  -0.43100  -0.42495  -0.42388
 Alpha  occ. eigenvalues --   -0.41902  -0.41644  -0.41363  -0.41045  -0.40926
 Alpha  occ. eigenvalues --   -0.40805  -0.40557  -0.40261  -0.40049  -0.39999
 Alpha  occ. eigenvalues --   -0.39598  -0.39466  -0.39366  -0.39235  -0.38971
 Alpha  occ. eigenvalues --   -0.38728  -0.38434  -0.38289  -0.38233  -0.37890
 Alpha  occ. eigenvalues --   -0.37791  -0.37667  -0.37506  -0.37396  -0.37293
 Alpha  occ. eigenvalues --   -0.37185  -0.36680  -0.36620  -0.36424  -0.36219
 Alpha  occ. eigenvalues --   -0.36070  -0.35916  -0.35791  -0.35650  -0.35242
 Alpha  occ. eigenvalues --   -0.35097  -0.34980  -0.34713  -0.34672  -0.34535
 Alpha  occ. eigenvalues --   -0.34440  -0.34005  -0.33944  -0.33697  -0.33562
 Alpha  occ. eigenvalues --   -0.33533  -0.33451  -0.33378  -0.33236  -0.32898
 Alpha  occ. eigenvalues --   -0.32814  -0.32647  -0.32370  -0.32321  -0.32094
 Alpha  occ. eigenvalues --   -0.31916  -0.31725  -0.31570  -0.31536  -0.31356
 Alpha  occ. eigenvalues --   -0.31215  -0.31140  -0.30876  -0.30720  -0.30470
 Alpha  occ. eigenvalues --   -0.30421  -0.30089  -0.29952  -0.29866  -0.29629
 Alpha  occ. eigenvalues --   -0.29424  -0.29373  -0.29348  -0.29113  -0.28817
 Alpha  occ. eigenvalues --   -0.28783  -0.28555  -0.28260  -0.27739  -0.27704
 Alpha  occ. eigenvalues --   -0.27505  -0.27291  -0.27249  -0.26764  -0.26543
 Alpha  occ. eigenvalues --   -0.26441  -0.26080  -0.26046  -0.25835  -0.25418
 Alpha  occ. eigenvalues --   -0.25108  -0.24494  -0.23709  -0.23494  -0.23460
 Alpha  occ. eigenvalues --   -0.23271  -0.23233  -0.21687  -0.20978  -0.20524
 Alpha  occ. eigenvalues --   -0.19859  -0.19600  -0.19246  -0.17305  -0.16953
 Alpha  occ. eigenvalues --   -0.15743
 Alpha virt. eigenvalues --   -0.11592  -0.06927  -0.06347  -0.04792  -0.03077
 Alpha virt. eigenvalues --   -0.02666  -0.02476  -0.01765  -0.01247   0.00118
 Alpha virt. eigenvalues --    0.01199   0.01299   0.02170   0.02611   0.02713

 Mulliken charges:
               1
     1  Mg   0.672883
     2  C    0.010144
     3  C   -0.073411
     4  C   -0.029524
     5  C   -0.030845
     6  N   -0.230299
     7  C   -0.068563
     8  C    0.061330
     9  C   -0.042956
    10  C    0.038958
    11  C    0.104113
    12  C    0.118932
    13  C    0.151057
    14  C    0.053659
    15  O   -0.184399
    16  O   -0.250147
    17  N   -0.338513
    18  C    0.187067
    19  C   -0.137778
    20  C    0.034092
    21  C    0.110523
    22  C    0.194618
    23  C   -0.068235
    24  O   -0.157547
    25  C    0.103631
    26  N   -0.209420
    27  C    0.023176
    28  C   -0.016785
    29  C    0.037272
    30  C   -0.052565
    31  C    0.148881
    32  C    0.124764
    33  C    0.082614
    34  N   -0.285883
    35  C    0.156849
    36  C   -0.174481
    37  C    0.086744
    38  C    0.117495
    39  C    0.171339
    40  C   -0.045319
    41  O   -0.205573
    42  C    0.065286
    43  C    0.126914
    44  O   -0.158779
    45  O   -0.307577
    46  C    0.218183
    47  C    0.302043
    48  C   -0.078744
    49  C   -0.126147
    50  C    0.168562
    51  C    0.073343
    52  C    0.098001
    53  C    0.095404
    54  C   -0.111027
    55  C    0.084609
    56  C    0.097115
    57  C    0.099281
    58  C    0.091480
    59  C   -0.079630
    60  C    0.114779
    61  C    0.082868
    62  C    0.070056
    63  C    0.126898
    64  C   -0.056260
    65  C    0.088716
    66  C    0.083847
    67  H   -0.066964
    68  H   -0.039990
    69  H   -0.065529
    70  H   -0.004191
    71  H   -0.032794
    72  H   -0.007232
    73  H   -0.006217
    74  H   -0.007053
    75  H   -0.038778
    76  H   -0.017185
    77  H    0.005027
    78  H    0.006019
    79  H    0.004105
    80  H   -0.023145
    81  H   -0.019129
    82  H    0.015466
    83  H    0.020772
    84  H   -0.015868
    85  H   -0.028856
    86  H   -0.029621
    87  H   -0.020227
    88  H   -0.009102
    89  H   -0.004071
    90  H   -0.024820
    91  H   -0.027759
    92  H   -0.007686
    93  H   -0.006862
    94  H   -0.010200
    95  H    0.015236
    96  H    0.011523
    97  H   -0.027609
    98  H    0.017727
    99  H    0.019454
   100  H    0.025149
   101  H    0.008429
   102  H   -0.019654
   103  H    0.001006
   104  H   -0.033822
   105  H   -0.002198
   106  H   -0.005766
   107  H   -0.016253
   108  H   -0.013618
   109  H   -0.037277
   110  H   -0.027579
   111  H   -0.019361
   112  H   -0.027655
   113  H   -0.028587
   114  H   -0.043862
   115  H   -0.001609
   116  H   -0.019440
   117  H   -0.012978
   118  H   -0.023276
   119  H   -0.044112
   120  H   -0.029561
   121  H   -0.027480
   122  H   -0.023003
   123  H   -0.045858
   124  H   -0.038864
   125  H   -0.022538
   126  H   -0.012931
   127  H   -0.026732
   128  H   -0.035668
   129  H   -0.032933
   130  H   -0.028120
   131  H   -0.020411
   132  H   -0.032880
   133  H   -0.041643
   134  H   -0.024270
   135  H   -0.021514
   136  H   -0.024554
   137  H   -0.022461
   138  H   -0.013744
   139  H   -0.030719
   140  H   -0.033215
 Sum of Mulliken charges =  -0.00000

 Dipole moment (field-independent basis, Debye):
    X=             -4.8668    Y=              4.0443    Z=              1.3022  Tot=              6.4605
 Quadrupole moment (field-independent basis, Debye-Ang):
   XX=           -378.2237   YY=           -430.0198   ZZ=           -404.2327
   XY=             12.9785   XZ=              5.8045   YZ=              0.1291

 Normal termination of Gaussian 16 at Thu May  5 15:29:35 2022.
