 Gaussian 16, Revision A.03,
 Gaussian 16:  ES64L-G16RevA.03 25-Dec-2016

 -----------------------------------
 #p cam-b3lyp/Def2SVP td=(nstates=5)
 -----------------------------------

 ------------------------------------------------------
 step_951_chromophore_4 TDDFT with cam-b3lyp functional
 ------------------------------------------------------
 Symbolic Z-matrix:
 Charge =  0 Multiplicity = 1

                         Standard orientation:
 ---------------------------------------------------------------------
 Center     Atomic      Atomic             Coordinates (Angstroms)
 Number     Number       Type             X           Y           Z
 ---------------------------------------------------------------------
      1         12           0        5.919136    0.513699    0.077072
      2          6           0        3.656503   -2.205612    0.105515
      3          6           0        3.478438    2.543258   -0.813585
      4          6           0        8.274205    3.114558   -0.066272
      5          6           0        8.513702   -1.719381    0.676070
      6          7           0        3.878695    0.085536   -0.625646
      7          6           0        3.046414   -1.010751   -0.249241
      8          6           0        1.522149   -0.705709   -0.354518
      9          6           0        1.600213    0.791225   -0.819265
     10          6           0        3.095028    1.156120   -0.750647
     11          6           0        0.812976    1.166339   -2.155540
     12          6           0        0.674779   -0.884023    0.896907
     13          6           0       -0.795142   -0.582699    0.809348
     14          6           0       -1.609726   -1.729456    0.199878
     15          8           0       -1.139848   -2.606319   -0.497476
     16          8           0       -2.930060   -1.589849    0.482035
     17          7           0        5.942040    2.488056   -0.433399
     18          6           0        4.768335    3.157140   -0.704622
     19          6           0        5.025471    4.593845   -0.767416
     20          6           0        6.414832    4.787512   -0.467048
     21          6           0        6.940012    3.482753   -0.207694
     22          6           0        3.960293    5.656462   -0.827635
     23          6           0        7.198560    6.078973   -0.268927
     24          8           0        8.380880    6.060271    0.062247
     25          6           0        6.410201    7.468955   -0.422731
     26          7           0        8.135197    0.609828    0.064154
     27          6           0        8.841166    1.799465   -0.031493
     28          6           0       10.354700    1.470544   -0.139653
     29          6           0       10.422102    0.021034    0.458807
     30          6           0        8.981588   -0.436343    0.375074
     31          6           0       10.827021    1.616308   -1.597903
     32          6           0       11.050011   -0.088991    1.910683
     33          6           0       12.408934   -0.690460    1.928425
     34          7           0        6.088476   -1.532819    0.322971
     35          6           0        7.202246   -2.282838    0.743998
     36          6           0        6.797293   -3.645426    0.945781
     37          6           0        5.370525   -3.671648    0.685907
     38          6           0        5.017226   -2.369790    0.390406
     39          6           0        7.669805   -4.759675    1.535370
     40          6           0        4.214745   -4.521492    0.719296
     41          8           0        4.148715   -5.807540    0.867585
     42          6           0        3.021520   -3.666493    0.357602
     43          6           0        2.337888   -4.095482   -0.886742
     44          8           0        2.437970   -3.523072   -1.934761
     45          8           0        1.481839   -5.192834   -0.654504
     46          6           0        0.600495   -5.609992   -1.815690
     47          6           0       -3.809150   -2.548359   -0.115610
     48          6           0       -5.249720   -2.085251    0.078500
     49          6           0       -6.439018   -2.740822    0.267375
     50          6           0       -6.703396   -4.181414    0.135231
     51          6           0       -7.657936   -1.866809    0.516313
     52          6           0       -8.156876   -1.091423   -0.762213
     53          6           0       -8.235554    0.404355   -0.492400
     54          6           0       -9.620847    1.095344   -0.692788
     55          6           0       -9.917363    1.264303   -2.241070
     56          6           0       -9.667550    2.414134    0.055489
     57          6           0      -10.009719    2.354484    1.594741
     58          6           0      -11.061072    3.422500    1.976669
     59          6           0      -12.422693    2.834427    2.273329
     60          6           0      -13.278816    3.907161    3.017378
     61          6           0      -13.070411    2.345349    0.948434
     62          6           0      -13.507667    0.891349    1.016373
     63          6           0      -14.665643    0.663321    0.044349
     64          6           0      -14.289924   -0.520180   -0.898080
     65          6           0      -14.032922   -0.045203   -2.308389
     66          6           0      -15.405502   -1.580356   -0.914180
     67          1           0        2.604752    3.196868   -0.856206
     68          1           0        9.022451    3.902203   -0.177227
     69          1           0        9.390273   -2.310587    0.950791
     70          1           0        1.011478   -1.238406   -1.156933
     71          1           0        1.090230    1.439902   -0.107011
     72          1           0        0.357354    0.323242   -2.673589
     73          1           0        1.536628    1.500805   -2.898321
     74          1           0        0.018013    1.894471   -1.996273
     75          1           0        1.103216   -0.368133    1.756349
     76          1           0        0.858447   -1.948406    1.046251
     77          1           0       -1.033618    0.219402    0.110734
     78          1           0       -1.074516   -0.328605    1.831888
     79          1           0        3.973263    6.416864   -0.047534
     80          1           0        2.968641    5.227485   -0.974656
     81          1           0        4.077649    6.238356   -1.741633
     82          1           0        5.706653    7.637249    0.393250
     83          1           0        6.068099    7.494760   -1.457399
     84          1           0        7.134451    8.248785   -0.187706
     85          1           0       11.003738    2.103862    0.465483
     86          1           0       10.965798   -0.567181   -0.280441
     87          1           0       10.041879    2.002267   -2.248167
     88          1           0       11.018970    0.645783   -2.054905
     89          1           0       11.517713    2.448721   -1.733625
     90          1           0       10.277860   -0.535404    2.537785
     91          1           0       11.112847    0.920416    2.315508
     92          1           0       12.830932   -0.598842    0.927036
     93          1           0       12.384085   -1.750349    2.181867
     94          1           0       13.099884   -0.235098    2.638186
     95          1           0        7.623348   -5.611715    0.857376
     96          1           0        7.380793   -5.066862    2.540627
     97          1           0        8.674115   -4.342220    1.615637
     98          1           0        2.264214   -3.799939    1.130265
     99          1           0        1.157602   -5.958124   -2.685997
    100          1           0       -0.009541   -4.722993   -1.985976
    101          1           0       -0.049419   -6.428495   -1.507049
    102          1           0       -3.533852   -3.451642    0.428734
    103          1           0       -3.482459   -2.830578   -1.116083
    104          1           0       -5.298955   -1.002686    0.189968
    105          1           0       -7.484811   -4.284990   -0.618536
    106          1           0       -7.104832   -4.612269    1.053046
    107          1           0       -5.829713   -4.789279   -0.101177
    108          1           0       -7.382363   -1.181241    1.318139
    109          1           0       -8.554949   -2.330694    0.927333
    110          1           0       -9.055694   -1.681113   -0.940589
    111          1           0       -7.570357   -1.236810   -1.669969
    112          1           0       -7.572349    0.927024   -1.181635
    113          1           0       -7.959139    0.641684    0.534203
    114          1           0      -10.460864    0.522732   -0.299081
    115          1           0      -11.006583    1.292660   -2.253606
    116          1           0       -9.552547    0.419398   -2.823944
    117          1           0       -9.427238    2.142212   -2.660703
    118          1           0      -10.318396    3.057502   -0.536309
    119          1           0       -8.620191    2.718530    0.058721
    120          1           0       -9.077358    2.564287    2.118850
    121          1           0      -10.350496    1.353397    1.854976
    122          1           0      -11.284201    4.144333    1.190376
    123          1           0      -10.724855    3.920713    2.886391
    124          1           0      -12.289949    2.015072    2.979770
    125          1           0      -14.314212    3.939721    2.677576
    126          1           0      -12.868237    4.914948    3.079963
    127          1           0      -13.328768    3.554953    4.048099
    128          1           0      -12.397365    2.342435    0.091111
    129          1           0      -13.863823    3.047165    0.689803
    130          1           0      -13.765385    0.628803    2.042195
    131          1           0      -12.649630    0.294185    0.708967
    132          1           0      -14.977391    1.552117   -0.504061
    133          1           0      -15.586497    0.487994    0.600116
    134          1           0      -13.407385   -1.091109   -0.612124
    135          1           0      -14.203843    0.995086   -2.585248
    136          1           0      -14.505818   -0.565426   -3.141193
    137          1           0      -12.963456   -0.145382   -2.495401
    138          1           0      -16.126475   -1.512183   -1.728511
    139          1           0      -15.942665   -1.633473    0.032616
    140          1           0      -15.058020   -2.612879   -0.944985
 ---------------------------------------------------------------------

 SCF Done:  E(RCAM-B3LYP) =  -3007.16167064     A.U. after   18 cycles

 Excitation energies and oscillator strengths:

 Excited State   1:      Singlet-A      1.7038 eV  727.69 nm  f=0.3678  <S**2>=0.000
     245 -> 248       -0.16912
     246 -> 247        0.68657
     245 <- 248       -0.10127
 This state for optimization and/or second-order correction.
 Total Energy, E(TD-HF/TD-DFT) =  -3007.09905709
 Copying the excited state density for this state as the 1-particle RhoCI density.

 Excited State   2:      Singlet-A      2.1770 eV  569.52 nm  f=0.1474  <S**2>=0.000
     245 -> 247        0.65173
     246 -> 248        0.25045

 Excited State   3:      Singlet-A      3.2466 eV  381.89 nm  f=0.0121  <S**2>=0.000
     241 -> 247       -0.29780
     244 -> 247        0.62219

 Excited State   4:      Singlet-A      3.2949 eV  376.29 nm  f=0.0004  <S**2>=0.000
     243 -> 247        0.51202
     243 -> 249        0.36843
     243 -> 250        0.24568
     243 -> 251       -0.10567

 Excited State   5:      Singlet-A      3.4178 eV  362.76 nm  f=0.0298  <S**2>=0.000
     240 -> 247        0.26567
     241 -> 247        0.48640
     244 -> 247        0.28389
     246 -> 248       -0.29963

 The electronic state is 1-A.
 Alpha  occ. eigenvalues --  -46.88264 -19.25850 -19.22427 -19.21087 -19.20272
 Alpha  occ. eigenvalues --  -19.18717 -19.16837 -14.42115 -14.41534 -14.39761
 Alpha  occ. eigenvalues --  -14.38460 -10.40281 -10.37890 -10.36656 -10.33677
 Alpha  occ. eigenvalues --  -10.32414 -10.31699 -10.31343 -10.31235 -10.30807
 Alpha  occ. eigenvalues --  -10.30569 -10.30243 -10.29849 -10.29607 -10.28970
 Alpha  occ. eigenvalues --  -10.28381 -10.27982 -10.27891 -10.27827 -10.27703
 Alpha  occ. eigenvalues --  -10.27673 -10.27642 -10.27458 -10.27437 -10.27424
 Alpha  occ. eigenvalues --  -10.27306 -10.27270 -10.27264 -10.27222 -10.26703
 Alpha  occ. eigenvalues --  -10.26677 -10.26525 -10.26323 -10.26237 -10.26211
 Alpha  occ. eigenvalues --  -10.26094 -10.26013 -10.25887 -10.25673 -10.25624
 Alpha  occ. eigenvalues --  -10.25563 -10.25288 -10.25263 -10.25213 -10.25174
 Alpha  occ. eigenvalues --  -10.25138 -10.24884 -10.24664 -10.24587 -10.24569
 Alpha  occ. eigenvalues --  -10.24481 -10.24405 -10.24356 -10.24137 -10.24057
 Alpha  occ. eigenvalues --  -10.24033  -3.16798  -1.91679  -1.91270  -1.91095
 Alpha  occ. eigenvalues --   -1.18290  -1.13854  -1.10769  -1.09614  -1.05672
 Alpha  occ. eigenvalues --   -1.04404  -1.03229  -1.02397  -1.01946  -1.01175
 Alpha  occ. eigenvalues --   -0.91471  -0.90938  -0.90460  -0.90186  -0.89009
 Alpha  occ. eigenvalues --   -0.88515  -0.87896  -0.87793  -0.87230  -0.86347
 Alpha  occ. eigenvalues --   -0.85648  -0.84988  -0.84163  -0.83612  -0.83094
 Alpha  occ. eigenvalues --   -0.82679  -0.81822  -0.81293  -0.80535  -0.80185
 Alpha  occ. eigenvalues --   -0.79668  -0.78531  -0.77898  -0.76999  -0.76073
 Alpha  occ. eigenvalues --   -0.75714  -0.75218  -0.74912  -0.74647  -0.74464
 Alpha  occ. eigenvalues --   -0.73638  -0.71964  -0.71467  -0.70507  -0.68909
 Alpha  occ. eigenvalues --   -0.68646  -0.68299  -0.67338  -0.66993  -0.65749
 Alpha  occ. eigenvalues --   -0.65265  -0.65008  -0.64587  -0.64546  -0.64101
 Alpha  occ. eigenvalues --   -0.63306  -0.63109  -0.62696  -0.60652  -0.60558
 Alpha  occ. eigenvalues --   -0.60043  -0.59576  -0.58572  -0.58225  -0.58011
 Alpha  occ. eigenvalues --   -0.57194  -0.56971  -0.56335  -0.55779  -0.55418
 Alpha  occ. eigenvalues --   -0.54997  -0.54647  -0.54241  -0.53877  -0.53699
 Alpha  occ. eigenvalues --   -0.53452  -0.53310  -0.53198  -0.52997  -0.52538
 Alpha  occ. eigenvalues --   -0.52335  -0.52293  -0.51845  -0.51753  -0.51660
 Alpha  occ. eigenvalues --   -0.51287  -0.50943  -0.50740  -0.50679  -0.50366
 Alpha  occ. eigenvalues --   -0.50061  -0.49972  -0.49892  -0.49701  -0.49633
 Alpha  occ. eigenvalues --   -0.49358  -0.49270  -0.49080  -0.48773  -0.48526
 Alpha  occ. eigenvalues --   -0.48209  -0.48132  -0.47937  -0.47616  -0.47493
 Alpha  occ. eigenvalues --   -0.47161  -0.46923  -0.46884  -0.46752  -0.46480
 Alpha  occ. eigenvalues --   -0.46195  -0.45945  -0.45732  -0.45524  -0.45445
 Alpha  occ. eigenvalues --   -0.45191  -0.45095  -0.44977  -0.44911  -0.44583
 Alpha  occ. eigenvalues --   -0.44464  -0.44278  -0.44224  -0.43956  -0.43732
 Alpha  occ. eigenvalues --   -0.43674  -0.43446  -0.43243  -0.43121  -0.42964
 Alpha  occ. eigenvalues --   -0.42917  -0.42545  -0.42454  -0.42033  -0.41711
 Alpha  occ. eigenvalues --   -0.41655  -0.41592  -0.41109  -0.41042  -0.40859
 Alpha  occ. eigenvalues --   -0.40632  -0.40547  -0.40448  -0.40440  -0.39951
 Alpha  occ. eigenvalues --   -0.39762  -0.39537  -0.39305  -0.39214  -0.38702
 Alpha  occ. eigenvalues --   -0.38541  -0.38147  -0.38086  -0.37777  -0.37547
 Alpha  occ. eigenvalues --   -0.37361  -0.37322  -0.36627  -0.36486  -0.36354
 Alpha  occ. eigenvalues --   -0.35627  -0.35356  -0.34925  -0.34800  -0.34204
 Alpha  occ. eigenvalues --   -0.33907  -0.33073  -0.32870  -0.31798  -0.31057
 Alpha  occ. eigenvalues --   -0.30005  -0.29348  -0.29289  -0.28354  -0.23725
 Alpha  occ. eigenvalues --   -0.21191
 Alpha virt. eigenvalues --   -0.08761  -0.01581   0.00019   0.02014   0.02477
 Alpha virt. eigenvalues --    0.04612   0.05236   0.05500   0.06720   0.07186
 Alpha virt. eigenvalues --    0.07404   0.08078   0.08806   0.08895   0.09072

 Mulliken charges:
               1
     1  Mg   0.803627
     2  C   -0.013163
     3  C   -0.095463
     4  C   -0.048245
     5  C   -0.037329
     6  N   -0.296960
     7  C   -0.035741
     8  C    0.019351
     9  C   -0.098730
    10  C    0.067021
    11  C    0.045156
    12  C    0.066018
    13  C    0.077034
    14  C    0.139583
    15  O   -0.227573
    16  O   -0.314427
    17  N   -0.426791
    18  C    0.201633
    19  C   -0.139271
    20  C   -0.027894
    21  C    0.135605
    22  C    0.129422
    23  C    0.009306
    24  O   -0.195853
    25  C    0.026551
    26  N   -0.273771
    27  C    0.040567
    28  C   -0.066088
    29  C   -0.020792
    30  C   -0.035923
    31  C    0.085039
    32  C    0.065585
    33  C    0.019162
    34  N   -0.372036
    35  C    0.151084
    36  C   -0.169640
    37  C    0.005505
    38  C    0.146214
    39  C    0.125718
    40  C    0.050172
    41  O   -0.246808
    42  C   -0.010158
    43  C    0.218123
    44  O   -0.195582
    45  O   -0.373062
    46  C    0.183149
    47  C    0.269070
    48  C   -0.102882
    49  C   -0.148832
    50  C    0.104918
    51  C    0.015815
    52  C    0.042737
    53  C    0.040755
    54  C   -0.153148
    55  C    0.034320
    56  C    0.038509
    57  C    0.044877
    58  C    0.038180
    59  C   -0.134864
    60  C    0.054676
    61  C    0.034448
    62  C    0.021886
    63  C    0.068415
    64  C   -0.122162
    65  C    0.031484
    66  C    0.027393
    67  H   -0.033760
    68  H    0.001680
    69  H   -0.032235
    70  H    0.031355
    71  H    0.001318
    72  H    0.019653
    73  H    0.020823
    74  H    0.016183
    75  H   -0.005768
    76  H    0.010891
    77  H    0.034234
    78  H    0.041173
    79  H    0.031922
    80  H    0.009038
    81  H    0.011345
    82  H    0.044185
    83  H    0.047530
    84  H    0.021733
    85  H    0.007003
    86  H    0.005911
    87  H    0.007269
    88  H    0.017892
    89  H    0.021125
    90  H    0.007030
    91  H    0.000101
    92  H    0.014273
    93  H    0.016230
    94  H    0.014600
    95  H    0.039068
    96  H    0.034906
    97  H   -0.006464
    98  H    0.057894
    99  H    0.041079
   100  H    0.045259
   101  H    0.031034
   102  H    0.009356
   103  H    0.031221
   104  H   -0.000819
   105  H    0.020456
   106  H    0.019790
   107  H    0.009137
   108  H    0.015974
   109  H   -0.005495
   110  H    0.000321
   111  H    0.009663
   112  H    0.000605
   113  H   -0.002985
   114  H   -0.019803
   115  H    0.015919
   116  H    0.004449
   117  H    0.010909
   118  H    0.004198
   119  H   -0.013934
   120  H    0.000143
   121  H   -0.001352
   122  H    0.004124
   123  H   -0.014356
   124  H   -0.007226
   125  H    0.002335
   126  H    0.011903
   127  H   -0.001837
   128  H   -0.013199
   129  H   -0.004428
   130  H    0.000435
   131  H    0.001399
   132  H   -0.003667
   133  H   -0.010468
   134  H    0.007766
   135  H    0.002636
   136  H    0.001917
   137  H   -0.001694
   138  H    0.009663
   139  H   -0.005919
   140  H   -0.007564
 Sum of Mulliken charges =  -0.00000

 Dipole moment (field-independent basis, Debye):
    X=             -4.9291    Y=              5.9686    Z=              1.1772  Tot=              7.8299
 Quadrupole moment (field-independent basis, Debye-Ang):
   XX=           -376.3260   YY=           -424.0702   ZZ=           -404.1732
   XY=             23.4165   XZ=              5.2702   YZ=             -0.3013

 Normal termination of Gaussian 16 at Thu May  5 14:34:03 2022.
