 Gaussian 16, Revision A.03,
 Gaussian 16:  ES64L-G16RevA.03 25-Dec-2016

 ---------------------------------
 #p PBE1PBE/Def2SVP td=(nstates=5)
 ---------------------------------

 ----------------------------------------------------
 step_951_chromophore_4 TDDFT with PBE1PBE functional
 ----------------------------------------------------
 Symbolic Z-matrix:
 Charge =  0 Multiplicity = 1

                         Standard orientation:
 ---------------------------------------------------------------------
 Center     Atomic      Atomic             Coordinates (Angstroms)
 Number     Number       Type             X           Y           Z
 ---------------------------------------------------------------------
      1         12           0        5.919136    0.513699    0.077072
      2          6           0        3.656503   -2.205612    0.105515
      3          6           0        3.478438    2.543258   -0.813585
      4          6           0        8.274205    3.114558   -0.066272
      5          6           0        8.513702   -1.719381    0.676070
      6          7           0        3.878695    0.085536   -0.625646
      7          6           0        3.046414   -1.010751   -0.249241
      8          6           0        1.522149   -0.705709   -0.354518
      9          6           0        1.600213    0.791225   -0.819265
     10          6           0        3.095028    1.156120   -0.750647
     11          6           0        0.812976    1.166339   -2.155540
     12          6           0        0.674779   -0.884023    0.896907
     13          6           0       -0.795142   -0.582699    0.809348
     14          6           0       -1.609726   -1.729456    0.199878
     15          8           0       -1.139848   -2.606319   -0.497476
     16          8           0       -2.930060   -1.589849    0.482035
     17          7           0        5.942040    2.488056   -0.433399
     18          6           0        4.768335    3.157140   -0.704622
     19          6           0        5.025471    4.593845   -0.767416
     20          6           0        6.414832    4.787512   -0.467048
     21          6           0        6.940012    3.482753   -0.207694
     22          6           0        3.960293    5.656462   -0.827635
     23          6           0        7.198560    6.078973   -0.268927
     24          8           0        8.380880    6.060271    0.062247
     25          6           0        6.410201    7.468955   -0.422731
     26          7           0        8.135197    0.609828    0.064154
     27          6           0        8.841166    1.799465   -0.031493
     28          6           0       10.354700    1.470544   -0.139653
     29          6           0       10.422102    0.021034    0.458807
     30          6           0        8.981588   -0.436343    0.375074
     31          6           0       10.827021    1.616308   -1.597903
     32          6           0       11.050011   -0.088991    1.910683
     33          6           0       12.408934   -0.690460    1.928425
     34          7           0        6.088476   -1.532819    0.322971
     35          6           0        7.202246   -2.282838    0.743998
     36          6           0        6.797293   -3.645426    0.945781
     37          6           0        5.370525   -3.671648    0.685907
     38          6           0        5.017226   -2.369790    0.390406
     39          6           0        7.669805   -4.759675    1.535370
     40          6           0        4.214745   -4.521492    0.719296
     41          8           0        4.148715   -5.807540    0.867585
     42          6           0        3.021520   -3.666493    0.357602
     43          6           0        2.337888   -4.095482   -0.886742
     44          8           0        2.437970   -3.523072   -1.934761
     45          8           0        1.481839   -5.192834   -0.654504
     46          6           0        0.600495   -5.609992   -1.815690
     47          6           0       -3.809150   -2.548359   -0.115610
     48          6           0       -5.249720   -2.085251    0.078500
     49          6           0       -6.439018   -2.740822    0.267375
     50          6           0       -6.703396   -4.181414    0.135231
     51          6           0       -7.657936   -1.866809    0.516313
     52          6           0       -8.156876   -1.091423   -0.762213
     53          6           0       -8.235554    0.404355   -0.492400
     54          6           0       -9.620847    1.095344   -0.692788
     55          6           0       -9.917363    1.264303   -2.241070
     56          6           0       -9.667550    2.414134    0.055489
     57          6           0      -10.009719    2.354484    1.594741
     58          6           0      -11.061072    3.422500    1.976669
     59          6           0      -12.422693    2.834427    2.273329
     60          6           0      -13.278816    3.907161    3.017378
     61          6           0      -13.070411    2.345349    0.948434
     62          6           0      -13.507667    0.891349    1.016373
     63          6           0      -14.665643    0.663321    0.044349
     64          6           0      -14.289924   -0.520180   -0.898080
     65          6           0      -14.032922   -0.045203   -2.308389
     66          6           0      -15.405502   -1.580356   -0.914180
     67          1           0        2.604752    3.196868   -0.856206
     68          1           0        9.022451    3.902203   -0.177227
     69          1           0        9.390273   -2.310587    0.950791
     70          1           0        1.011478   -1.238406   -1.156933
     71          1           0        1.090230    1.439902   -0.107011
     72          1           0        0.357354    0.323242   -2.673589
     73          1           0        1.536628    1.500805   -2.898321
     74          1           0        0.018013    1.894471   -1.996273
     75          1           0        1.103216   -0.368133    1.756349
     76          1           0        0.858447   -1.948406    1.046251
     77          1           0       -1.033618    0.219402    0.110734
     78          1           0       -1.074516   -0.328605    1.831888
     79          1           0        3.973263    6.416864   -0.047534
     80          1           0        2.968641    5.227485   -0.974656
     81          1           0        4.077649    6.238356   -1.741633
     82          1           0        5.706653    7.637249    0.393250
     83          1           0        6.068099    7.494760   -1.457399
     84          1           0        7.134451    8.248785   -0.187706
     85          1           0       11.003738    2.103862    0.465483
     86          1           0       10.965798   -0.567181   -0.280441
     87          1           0       10.041879    2.002267   -2.248167
     88          1           0       11.018970    0.645783   -2.054905
     89          1           0       11.517713    2.448721   -1.733625
     90          1           0       10.277860   -0.535404    2.537785
     91          1           0       11.112847    0.920416    2.315508
     92          1           0       12.830932   -0.598842    0.927036
     93          1           0       12.384085   -1.750349    2.181867
     94          1           0       13.099884   -0.235098    2.638186
     95          1           0        7.623348   -5.611715    0.857376
     96          1           0        7.380793   -5.066862    2.540627
     97          1           0        8.674115   -4.342220    1.615637
     98          1           0        2.264214   -3.799939    1.130265
     99          1           0        1.157602   -5.958124   -2.685997
    100          1           0       -0.009541   -4.722993   -1.985976
    101          1           0       -0.049419   -6.428495   -1.507049
    102          1           0       -3.533852   -3.451642    0.428734
    103          1           0       -3.482459   -2.830578   -1.116083
    104          1           0       -5.298955   -1.002686    0.189968
    105          1           0       -7.484811   -4.284990   -0.618536
    106          1           0       -7.104832   -4.612269    1.053046
    107          1           0       -5.829713   -4.789279   -0.101177
    108          1           0       -7.382363   -1.181241    1.318139
    109          1           0       -8.554949   -2.330694    0.927333
    110          1           0       -9.055694   -1.681113   -0.940589
    111          1           0       -7.570357   -1.236810   -1.669969
    112          1           0       -7.572349    0.927024   -1.181635
    113          1           0       -7.959139    0.641684    0.534203
    114          1           0      -10.460864    0.522732   -0.299081
    115          1           0      -11.006583    1.292660   -2.253606
    116          1           0       -9.552547    0.419398   -2.823944
    117          1           0       -9.427238    2.142212   -2.660703
    118          1           0      -10.318396    3.057502   -0.536309
    119          1           0       -8.620191    2.718530    0.058721
    120          1           0       -9.077358    2.564287    2.118850
    121          1           0      -10.350496    1.353397    1.854976
    122          1           0      -11.284201    4.144333    1.190376
    123          1           0      -10.724855    3.920713    2.886391
    124          1           0      -12.289949    2.015072    2.979770
    125          1           0      -14.314212    3.939721    2.677576
    126          1           0      -12.868237    4.914948    3.079963
    127          1           0      -13.328768    3.554953    4.048099
    128          1           0      -12.397365    2.342435    0.091111
    129          1           0      -13.863823    3.047165    0.689803
    130          1           0      -13.765385    0.628803    2.042195
    131          1           0      -12.649630    0.294185    0.708967
    132          1           0      -14.977391    1.552117   -0.504061
    133          1           0      -15.586497    0.487994    0.600116
    134          1           0      -13.407385   -1.091109   -0.612124
    135          1           0      -14.203843    0.995086   -2.585248
    136          1           0      -14.505818   -0.565426   -3.141193
    137          1           0      -12.963456   -0.145382   -2.495401
    138          1           0      -16.126475   -1.512183   -1.728511
    139          1           0      -15.942665   -1.633473    0.032616
    140          1           0      -15.058020   -2.612879   -0.944985
 ---------------------------------------------------------------------

 SCF Done:  E(RPBE1PBE) =  -3005.35007396     A.U. after   16 cycles

 Excitation energies and oscillator strengths:

 Excited State   1:      Singlet-A      1.8160 eV  682.73 nm  f=0.3564  <S**2>=0.000
     245 -> 248       -0.16341
     246 -> 247        0.69245
     246 <- 247       -0.10540
 This state for optimization and/or second-order correction.
 Total Energy, E(TD-HF/TD-DFT) =  -3005.28333736
 Copying the excited state density for this state as the 1-particle RhoCI density.

 Excited State   2:      Singlet-A      2.1700 eV  571.36 nm  f=0.1353  <S**2>=0.000
     245 -> 247        0.66098
     246 -> 248        0.22820

 Excited State   3:      Singlet-A      2.7353 eV  453.27 nm  f=0.0003  <S**2>=0.000
     243 -> 247       -0.14783
     244 -> 247        0.64890
     244 -> 249        0.20082
     244 -> 250       -0.10260

 Excited State   4:      Singlet-A      2.8563 eV  434.07 nm  f=0.0071  <S**2>=0.000
     241 -> 247       -0.10925
     243 -> 247        0.67562
     244 -> 247        0.15323

 Excited State   5:      Singlet-A      3.1082 eV  398.89 nm  f=0.0009  <S**2>=0.000
     239 -> 247        0.12358
     240 -> 247        0.25937
     241 -> 247        0.60667
     246 -> 248       -0.14248

 The electronic state is 1-A.
 Alpha  occ. eigenvalues --  -46.91691 -19.26565 -19.23261 -19.21381 -19.20184
 Alpha  occ. eigenvalues --  -19.19088 -19.17469 -14.41688 -14.40991 -14.39313
 Alpha  occ. eigenvalues --  -14.38369 -10.37330 -10.35039 -10.33534 -10.31122
 Alpha  occ. eigenvalues --  -10.29824 -10.29150 -10.28861 -10.28837 -10.28499
 Alpha  occ. eigenvalues --  -10.27926 -10.27859 -10.27589 -10.27166 -10.26842
 Alpha  occ. eigenvalues --  -10.25895 -10.25818 -10.25684 -10.25464 -10.25464
 Alpha  occ. eigenvalues --  -10.25446 -10.25403 -10.25364 -10.25297 -10.25198
 Alpha  occ. eigenvalues --  -10.25189 -10.24954 -10.24589 -10.24407 -10.24365
 Alpha  occ. eigenvalues --  -10.24320 -10.23975 -10.23900 -10.23784 -10.23666
 Alpha  occ. eigenvalues --  -10.23614 -10.23573 -10.23569 -10.23381 -10.23207
 Alpha  occ. eigenvalues --  -10.22998 -10.22910 -10.22846 -10.22841 -10.22831
 Alpha  occ. eigenvalues --  -10.22626 -10.22300 -10.22248 -10.22209 -10.22162
 Alpha  occ. eigenvalues --  -10.22098 -10.22035 -10.21907 -10.21816 -10.21525
 Alpha  occ. eigenvalues --  -10.21431  -3.13804  -1.86625  -1.86194  -1.86025
 Alpha  occ. eigenvalues --   -1.13145  -1.08739  -1.05208  -1.04506  -1.00670
 Alpha  occ. eigenvalues --   -0.99379  -0.97847  -0.96918  -0.96645  -0.95881
 Alpha  occ. eigenvalues --   -0.86069  -0.85062  -0.84626  -0.84366  -0.83134
 Alpha  occ. eigenvalues --   -0.82769  -0.82019  -0.81988  -0.81247  -0.80655
 Alpha  occ. eigenvalues --   -0.79923  -0.79526  -0.78370  -0.77876  -0.77428
 Alpha  occ. eigenvalues --   -0.76958  -0.76086  -0.75453  -0.74661  -0.74317
 Alpha  occ. eigenvalues --   -0.73983  -0.72643  -0.72240  -0.71358  -0.70276
 Alpha  occ. eigenvalues --   -0.69805  -0.69632  -0.69075  -0.68977  -0.68631
 Alpha  occ. eigenvalues --   -0.67942  -0.66504  -0.65824  -0.64887  -0.63157
 Alpha  occ. eigenvalues --   -0.62990  -0.62764  -0.61769  -0.61206  -0.59976
 Alpha  occ. eigenvalues --   -0.59730  -0.59469  -0.59123  -0.58723  -0.58550
 Alpha  occ. eigenvalues --   -0.57728  -0.57439  -0.56859  -0.55114  -0.55042
 Alpha  occ. eigenvalues --   -0.54633  -0.54138  -0.53247  -0.52749  -0.52579
 Alpha  occ. eigenvalues --   -0.51907  -0.51398  -0.50922  -0.50271  -0.49952
 Alpha  occ. eigenvalues --   -0.49522  -0.49206  -0.48799  -0.48430  -0.48241
 Alpha  occ. eigenvalues --   -0.47951  -0.47789  -0.47549  -0.47335  -0.47073
 Alpha  occ. eigenvalues --   -0.46945  -0.46705  -0.46495  -0.46329  -0.46188
 Alpha  occ. eigenvalues --   -0.45919  -0.45594  -0.45292  -0.45213  -0.44899
 Alpha  occ. eigenvalues --   -0.44635  -0.44545  -0.44503  -0.44355  -0.44208
 Alpha  occ. eigenvalues --   -0.43814  -0.43710  -0.43540  -0.43464  -0.43093
 Alpha  occ. eigenvalues --   -0.42858  -0.42816  -0.42654  -0.42312  -0.42120
 Alpha  occ. eigenvalues --   -0.41914  -0.41532  -0.41473  -0.41360  -0.41138
 Alpha  occ. eigenvalues --   -0.40852  -0.40644  -0.40494  -0.40249  -0.40185
 Alpha  occ. eigenvalues --   -0.39855  -0.39811  -0.39700  -0.39673  -0.39410
 Alpha  occ. eigenvalues --   -0.39202  -0.39083  -0.38950  -0.38670  -0.38467
 Alpha  occ. eigenvalues --   -0.38451  -0.38192  -0.38022  -0.37841  -0.37659
 Alpha  occ. eigenvalues --   -0.37615  -0.37408  -0.37203  -0.37024  -0.36687
 Alpha  occ. eigenvalues --   -0.36481  -0.36403  -0.35938  -0.35871  -0.35738
 Alpha  occ. eigenvalues --   -0.35619  -0.35422  -0.35297  -0.35176  -0.34954
 Alpha  occ. eigenvalues --   -0.34578  -0.34451  -0.34305  -0.33977  -0.33660
 Alpha  occ. eigenvalues --   -0.33306  -0.33111  -0.32909  -0.32768  -0.32373
 Alpha  occ. eigenvalues --   -0.32287  -0.32083  -0.31731  -0.31423  -0.31339
 Alpha  occ. eigenvalues --   -0.30553  -0.30221  -0.29873  -0.29821  -0.29445
 Alpha  occ. eigenvalues --   -0.28848  -0.28719  -0.27818  -0.26607  -0.26362
 Alpha  occ. eigenvalues --   -0.25525  -0.24671  -0.24351  -0.24343  -0.20642
 Alpha  occ. eigenvalues --   -0.18746
 Alpha virt. eigenvalues --   -0.11232  -0.05175  -0.04178  -0.02333  -0.00281
 Alpha virt. eigenvalues --    0.00135   0.00586   0.00998   0.02022   0.03142
 Alpha virt. eigenvalues --    0.04112   0.04361   0.04749   0.05492   0.05671

 Mulliken charges:
               1
     1  Mg   0.953245
     2  C   -0.019185
     3  C   -0.077887
     4  C   -0.044918
     5  C   -0.047213
     6  N   -0.393687
     7  C    0.024219
     8  C   -0.041819
     9  C   -0.164861
    10  C    0.096023
    11  C   -0.012368
    12  C    0.000088
    13  C    0.001685
    14  C    0.206420
    15  O   -0.260349
    16  O   -0.347394
    17  N   -0.534665
    18  C    0.216412
    19  C   -0.171038
    20  C   -0.070683
    21  C    0.161475
    22  C    0.067684
    23  C    0.059396
    24  O   -0.233788
    25  C   -0.048901
    26  N   -0.370565
    27  C    0.067389
    28  C   -0.141080
    29  C   -0.099633
    30  C    0.011106
    31  C    0.031885
    32  C    0.006690
    33  C   -0.054626
    34  N   -0.492332
    35  C    0.174506
    36  C   -0.180748
    37  C   -0.032763
    38  C    0.183496
    39  C    0.070699
    40  C    0.134357
    41  O   -0.286106
    42  C   -0.116377
    43  C    0.312874
    44  O   -0.227946
    45  O   -0.404154
    46  C    0.125981
    47  C    0.235487
    48  C   -0.114107
    49  C   -0.202058
    50  C    0.042083
    51  C   -0.045796
    52  C   -0.011483
    53  C   -0.021135
    54  C   -0.241448
    55  C   -0.030459
    56  C   -0.018695
    57  C   -0.014094
    58  C   -0.021584
    59  C   -0.221685
    60  C   -0.003014
    61  C   -0.020035
    62  C   -0.049432
    63  C    0.020693
    64  C   -0.225864
    65  C   -0.022169
    66  C   -0.029680
    67  H   -0.000824
    68  H    0.032454
    69  H    0.001590
    70  H    0.069692
    71  H    0.039335
    72  H    0.045430
    73  H    0.048930
    74  H    0.041694
    75  H    0.028021
    76  H    0.052540
    77  H    0.068460
    78  H    0.072070
    79  H    0.057670
    80  H    0.035585
    81  H    0.039324
    82  H    0.069191
    83  H    0.073603
    84  H    0.048631
    85  H    0.042757
    86  H    0.043337
    87  H    0.036301
    88  H    0.043947
    89  H    0.047886
    90  H    0.039580
    91  H    0.034038
    92  H    0.042370
    93  H    0.043732
    94  H    0.042813
    95  H    0.067499
    96  H    0.063583
    97  H    0.023741
    98  H    0.092187
    99  H    0.063038
   100  H    0.069212
   101  H    0.053419
   102  H    0.036625
   103  H    0.056431
   104  H    0.030234
   105  H    0.048793
   106  H    0.047854
   107  H    0.036268
   108  H    0.047776
   109  H    0.026272
   110  H    0.031019
   111  H    0.040881
   112  H    0.033507
   113  H    0.030840
   114  H    0.025774
   115  H    0.047651
   116  H    0.033196
   117  H    0.038266
   118  H    0.033653
   119  H    0.021302
   120  H    0.032506
   121  H    0.029914
   122  H    0.037393
   123  H    0.019678
   124  H    0.029577
   125  H    0.029597
   126  H    0.038116
   127  H    0.026602
   128  H    0.027542
   129  H    0.027118
   130  H    0.033075
   131  H    0.037780
   132  H    0.026656
   133  H    0.021529
   134  H    0.043845
   135  H    0.028638
   136  H    0.028746
   137  H    0.027646
   138  H    0.036476
   139  H    0.021950
   140  H    0.020367
 Sum of Mulliken charges =  -0.00000

 Dipole moment (field-independent basis, Debye):
    X=             -4.9385    Y=              5.1098    Z=              1.3018  Tot=              7.2245
 Quadrupole moment (field-independent basis, Debye-Ang):
   XX=           -370.0370   YY=           -422.3910   ZZ=           -401.6675
   XY=             17.9940   XZ=              6.5433   YZ=             -0.3593

 Normal termination of Gaussian 16 at Thu May  5 14:52:26 2022.
