 Gaussian 16, Revision A.03,
 Gaussian 16:  ES64L-G16RevA.03 25-Dec-2016

 --------------------------------
 #p wB97XD/Def2SVP td=(nstates=5)
 --------------------------------

 ---------------------------------------------------
 step_951_chromophore_4 TDDFT with wB97XD functional
 ---------------------------------------------------
 Symbolic Z-matrix:
 Charge =  0 Multiplicity = 1

                         Standard orientation:
 ---------------------------------------------------------------------
 Center     Atomic      Atomic             Coordinates (Angstroms)
 Number     Number       Type             X           Y           Z
 ---------------------------------------------------------------------
      1         12           0        5.919136    0.513699    0.077072
      2          6           0        3.656503   -2.205612    0.105515
      3          6           0        3.478438    2.543258   -0.813585
      4          6           0        8.274205    3.114558   -0.066272
      5          6           0        8.513702   -1.719381    0.676070
      6          7           0        3.878695    0.085536   -0.625646
      7          6           0        3.046414   -1.010751   -0.249241
      8          6           0        1.522149   -0.705709   -0.354518
      9          6           0        1.600213    0.791225   -0.819265
     10          6           0        3.095028    1.156120   -0.750647
     11          6           0        0.812976    1.166339   -2.155540
     12          6           0        0.674779   -0.884023    0.896907
     13          6           0       -0.795142   -0.582699    0.809348
     14          6           0       -1.609726   -1.729456    0.199878
     15          8           0       -1.139848   -2.606319   -0.497476
     16          8           0       -2.930060   -1.589849    0.482035
     17          7           0        5.942040    2.488056   -0.433399
     18          6           0        4.768335    3.157140   -0.704622
     19          6           0        5.025471    4.593845   -0.767416
     20          6           0        6.414832    4.787512   -0.467048
     21          6           0        6.940012    3.482753   -0.207694
     22          6           0        3.960293    5.656462   -0.827635
     23          6           0        7.198560    6.078973   -0.268927
     24          8           0        8.380880    6.060271    0.062247
     25          6           0        6.410201    7.468955   -0.422731
     26          7           0        8.135197    0.609828    0.064154
     27          6           0        8.841166    1.799465   -0.031493
     28          6           0       10.354700    1.470544   -0.139653
     29          6           0       10.422102    0.021034    0.458807
     30          6           0        8.981588   -0.436343    0.375074
     31          6           0       10.827021    1.616308   -1.597903
     32          6           0       11.050011   -0.088991    1.910683
     33          6           0       12.408934   -0.690460    1.928425
     34          7           0        6.088476   -1.532819    0.322971
     35          6           0        7.202246   -2.282838    0.743998
     36          6           0        6.797293   -3.645426    0.945781
     37          6           0        5.370525   -3.671648    0.685907
     38          6           0        5.017226   -2.369790    0.390406
     39          6           0        7.669805   -4.759675    1.535370
     40          6           0        4.214745   -4.521492    0.719296
     41          8           0        4.148715   -5.807540    0.867585
     42          6           0        3.021520   -3.666493    0.357602
     43          6           0        2.337888   -4.095482   -0.886742
     44          8           0        2.437970   -3.523072   -1.934761
     45          8           0        1.481839   -5.192834   -0.654504
     46          6           0        0.600495   -5.609992   -1.815690
     47          6           0       -3.809150   -2.548359   -0.115610
     48          6           0       -5.249720   -2.085251    0.078500
     49          6           0       -6.439018   -2.740822    0.267375
     50          6           0       -6.703396   -4.181414    0.135231
     51          6           0       -7.657936   -1.866809    0.516313
     52          6           0       -8.156876   -1.091423   -0.762213
     53          6           0       -8.235554    0.404355   -0.492400
     54          6           0       -9.620847    1.095344   -0.692788
     55          6           0       -9.917363    1.264303   -2.241070
     56          6           0       -9.667550    2.414134    0.055489
     57          6           0      -10.009719    2.354484    1.594741
     58          6           0      -11.061072    3.422500    1.976669
     59          6           0      -12.422693    2.834427    2.273329
     60          6           0      -13.278816    3.907161    3.017378
     61          6           0      -13.070411    2.345349    0.948434
     62          6           0      -13.507667    0.891349    1.016373
     63          6           0      -14.665643    0.663321    0.044349
     64          6           0      -14.289924   -0.520180   -0.898080
     65          6           0      -14.032922   -0.045203   -2.308389
     66          6           0      -15.405502   -1.580356   -0.914180
     67          1           0        2.604752    3.196868   -0.856206
     68          1           0        9.022451    3.902203   -0.177227
     69          1           0        9.390273   -2.310587    0.950791
     70          1           0        1.011478   -1.238406   -1.156933
     71          1           0        1.090230    1.439902   -0.107011
     72          1           0        0.357354    0.323242   -2.673589
     73          1           0        1.536628    1.500805   -2.898321
     74          1           0        0.018013    1.894471   -1.996273
     75          1           0        1.103216   -0.368133    1.756349
     76          1           0        0.858447   -1.948406    1.046251
     77          1           0       -1.033618    0.219402    0.110734
     78          1           0       -1.074516   -0.328605    1.831888
     79          1           0        3.973263    6.416864   -0.047534
     80          1           0        2.968641    5.227485   -0.974656
     81          1           0        4.077649    6.238356   -1.741633
     82          1           0        5.706653    7.637249    0.393250
     83          1           0        6.068099    7.494760   -1.457399
     84          1           0        7.134451    8.248785   -0.187706
     85          1           0       11.003738    2.103862    0.465483
     86          1           0       10.965798   -0.567181   -0.280441
     87          1           0       10.041879    2.002267   -2.248167
     88          1           0       11.018970    0.645783   -2.054905
     89          1           0       11.517713    2.448721   -1.733625
     90          1           0       10.277860   -0.535404    2.537785
     91          1           0       11.112847    0.920416    2.315508
     92          1           0       12.830932   -0.598842    0.927036
     93          1           0       12.384085   -1.750349    2.181867
     94          1           0       13.099884   -0.235098    2.638186
     95          1           0        7.623348   -5.611715    0.857376
     96          1           0        7.380793   -5.066862    2.540627
     97          1           0        8.674115   -4.342220    1.615637
     98          1           0        2.264214   -3.799939    1.130265
     99          1           0        1.157602   -5.958124   -2.685997
    100          1           0       -0.009541   -4.722993   -1.985976
    101          1           0       -0.049419   -6.428495   -1.507049
    102          1           0       -3.533852   -3.451642    0.428734
    103          1           0       -3.482459   -2.830578   -1.116083
    104          1           0       -5.298955   -1.002686    0.189968
    105          1           0       -7.484811   -4.284990   -0.618536
    106          1           0       -7.104832   -4.612269    1.053046
    107          1           0       -5.829713   -4.789279   -0.101177
    108          1           0       -7.382363   -1.181241    1.318139
    109          1           0       -8.554949   -2.330694    0.927333
    110          1           0       -9.055694   -1.681113   -0.940589
    111          1           0       -7.570357   -1.236810   -1.669969
    112          1           0       -7.572349    0.927024   -1.181635
    113          1           0       -7.959139    0.641684    0.534203
    114          1           0      -10.460864    0.522732   -0.299081
    115          1           0      -11.006583    1.292660   -2.253606
    116          1           0       -9.552547    0.419398   -2.823944
    117          1           0       -9.427238    2.142212   -2.660703
    118          1           0      -10.318396    3.057502   -0.536309
    119          1           0       -8.620191    2.718530    0.058721
    120          1           0       -9.077358    2.564287    2.118850
    121          1           0      -10.350496    1.353397    1.854976
    122          1           0      -11.284201    4.144333    1.190376
    123          1           0      -10.724855    3.920713    2.886391
    124          1           0      -12.289949    2.015072    2.979770
    125          1           0      -14.314212    3.939721    2.677576
    126          1           0      -12.868237    4.914948    3.079963
    127          1           0      -13.328768    3.554953    4.048099
    128          1           0      -12.397365    2.342435    0.091111
    129          1           0      -13.863823    3.047165    0.689803
    130          1           0      -13.765385    0.628803    2.042195
    131          1           0      -12.649630    0.294185    0.708967
    132          1           0      -14.977391    1.552117   -0.504061
    133          1           0      -15.586497    0.487994    0.600116
    134          1           0      -13.407385   -1.091109   -0.612124
    135          1           0      -14.203843    0.995086   -2.585248
    136          1           0      -14.505818   -0.565426   -3.141193
    137          1           0      -12.963456   -0.145382   -2.495401
    138          1           0      -16.126475   -1.512183   -1.728511
    139          1           0      -15.942665   -1.633473    0.032616
    140          1           0      -15.058020   -2.612879   -0.944985
 ---------------------------------------------------------------------

 SCF Done:  E(RwB97XD) =  -3007.85960701     A.U. after   19 cycles

 Excitation energies and oscillator strengths:

 Excited State   1:      Singlet-A      1.6693 eV  742.74 nm  f=0.3674  <S**2>=0.000
     245 -> 248       -0.17270
     246 -> 247        0.68459
     245 <- 248       -0.10852
 This state for optimization and/or second-order correction.
 Total Energy, E(TD-HF/TD-DFT) =  -3007.79826183
 Copying the excited state density for this state as the 1-particle RhoCI density.

 Excited State   2:      Singlet-A      2.1262 eV  583.13 nm  f=0.1430  <S**2>=0.000
     245 -> 247        0.64860
     246 -> 248        0.25200

 Excited State   3:      Singlet-A      3.2891 eV  376.95 nm  f=0.0154  <S**2>=0.000
     240 -> 247       -0.10860
     241 -> 247       -0.40732
     244 -> 247        0.53707

 Excited State   4:      Singlet-A      3.3496 eV  370.15 nm  f=0.0005  <S**2>=0.000
     243 -> 247        0.48168
     243 -> 249        0.39200
     243 -> 250        0.29314

 Excited State   5:      Singlet-A      3.4415 eV  360.26 nm  f=0.0404  <S**2>=0.000
     240 -> 247        0.25892
     241 -> 247        0.37545
     244 -> 247        0.39806
     246 -> 248       -0.32328

 The electronic state is 1-A.
 Alpha  occ. eigenvalues --  -46.94632 -19.31072 -19.27632 -19.25961 -19.25376
 Alpha  occ. eigenvalues --  -19.23580 -19.21862 -14.46708 -14.46169 -14.44452
 Alpha  occ. eigenvalues --  -14.43032 -10.44041 -10.41674 -10.40731 -10.37644
 Alpha  occ. eigenvalues --  -10.36274 -10.35793 -10.35463 -10.35411 -10.34816
 Alpha  occ. eigenvalues --  -10.34723 -10.33961 -10.33890 -10.33806 -10.32907
 Alpha  occ. eigenvalues --  -10.32275 -10.32092 -10.31988 -10.31816 -10.31750
 Alpha  occ. eigenvalues --  -10.31704 -10.31612 -10.31528 -10.31485 -10.31464
 Alpha  occ. eigenvalues --  -10.31421 -10.31318 -10.31261 -10.31217 -10.30703
 Alpha  occ. eigenvalues --  -10.30658 -10.30640 -10.30281 -10.30126 -10.30010
 Alpha  occ. eigenvalues --  -10.30004 -10.29956 -10.29843 -10.29660 -10.29562
 Alpha  occ. eigenvalues --  -10.29438 -10.29218 -10.29208 -10.29190 -10.28963
 Alpha  occ. eigenvalues --  -10.28945 -10.28732 -10.28612 -10.28514 -10.28473
 Alpha  occ. eigenvalues --  -10.28401 -10.28282 -10.28238 -10.28004 -10.27946
 Alpha  occ. eigenvalues --  -10.27850  -3.20604  -1.94174  -1.93742  -1.93572
 Alpha  occ. eigenvalues --   -1.20449  -1.15943  -1.13064  -1.11770  -1.07841
 Alpha  occ. eigenvalues --   -1.06535  -1.05258  -1.04448  -1.03991  -1.03197
 Alpha  occ. eigenvalues --   -0.93411  -0.92723  -0.92251  -0.91996  -0.90789
 Alpha  occ. eigenvalues --   -0.90410  -0.89746  -0.89672  -0.89275  -0.88274
 Alpha  occ. eigenvalues --   -0.87545  -0.86897  -0.85997  -0.85480  -0.84959
 Alpha  occ. eigenvalues --   -0.84551  -0.83717  -0.83254  -0.82464  -0.81994
 Alpha  occ. eigenvalues --   -0.81652  -0.80543  -0.79778  -0.78894  -0.77920
 Alpha  occ. eigenvalues --   -0.77488  -0.77108  -0.76740  -0.76612  -0.76294
 Alpha  occ. eigenvalues --   -0.75546  -0.73934  -0.73423  -0.72475  -0.70801
 Alpha  occ. eigenvalues --   -0.70527  -0.70303  -0.69378  -0.68852  -0.67597
 Alpha  occ. eigenvalues --   -0.67220  -0.66936  -0.66576  -0.66362  -0.66049
 Alpha  occ. eigenvalues --   -0.65133  -0.65112  -0.64523  -0.62668  -0.62504
 Alpha  occ. eigenvalues --   -0.62057  -0.61533  -0.60534  -0.60133  -0.60003
 Alpha  occ. eigenvalues --   -0.59175  -0.58854  -0.58239  -0.57815  -0.57317
 Alpha  occ. eigenvalues --   -0.56888  -0.56563  -0.56184  -0.55768  -0.55601
 Alpha  occ. eigenvalues --   -0.55346  -0.55263  -0.55108  -0.54902  -0.54403
 Alpha  occ. eigenvalues --   -0.54301  -0.54204  -0.53743  -0.53645  -0.53536
 Alpha  occ. eigenvalues --   -0.53219  -0.52832  -0.52677  -0.52560  -0.52305
 Alpha  occ. eigenvalues --   -0.51990  -0.51861  -0.51821  -0.51596  -0.51559
 Alpha  occ. eigenvalues --   -0.51341  -0.51132  -0.51060  -0.50672  -0.50428
 Alpha  occ. eigenvalues --   -0.50109  -0.50056  -0.49862  -0.49535  -0.49355
 Alpha  occ. eigenvalues --   -0.49064  -0.48936  -0.48743  -0.48689  -0.48361
 Alpha  occ. eigenvalues --   -0.48071  -0.47884  -0.47640  -0.47465  -0.47357
 Alpha  occ. eigenvalues --   -0.47059  -0.46937  -0.46887  -0.46808  -0.46507
 Alpha  occ. eigenvalues --   -0.46358  -0.46197  -0.46147  -0.45852  -0.45611
 Alpha  occ. eigenvalues --   -0.45569  -0.45394  -0.45283  -0.45051  -0.44819
 Alpha  occ. eigenvalues --   -0.44793  -0.44457  -0.44318  -0.44001  -0.43586
 Alpha  occ. eigenvalues --   -0.43527  -0.43492  -0.42996  -0.42931  -0.42759
 Alpha  occ. eigenvalues --   -0.42592  -0.42394  -0.42351  -0.42282  -0.41861
 Alpha  occ. eigenvalues --   -0.41615  -0.41448  -0.41277  -0.41066  -0.40621
 Alpha  occ. eigenvalues --   -0.40373  -0.40040  -0.39956  -0.39701  -0.39396
 Alpha  occ. eigenvalues --   -0.39307  -0.39161  -0.38753  -0.38338  -0.38323
 Alpha  occ. eigenvalues --   -0.37480  -0.37229  -0.36780  -0.36744  -0.36199
 Alpha  occ. eigenvalues --   -0.35732  -0.35334  -0.34742  -0.33826  -0.33315
 Alpha  occ. eigenvalues --   -0.32252  -0.31368  -0.31174  -0.30460  -0.25670
 Alpha  occ. eigenvalues --   -0.23017
 Alpha virt. eigenvalues --   -0.07100   0.00336   0.02077   0.04116   0.05515
 Alpha virt. eigenvalues --    0.06849   0.07521   0.07747   0.09016   0.09757
 Alpha virt. eigenvalues --    0.10631   0.10935   0.11341   0.12181   0.12369

 Mulliken charges:
               1
     1  Mg   0.943515
     2  C   -0.020042
     3  C   -0.103362
     4  C   -0.060110
     5  C   -0.051782
     6  N   -0.364750
     7  C   -0.004221
     8  C   -0.017986
     9  C   -0.145400
    10  C    0.090859
    11  C   -0.002106
    12  C    0.026628
    13  C    0.013922
    14  C    0.196473
    15  O   -0.257672
    16  O   -0.345959
    17  N   -0.509140
    18  C    0.218073
    19  C   -0.158348
    20  C   -0.064165
    21  C    0.157048
    22  C    0.081037
    23  C    0.053869
    24  O   -0.226391
    25  C   -0.034698
    26  N   -0.339347
    27  C    0.059745
    28  C   -0.116020
    29  C   -0.069514
    30  C   -0.008326
    31  C    0.038065
    32  C    0.018950
    33  C   -0.037460
    34  N   -0.458573
    35  C    0.161745
    36  C   -0.182116
    37  C   -0.034606
    38  C    0.172211
    39  C    0.085254
    40  C    0.117873
    41  O   -0.279591
    42  C   -0.083248
    43  C    0.289518
    44  O   -0.223994
    45  O   -0.404137
    46  C    0.142250
    47  C    0.246207
    48  C   -0.124972
    49  C   -0.181864
    50  C    0.053791
    51  C   -0.026638
    52  C   -0.003801
    53  C    0.002561
    54  C   -0.203907
    55  C   -0.012002
    56  C   -0.001430
    57  C   -0.000283
    58  C    0.000032
    59  C   -0.192075
    60  C    0.006527
    61  C    0.001437
    62  C   -0.021711
    63  C    0.030156
    64  C   -0.190967
    65  C   -0.012302
    66  C   -0.017759
    67  H   -0.009777
    68  H    0.029851
    69  H   -0.007003
    70  H    0.055334
    71  H    0.026206
    72  H    0.041512
    73  H    0.042667
    74  H    0.037197
    75  H    0.021188
    76  H    0.033216
    77  H    0.059605
    78  H    0.068651
    79  H    0.053404
    80  H    0.033820
    81  H    0.034838
    82  H    0.065379
    83  H    0.068482
    84  H    0.048229
    85  H    0.033839
    86  H    0.029535
    87  H    0.028747
    88  H    0.040088
    89  H    0.043633
    90  H    0.031815
    91  H    0.024485
    92  H    0.034349
    93  H    0.037965
    94  H    0.037579
    95  H    0.061647
    96  H    0.057209
    97  H    0.014550
    98  H    0.087305
    99  H    0.058899
   100  H    0.064575
   101  H    0.049566
   102  H    0.030976
   103  H    0.052268
   104  H    0.025415
   105  H    0.042174
   106  H    0.042579
   107  H    0.031918
   108  H    0.038190
   109  H    0.020518
   110  H    0.023740
   111  H    0.033226
   112  H    0.024348
   113  H    0.016566
   114  H    0.001536
   115  H    0.035297
   116  H    0.026986
   117  H    0.032358
   118  H    0.024146
   119  H    0.010313
   120  H    0.026339
   121  H    0.018640
   122  H    0.025578
   123  H    0.011824
   124  H    0.016744
   125  H    0.023860
   126  H    0.032871
   127  H    0.020766
   128  H    0.005646
   129  H    0.017257
   130  H    0.025049
   131  H    0.019459
   132  H    0.017333
   133  H    0.014156
   134  H    0.033690
   135  H    0.022588
   136  H    0.023687
   137  H    0.018386
   138  H    0.030332
   139  H    0.014842
   140  H    0.014843
 Sum of Mulliken charges =  -0.00000

 Dipole moment (field-independent basis, Debye):
    X=             -4.9750    Y=              6.2634    Z=              1.1606  Tot=              8.0825
 Quadrupole moment (field-independent basis, Debye-Ang):
   XX=           -371.0044   YY=           -419.3058   ZZ=           -401.3514
   XY=             25.0022   XZ=              5.5356   YZ=             -0.3910

 Normal termination of Gaussian 16 at Thu May  5 15:18:16 2022.
