 Gaussian 16, Revision A.03,
 Gaussian 16:  ES64L-G16RevA.03 25-Dec-2016

 --------------------
 #p ZINDO=(nstates=5)
 --------------------

 ----------------------------
 step_951_chromophore_4 ZINDO
 ----------------------------
 Symbolic Z-matrix:
 Charge =  0 Multiplicity = 1

                         Standard orientation:
 ---------------------------------------------------------------------
 Center     Atomic      Atomic             Coordinates (Angstroms)
 Number     Number       Type             X           Y           Z
 ---------------------------------------------------------------------
      1         12           0        5.919136    0.513699    0.077072
      2          6           0        3.656503   -2.205612    0.105515
      3          6           0        3.478438    2.543258   -0.813585
      4          6           0        8.274205    3.114558   -0.066272
      5          6           0        8.513702   -1.719381    0.676070
      6          7           0        3.878695    0.085536   -0.625646
      7          6           0        3.046414   -1.010751   -0.249241
      8          6           0        1.522149   -0.705709   -0.354518
      9          6           0        1.600213    0.791225   -0.819265
     10          6           0        3.095028    1.156120   -0.750647
     11          6           0        0.812976    1.166339   -2.155540
     12          6           0        0.674779   -0.884023    0.896907
     13          6           0       -0.795142   -0.582699    0.809348
     14          6           0       -1.609726   -1.729456    0.199878
     15          8           0       -1.139848   -2.606319   -0.497476
     16          8           0       -2.930060   -1.589849    0.482035
     17          7           0        5.942040    2.488056   -0.433399
     18          6           0        4.768335    3.157140   -0.704622
     19          6           0        5.025471    4.593845   -0.767416
     20          6           0        6.414832    4.787512   -0.467048
     21          6           0        6.940012    3.482753   -0.207694
     22          6           0        3.960293    5.656462   -0.827635
     23          6           0        7.198560    6.078973   -0.268927
     24          8           0        8.380880    6.060271    0.062247
     25          6           0        6.410201    7.468955   -0.422731
     26          7           0        8.135197    0.609828    0.064154
     27          6           0        8.841166    1.799465   -0.031493
     28          6           0       10.354700    1.470544   -0.139653
     29          6           0       10.422102    0.021034    0.458807
     30          6           0        8.981588   -0.436343    0.375074
     31          6           0       10.827021    1.616308   -1.597903
     32          6           0       11.050011   -0.088991    1.910683
     33          6           0       12.408934   -0.690460    1.928425
     34          7           0        6.088476   -1.532819    0.322971
     35          6           0        7.202246   -2.282838    0.743998
     36          6           0        6.797293   -3.645426    0.945781
     37          6           0        5.370525   -3.671648    0.685907
     38          6           0        5.017226   -2.369790    0.390406
     39          6           0        7.669805   -4.759675    1.535370
     40          6           0        4.214745   -4.521492    0.719296
     41          8           0        4.148715   -5.807540    0.867585
     42          6           0        3.021520   -3.666493    0.357602
     43          6           0        2.337888   -4.095482   -0.886742
     44          8           0        2.437970   -3.523072   -1.934761
     45          8           0        1.481839   -5.192834   -0.654504
     46          6           0        0.600495   -5.609992   -1.815690
     47          6           0       -3.809150   -2.548359   -0.115610
     48          6           0       -5.249720   -2.085251    0.078500
     49          6           0       -6.439018   -2.740822    0.267375
     50          6           0       -6.703396   -4.181414    0.135231
     51          6           0       -7.657936   -1.866809    0.516313
     52          6           0       -8.156876   -1.091423   -0.762213
     53          6           0       -8.235554    0.404355   -0.492400
     54          6           0       -9.620847    1.095344   -0.692788
     55          6           0       -9.917363    1.264303   -2.241070
     56          6           0       -9.667550    2.414134    0.055489
     57          6           0      -10.009719    2.354484    1.594741
     58          6           0      -11.061072    3.422500    1.976669
     59          6           0      -12.422693    2.834427    2.273329
     60          6           0      -13.278816    3.907161    3.017378
     61          6           0      -13.070411    2.345349    0.948434
     62          6           0      -13.507667    0.891349    1.016373
     63          6           0      -14.665643    0.663321    0.044349
     64          6           0      -14.289924   -0.520180   -0.898080
     65          6           0      -14.032922   -0.045203   -2.308389
     66          6           0      -15.405502   -1.580356   -0.914180
     67          1           0        2.604752    3.196868   -0.856206
     68          1           0        9.022451    3.902203   -0.177227
     69          1           0        9.390273   -2.310587    0.950791
     70          1           0        1.011478   -1.238406   -1.156933
     71          1           0        1.090230    1.439902   -0.107011
     72          1           0        0.357354    0.323242   -2.673589
     73          1           0        1.536628    1.500805   -2.898321
     74          1           0        0.018013    1.894471   -1.996273
     75          1           0        1.103216   -0.368133    1.756349
     76          1           0        0.858447   -1.948406    1.046251
     77          1           0       -1.033618    0.219402    0.110734
     78          1           0       -1.074516   -0.328605    1.831888
     79          1           0        3.973263    6.416864   -0.047534
     80          1           0        2.968641    5.227485   -0.974656
     81          1           0        4.077649    6.238356   -1.741633
     82          1           0        5.706653    7.637249    0.393250
     83          1           0        6.068099    7.494760   -1.457399
     84          1           0        7.134451    8.248785   -0.187706
     85          1           0       11.003738    2.103862    0.465483
     86          1           0       10.965798   -0.567181   -0.280441
     87          1           0       10.041879    2.002267   -2.248167
     88          1           0       11.018970    0.645783   -2.054905
     89          1           0       11.517713    2.448721   -1.733625
     90          1           0       10.277860   -0.535404    2.537785
     91          1           0       11.112847    0.920416    2.315508
     92          1           0       12.830932   -0.598842    0.927036
     93          1           0       12.384085   -1.750349    2.181867
     94          1           0       13.099884   -0.235098    2.638186
     95          1           0        7.623348   -5.611715    0.857376
     96          1           0        7.380793   -5.066862    2.540627
     97          1           0        8.674115   -4.342220    1.615637
     98          1           0        2.264214   -3.799939    1.130265
     99          1           0        1.157602   -5.958124   -2.685997
    100          1           0       -0.009541   -4.722993   -1.985976
    101          1           0       -0.049419   -6.428495   -1.507049
    102          1           0       -3.533852   -3.451642    0.428734
    103          1           0       -3.482459   -2.830578   -1.116083
    104          1           0       -5.298955   -1.002686    0.189968
    105          1           0       -7.484811   -4.284990   -0.618536
    106          1           0       -7.104832   -4.612269    1.053046
    107          1           0       -5.829713   -4.789279   -0.101177
    108          1           0       -7.382363   -1.181241    1.318139
    109          1           0       -8.554949   -2.330694    0.927333
    110          1           0       -9.055694   -1.681113   -0.940589
    111          1           0       -7.570357   -1.236810   -1.669969
    112          1           0       -7.572349    0.927024   -1.181635
    113          1           0       -7.959139    0.641684    0.534203
    114          1           0      -10.460864    0.522732   -0.299081
    115          1           0      -11.006583    1.292660   -2.253606
    116          1           0       -9.552547    0.419398   -2.823944
    117          1           0       -9.427238    2.142212   -2.660703
    118          1           0      -10.318396    3.057502   -0.536309
    119          1           0       -8.620191    2.718530    0.058721
    120          1           0       -9.077358    2.564287    2.118850
    121          1           0      -10.350496    1.353397    1.854976
    122          1           0      -11.284201    4.144333    1.190376
    123          1           0      -10.724855    3.920713    2.886391
    124          1           0      -12.289949    2.015072    2.979770
    125          1           0      -14.314212    3.939721    2.677576
    126          1           0      -12.868237    4.914948    3.079963
    127          1           0      -13.328768    3.554953    4.048099
    128          1           0      -12.397365    2.342435    0.091111
    129          1           0      -13.863823    3.047165    0.689803
    130          1           0      -13.765385    0.628803    2.042195
    131          1           0      -12.649630    0.294185    0.708967
    132          1           0      -14.977391    1.552117   -0.504061
    133          1           0      -15.586497    0.487994    0.600116
    134          1           0      -13.407385   -1.091109   -0.612124
    135          1           0      -14.203843    0.995086   -2.585248
    136          1           0      -14.505818   -0.565426   -3.141193
    137          1           0      -12.963456   -0.145382   -2.495401
    138          1           0      -16.126475   -1.512183   -1.728511
    139          1           0      -15.942665   -1.633473    0.032616
    140          1           0      -15.058020   -2.612879   -0.944985
 ---------------------------------------------------------------------

 SCF Done:  E(RZINDO/S) =  -474.078466588     A.U. after   19 cycles

 Excitation energies and oscillator strengths:

 Excited State   1:      Singlet-A      1.2853 eV  964.66 nm  f=0.5262  <S**2>=0.000
     175 ->178         0.15242
     176 ->177         0.67252
 This state for optimization and/or second-order correction.
 Total Energy, E(CIS/TDA) =  -474.031234180
 Copying the excited state density for this state as the 1-particle RhoCI density.

 Excited State   2:      Singlet-A      1.9055 eV  650.68 nm  f=0.1029  <S**2>=0.000
     175 ->177         0.57639
     176 ->178        -0.36120

 Excited State   3:      Singlet-A      2.9559 eV  419.44 nm  f=0.5668  <S**2>=0.000
     167 ->177         0.11438
     167 ->179        -0.13222
     168 ->179        -0.12695
     170 ->177         0.11140
     175 ->177         0.26730
     176 ->178         0.42092
     176 ->179        -0.24582
     176 ->180        -0.17588

 Excited State   4:      Singlet-A      2.9760 eV  416.62 nm  f=0.1108  <S**2>=0.000
     166 ->179        -0.12667
     167 ->177         0.20432
     167 ->178        -0.13052
     167 ->179        -0.25526
     167 ->180         0.14109
     167 ->184         0.12039
     168 ->177         0.19415
     168 ->178        -0.11336
     168 ->179        -0.20841
     168 ->180         0.12690
     175 ->177        -0.11603
     176 ->178        -0.14749
     176 ->179         0.25386
     176 ->180         0.14012

 Excited State   5:      Singlet-A      2.9999 eV  413.30 nm  f=0.0585  <S**2>=0.000
     171 ->177         0.25321
     171 ->178        -0.13368
     171 ->179         0.32907
     171 ->180         0.39989
     171 ->186         0.11770
     171 ->187        -0.11249
     171 ->188         0.18299
     176 ->178         0.12628

 The electronic state is 1-A.
 Alpha  occ. eigenvalues --   -1.81728  -1.79572  -1.78126  -1.75434  -1.69814
 Alpha  occ. eigenvalues --   -1.68331  -1.67874  -1.60987  -1.58087  -1.56237
 Alpha  occ. eigenvalues --   -1.54210  -1.53748  -1.50706  -1.46398  -1.46257
 Alpha  occ. eigenvalues --   -1.43358  -1.40589  -1.39464  -1.37773  -1.37446
 Alpha  occ. eigenvalues --   -1.34525  -1.33780  -1.31910  -1.30364  -1.28270
 Alpha  occ. eigenvalues --   -1.27788  -1.23298  -1.22709  -1.21005  -1.17982
 Alpha  occ. eigenvalues --   -1.16687  -1.16645  -1.14768  -1.13992  -1.12986
 Alpha  occ. eigenvalues --   -1.11794  -1.11608  -1.11087  -1.04180  -1.03182
 Alpha  occ. eigenvalues --   -1.02461  -1.00642  -0.98462  -0.97741  -0.96979
 Alpha  occ. eigenvalues --   -0.95747  -0.95690  -0.94029  -0.92806  -0.92286
 Alpha  occ. eigenvalues --   -0.90451  -0.90302  -0.89808  -0.88170  -0.87824
 Alpha  occ. eigenvalues --   -0.86289  -0.85190  -0.82588  -0.81966  -0.80648
 Alpha  occ. eigenvalues --   -0.80637  -0.78174  -0.77518  -0.76357  -0.75792
 Alpha  occ. eigenvalues --   -0.75569  -0.74383  -0.74036  -0.73781  -0.72925
 Alpha  occ. eigenvalues --   -0.72564  -0.71981  -0.71520  -0.70568  -0.70192
 Alpha  occ. eigenvalues --   -0.69923  -0.69215  -0.68430  -0.68083  -0.68019
 Alpha  occ. eigenvalues --   -0.67428  -0.67191  -0.66600  -0.66238  -0.65563
 Alpha  occ. eigenvalues --   -0.65387  -0.65116  -0.64561  -0.63688  -0.63193
 Alpha  occ. eigenvalues --   -0.62834  -0.62330  -0.61786  -0.61584  -0.61216
 Alpha  occ. eigenvalues --   -0.61149  -0.61040  -0.60632  -0.60045  -0.59587
 Alpha  occ. eigenvalues --   -0.59519  -0.59201  -0.58905  -0.58526  -0.57654
 Alpha  occ. eigenvalues --   -0.57562  -0.57476  -0.57332  -0.56562  -0.56403
 Alpha  occ. eigenvalues --   -0.56190  -0.55266  -0.54992  -0.54961  -0.54436
 Alpha  occ. eigenvalues --   -0.54412  -0.54163  -0.54087  -0.53200  -0.52345
 Alpha  occ. eigenvalues --   -0.52029  -0.51739  -0.51456  -0.51150  -0.51121
 Alpha  occ. eigenvalues --   -0.50820  -0.50558  -0.50222  -0.49977  -0.49888
 Alpha  occ. eigenvalues --   -0.49817  -0.49416  -0.49303  -0.48776  -0.48661
 Alpha  occ. eigenvalues --   -0.48490  -0.48108  -0.47989  -0.47765  -0.47489
 Alpha  occ. eigenvalues --   -0.47334  -0.47139  -0.46975  -0.46783  -0.46444
 Alpha  occ. eigenvalues --   -0.46087  -0.45700  -0.45645  -0.45421  -0.45410
 Alpha  occ. eigenvalues --   -0.45107  -0.44671  -0.44465  -0.43869  -0.43849
 Alpha  occ. eigenvalues --   -0.43045  -0.42963  -0.42297  -0.42201  -0.42013
 Alpha  occ. eigenvalues --   -0.41477  -0.41077  -0.40691  -0.39052  -0.38766
 Alpha  occ. eigenvalues --   -0.37327  -0.36914  -0.36543  -0.34917  -0.33915
 Alpha  occ. eigenvalues --   -0.33577  -0.31945  -0.31601  -0.30760  -0.26462
 Alpha  occ. eigenvalues --   -0.21947
 Alpha virt. eigenvalues --   -0.08590  -0.01827  -0.00806   0.01128   0.02176
 Alpha virt. eigenvalues --    0.02485   0.02832   0.04055   0.04253   0.04591
 Alpha virt. eigenvalues --    0.05843   0.06788   0.07374   0.07719   0.08034

 Mulliken charges:
               1
     1  Mg   0.432232
     2  C   -0.025334
     3  C   -0.114940
     4  C   -0.057907
     5  C   -0.052899
     6  N   -0.273034
     7  C    0.092474
     8  C    0.008732
     9  C   -0.007033
    10  C    0.196001
    11  C   -0.054740
    12  C   -0.019181
    13  C    0.009514
    14  C    0.467084
    15  O   -0.516213
    16  O   -0.268738
    17  N   -0.351935
    18  C    0.155318
    19  C    0.023920
    20  C   -0.025975
    21  C    0.148042
    22  C   -0.043512
    23  C    0.319804
    24  O   -0.501230
    25  C   -0.039518
    26  N   -0.282162
    27  C    0.173425
    28  C    0.009209
    29  C   -0.000186
    30  C    0.086315
    31  C   -0.055290
    32  C   -0.022363
    33  C   -0.047869
    34  N   -0.330945
    35  C    0.062736
    36  C    0.001384
    37  C   -0.062869
    38  C    0.120894
    39  C   -0.040629
    40  C    0.326174
    41  O   -0.572985
    42  C    0.056961
    43  C    0.494628
    44  O   -0.510784
    45  O   -0.281003
    46  C    0.073105
    47  C    0.106836
    48  C   -0.101690
    49  C    0.011786
    50  C   -0.033952
    51  C   -0.026640
    52  C   -0.033134
    53  C   -0.027987
    54  C   -0.021425
    55  C   -0.065220
    56  C   -0.042780
    57  C   -0.038979
    58  C   -0.031559
    59  C   -0.013065
    60  C   -0.064314
    61  C   -0.036728
    62  C   -0.033732
    63  C   -0.031019
    64  C    0.002515
    65  C   -0.058141
    66  C   -0.062766
    67  H    0.023742
    68  H    0.048035
    69  H    0.017863
    70  H    0.055192
    71  H    0.015988
    72  H    0.027893
    73  H    0.021840
    74  H    0.021889
    75  H    0.016444
    76  H    0.026535
    77  H    0.046998
    78  H    0.039799
    79  H    0.038517
    80  H    0.025034
    81  H    0.025070
    82  H    0.045493
    83  H    0.046941
    84  H    0.032314
    85  H    0.028261
    86  H    0.029859
    87  H    0.013468
    88  H    0.034674
    89  H    0.030790
    90  H    0.027896
    91  H    0.014155
    92  H    0.018662
    93  H    0.018835
    94  H    0.018305
    95  H    0.038304
    96  H    0.033497
    97  H    0.015298
    98  H    0.066437
    99  H    0.049563
   100  H    0.047293
   101  H    0.031369
   102  H    0.037648
   103  H    0.058448
   104  H    0.023358
   105  H    0.029896
   106  H    0.027156
   107  H    0.022144
   108  H    0.018978
   109  H    0.017156
   110  H    0.020824
   111  H    0.022032
   112  H    0.020155
   113  H    0.019583
   114  H    0.017632
   115  H    0.020265
   116  H    0.017362
   117  H    0.023472
   118  H    0.026009
   119  H    0.015142
   120  H    0.016633
   121  H    0.024997
   122  H    0.024402
   123  H    0.010510
   124  H    0.020653
   125  H    0.018115
   126  H    0.024466
   127  H    0.008336
   128  H    0.018040
   129  H    0.020205
   130  H    0.020661
   131  H    0.021464
   132  H    0.023233
   133  H    0.014462
   134  H    0.029074
   135  H    0.016524
   136  H    0.017311
   137  H    0.004739
   138  H    0.021546
   139  H    0.009526
   140  H    0.008912
 Sum of Mulliken charges =  -0.00000

 Dipole moment (field-independent basis, Debye):
    X=             -6.4282    Y=             11.9338    Z=              1.7801  Tot=             13.6713
 N-N= 4.249450322140D+03 E-N= 0.000000000000D+00  KE=-9.173778213948D+03
 Leave Link  601 at Thu May  5 15:29:42 2022, MaxMem=  6710886400 cpu:               0.8 elap:               0.0
 (Enter /sw/apps/gaussian-16.0/g16/l9999.exe)
 1\1\GINC-BP1-COMPUTE069\SP\RZINDO CIS\STO-3G\C55H74Mg1N4O6\OF15641\05-
 May-2022\0\\#p ZINDO=(nstates=5)\\step_951_chromophore_4 ZINDO\\0,1\Mg
 ,0,8.76,3.428,27.594\C,0,10.029,1.723,30.422\C,0,7.372,5.677,29.565\C,
 0,7.423,4.96,24.731\C,0,9.945,0.851,25.586\N,0,8.456,3.437,29.773\C,0,
 9.296,2.85,30.766\C,0,9.214,3.555,32.153\C,0,8.204,4.7,31.79\C,0,7.997
 ,4.586,30.268\C,0,6.9,4.818,32.702\C,0,10.506,4.087,32.756\C,0,10.437,
 4.778,34.089\C,0,10.389,3.803,35.271\O,0,10.045,2.641,35.185\O,0,10.70

 Normal termination of Gaussian 16 at Thu May  5 15:29:42 2022.
