 Gaussian 16, Revision A.03,
 Gaussian 16:  ES64L-G16RevA.03 25-Dec-2016

 ------------------------------
 #p blyp/Def2SVP td=(nstates=5)
 ------------------------------

 --------------------------------------------------
 step_701_chromophore_27 TDDFT with blyp functional
 --------------------------------------------------
 Symbolic Z-matrix:
 Charge =  0 Multiplicity = 1

                         Standard orientation:
 ---------------------------------------------------------------------
 Center     Atomic      Atomic             Coordinates (Angstroms)
 Number     Number       Type             X           Y           Z
 ---------------------------------------------------------------------
      1         12           0       -4.472842    0.789535   -0.232899
      2          6           0       -3.892700   -2.493051    0.366136
      3          6           0       -1.122828    1.364821   -0.209477
      4          6           0       -5.110270    4.088782   -0.184717
      5          6           0       -7.924335    0.290824    0.044333
      6          7           0       -2.773152   -0.447028   -0.029964
      7          6           0       -2.699411   -1.795045    0.085096
      8          6           0       -1.271566   -2.335180    0.174246
      9          6           0       -0.422795   -1.054670    0.142125
     10          6           0       -1.469480   -0.007694   -0.044387
     11          6           0        0.562642   -0.857747    1.341145
     12          6           0       -0.924970   -3.391781   -0.961422
     13          6           0        0.229260   -4.356538   -0.626711
     14          6           0        1.386948   -4.516104   -1.601794
     15          8           0        1.409422   -5.096546   -2.669529
     16          8           0        2.512735   -4.033274   -0.957256
     17          7           0       -3.310898    2.476872   -0.465609
     18          6           0       -1.963565    2.494041   -0.364576
     19          6           0       -1.481647    3.822646   -0.423385
     20          6           0       -2.602103    4.666192   -0.395492
     21          6           0       -3.799992    3.786313   -0.358839
     22          6           0       -0.110758    4.160609   -0.643066
     23          6           0       -2.651160    6.178190   -0.521989
     24          8           0       -3.706060    6.760979   -0.692122
     25          6           0       -1.417141    7.008170   -0.503791
     26          7           0       -6.298938    2.025440   -0.182240
     27          6           0       -6.302456    3.295869    0.006744
     28          6           0       -7.708668    3.924476    0.159135
     29          6           0       -8.600865    2.630185   -0.090861
     30          6           0       -7.557110    1.534758   -0.092962
     31          6           0       -7.752332    4.575201    1.610241
     32          6           0       -9.334228    2.651437   -1.482557
     33          6           0      -10.374965    1.595887   -1.603485
     34          7           0       -5.653403   -0.727487    0.112754
     35          6           0       -7.034762   -0.777942    0.197830
     36          6           0       -7.410944   -2.166986    0.414552
     37          6           0       -6.249418   -2.886287    0.510701
     38          6           0       -5.197400   -1.949431    0.326586
     39          6           0       -8.792733   -2.580133    0.387976
     40          6           0       -5.609244   -4.195744    0.624320
     41          8           0       -6.053628   -5.376269    0.628124
     42          6           0       -4.033310   -3.953923    0.695172
     43          6           0       -3.563533   -4.425812    2.002187
     44          8           0       -4.044569   -4.122464    3.094846
     45          8           0       -2.476380   -5.251495    1.781716
     46          6           0       -1.827571   -5.623616    3.053981
     47          6           0        3.778535   -4.351331   -1.642405
     48          6           0        4.356243   -2.976796   -2.043024
     49          6           0        5.541715   -2.452134   -1.694683
     50          6           0        6.436139   -2.987607   -0.631948
     51          6           0        5.831715   -1.071970   -2.242030
     52          6           0        6.374269   -1.131594   -3.709863
     53          6           0        7.875176   -0.682724   -3.649763
     54          6           0        8.171343    0.783711   -3.918285
     55          6           0        8.301609    1.136751   -5.439911
     56          6           0        9.441812    1.182568   -3.165628
     57          6           0        9.236937    2.115691   -1.874920
     58          6           0       10.341808    1.878014   -0.816665
     59          6           0        9.797544    1.329606    0.493903
     60          6           0        9.551495   -0.135485    0.512523
     61          6           0       10.640462    1.789481    1.726835
     62          6           0        9.858884    2.561336    2.906173
     63          6           0        9.121412    1.558415    3.828293
     64          6           0        9.027303    1.868225    5.381881
     65          6           0        9.634949    0.774446    6.238467
     66          6           0        7.516358    2.096250    5.857640
     67          1           0       -0.049410    1.490531   -0.051007
     68          1           0       -5.315583    5.144773    0.005480
     69          1           0       -8.978884    0.133109    0.283356
     70          1           0       -1.201513   -2.897615    1.105227
     71          1           0        0.273843   -1.027419   -0.696635
     72          1           0        0.657672   -1.677567    2.052960
     73          1           0        0.208919   -0.155869    2.095810
     74          1           0        1.551704   -0.641042    0.935447
     75          1           0       -0.764101   -2.891225   -1.915972
     76          1           0       -1.794668   -4.027196   -1.129701
     77          1           0       -0.261010   -5.329947   -0.658554
     78          1           0        0.683471   -4.168761    0.346113
     79          1           0       -0.128146    4.943023   -1.401511
     80          1           0        0.501276    3.369556   -1.076402
     81          1           0        0.527404    4.365172    0.216753
     82          1           0       -0.913433    7.016757   -1.470546
     83          1           0       -0.635915    6.678840    0.182406
     84          1           0       -1.714840    8.025975   -0.253132
     85          1           0       -7.870771    4.722285   -0.565897
     86          1           0       -9.358473    2.457926    0.673172
     87          1           0       -7.694197    5.663658    1.605034
     88          1           0       -6.910128    4.120602    2.132217
     89          1           0       -8.767601    4.354655    1.939100
     90          1           0       -8.577365    2.537645   -2.257906
     91          1           0       -9.737286    3.664318   -1.505309
     92          1           0      -10.094875    0.893038   -2.387868
     93          1           0      -11.308220    2.066750   -1.912099
     94          1           0      -10.548750    1.085139   -0.656370
     95          1           0       -8.943253   -3.654182    0.281625
     96          1           0       -9.365371   -2.117787   -0.415899
     97          1           0       -9.150070   -2.180759    1.337602
     98          1           0       -3.635987   -4.583161   -0.101653
     99          1           0       -0.845794   -5.985751    2.748512
    100          1           0       -2.309313   -6.451457    3.574416
    101          1           0       -1.764155   -4.736533    3.684537
    102          1           0        3.649800   -4.851124   -2.601969
    103          1           0        4.436403   -4.893441   -0.962673
    104          1           0        3.763533   -2.419804   -2.769200
    105          1           0        6.773757   -2.254834    0.101052
    106          1           0        7.285612   -3.209927   -1.278212
    107          1           0        6.136836   -3.913305   -0.140472
    108          1           0        6.533872   -0.648056   -1.524790
    109          1           0        4.875393   -0.549269   -2.220774
    110          1           0        5.778737   -0.442720   -4.308082
    111          1           0        6.290567   -2.119009   -4.163753
    112          1           0        8.345150   -1.327052   -4.392476
    113          1           0        8.340534   -1.016863   -2.723205
    114          1           0        7.358690    1.387555   -3.516511
    115          1           0        9.326374    0.985550   -5.776040
    116          1           0        8.084270    2.195315   -5.580552
    117          1           0        7.559996    0.598008   -6.030198
    118          1           0       10.058415    1.767429   -3.847826
    119          1           0       10.061917    0.338783   -2.863255
    120          1           0        8.190192    2.261836   -1.608800
    121          1           0        9.483304    3.106220   -2.257713
    122          1           0       10.869933    2.824450   -0.704270
    123          1           0       11.148192    1.236859   -1.172010
    124          1           0        8.770022    1.678196    0.590899
    125          1           0        9.693423   -0.735052   -0.386435
    126          1           0        8.490658   -0.232663    0.746876
    127          1           0       10.128579   -0.609870    1.305944
    128          1           0       11.306398    2.573523    1.366460
    129          1           0       11.303141    1.080532    2.223003
    130          1           0        9.184853    3.315632    2.501796
    131          1           0       10.645615    3.081559    3.451935
    132          1           0        9.579888    0.571297    3.764107
    133          1           0        8.139725    1.460819    3.365269
    134          1           0        9.540350    2.789813    5.655670
    135          1           0       10.013573    1.132629    7.195248
    136          1           0       10.614424    0.495674    5.848825
    137          1           0        8.985900   -0.095147    6.347166
    138          1           0        7.504443    2.973684    6.504389
    139          1           0        7.167940    1.239363    6.433601
    140          1           0        6.809304    2.286060    5.050103
 ---------------------------------------------------------------------

 SCF Done:  E(RB-LYP) =  -3007.37442723     A.U. after   21 cycles

 Excitation energies and oscillator strengths:

 Excited State   1:      Singlet-A      1.8234 eV  679.95 nm  f=0.3054  <S**2>=0.000
     245 -> 248        0.18682
     246 -> 247        0.68766
     246 <- 247       -0.14392
 This state for optimization and/or second-order correction.
 Total Energy, E(TD-HF/TD-DFT) =  -3007.30741787
 Copying the excited state density for this state as the 1-particle RhoCI density.

 Excited State   2:      Singlet-A      1.9337 eV  641.17 nm  f=0.0082  <S**2>=0.000
     244 -> 247        0.60987
     245 -> 247       -0.34166

 Excited State   3:      Singlet-A      2.0826 eV  595.33 nm  f=0.0228  <S**2>=0.000
     243 -> 247       -0.41129
     244 -> 247        0.30029
     245 -> 247        0.43597
     246 -> 248       -0.20805

 Excited State   4:      Singlet-A      2.1529 eV  575.91 nm  f=0.0189  <S**2>=0.000
     243 -> 247        0.57010
     244 -> 247        0.16006
     245 -> 247        0.31868
     246 -> 248       -0.19769

 Excited State   5:      Singlet-A      2.3123 eV  536.20 nm  f=0.0004  <S**2>=0.000
     242 -> 247        0.70707

 The electronic state is 1-A.
 Alpha  occ. eigenvalues --  -46.25661 -18.82803 -18.81894 -18.77083 -18.76989
 Alpha  occ. eigenvalues --  -18.75401 -18.75157 -14.03468 -14.02608 -14.00821
 Alpha  occ. eigenvalues --  -14.00770 -10.03979 -10.03894  -9.99677  -9.99465
 Alpha  occ. eigenvalues --   -9.97787  -9.97475  -9.96580  -9.96361  -9.96244
 Alpha  occ. eigenvalues --   -9.95668  -9.95297  -9.94796  -9.94639  -9.94584
 Alpha  occ. eigenvalues --   -9.94476  -9.94288  -9.93951  -9.93754  -9.93463
 Alpha  occ. eigenvalues --   -9.93430  -9.93313  -9.93143  -9.93109  -9.92942
 Alpha  occ. eigenvalues --   -9.92705  -9.92628  -9.92601  -9.92599  -9.92569
 Alpha  occ. eigenvalues --   -9.92569  -9.92535  -9.92504  -9.92498  -9.92144
 Alpha  occ. eigenvalues --   -9.92046  -9.91997  -9.91851  -9.91823  -9.91802
 Alpha  occ. eigenvalues --   -9.91781  -9.91700  -9.91641  -9.91638  -9.91622
 Alpha  occ. eigenvalues --   -9.91484  -9.91388  -9.91334  -9.91284  -9.91251
 Alpha  occ. eigenvalues --   -9.91229  -9.91089  -9.91008  -9.90986  -9.90814
 Alpha  occ. eigenvalues --   -9.90799  -2.90666  -1.71096  -1.70547  -1.70381
 Alpha  occ. eigenvalues --   -0.97613  -0.97608  -0.91941  -0.90021  -0.89837
 Alpha  occ. eigenvalues --   -0.88673  -0.88053  -0.87018  -0.86171  -0.85172
 Alpha  occ. eigenvalues --   -0.75310  -0.74062  -0.73359  -0.73267  -0.73096
 Alpha  occ. eigenvalues --   -0.72069  -0.71971  -0.71462  -0.71183  -0.70867
 Alpha  occ. eigenvalues --   -0.70621  -0.69518  -0.67958  -0.67871  -0.67302
 Alpha  occ. eigenvalues --   -0.66516  -0.66170  -0.65688  -0.65191  -0.64627
 Alpha  occ. eigenvalues --   -0.64367  -0.62899  -0.62620  -0.62010  -0.61026
 Alpha  occ. eigenvalues --   -0.60833  -0.60224  -0.59996  -0.59931  -0.58978
 Alpha  occ. eigenvalues --   -0.58304  -0.57611  -0.56953  -0.55813  -0.54532
 Alpha  occ. eigenvalues --   -0.54419  -0.53789  -0.53119  -0.52628  -0.51920
 Alpha  occ. eigenvalues --   -0.51526  -0.51397  -0.50869  -0.50424  -0.50210
 Alpha  occ. eigenvalues --   -0.49468  -0.49142  -0.49033  -0.48386  -0.46875
 Alpha  occ. eigenvalues --   -0.46607  -0.45989  -0.45808  -0.45629  -0.44788
 Alpha  occ. eigenvalues --   -0.44372  -0.44061  -0.43707  -0.42785  -0.42353
 Alpha  occ. eigenvalues --   -0.42308  -0.42097  -0.41653  -0.41562  -0.41225
 Alpha  occ. eigenvalues --   -0.41200  -0.40680  -0.40616  -0.40407  -0.40157
 Alpha  occ. eigenvalues --   -0.40023  -0.39801  -0.39718  -0.39480  -0.39209
 Alpha  occ. eigenvalues --   -0.39187  -0.39079  -0.39000  -0.38837  -0.38653
 Alpha  occ. eigenvalues --   -0.38413  -0.38260  -0.37979  -0.37776  -0.37626
 Alpha  occ. eigenvalues --   -0.37149  -0.36863  -0.36813  -0.36630  -0.36472
 Alpha  occ. eigenvalues --   -0.36389  -0.36189  -0.35955  -0.35755  -0.35609
 Alpha  occ. eigenvalues --   -0.35461  -0.35396  -0.35168  -0.34849  -0.34795
 Alpha  occ. eigenvalues --   -0.34685  -0.34546  -0.34314  -0.34264  -0.33971
 Alpha  occ. eigenvalues --   -0.33804  -0.33714  -0.33630  -0.33517  -0.33078
 Alpha  occ. eigenvalues --   -0.32864  -0.32526  -0.32477  -0.32262  -0.32193
 Alpha  occ. eigenvalues --   -0.32128  -0.31906  -0.31832  -0.31619  -0.31505
 Alpha  occ. eigenvalues --   -0.31262  -0.31151  -0.31113  -0.31022  -0.30852
 Alpha  occ. eigenvalues --   -0.30572  -0.30486  -0.30343  -0.30229  -0.30074
 Alpha  occ. eigenvalues --   -0.30006  -0.29848  -0.29601  -0.29334  -0.29181
 Alpha  occ. eigenvalues --   -0.29037  -0.28956  -0.28580  -0.28222  -0.28129
 Alpha  occ. eigenvalues --   -0.28052  -0.27881  -0.27696  -0.27077  -0.26822
 Alpha  occ. eigenvalues --   -0.26443  -0.26407  -0.26350  -0.26120  -0.25618
 Alpha  occ. eigenvalues --   -0.25305  -0.25022  -0.24512  -0.23961  -0.23827
 Alpha  occ. eigenvalues --   -0.23598  -0.22748  -0.22447  -0.21591  -0.20891
 Alpha  occ. eigenvalues --   -0.20628  -0.19543  -0.18744  -0.18144  -0.17236
 Alpha  occ. eigenvalues --   -0.15428
 Alpha virt. eigenvalues --   -0.11046  -0.06842  -0.05953  -0.04574  -0.03181
 Alpha virt. eigenvalues --   -0.03009  -0.01897  -0.01680  -0.00971   0.00121
 Alpha virt. eigenvalues --    0.00936   0.01516   0.01576   0.02542   0.02761

 Mulliken charges:
               1
     1  Mg   0.723236
     2  C   -0.004777
     3  C   -0.103198
     4  C   -0.037708
     5  C   -0.127197
     6  N   -0.230675
     7  C   -0.060006
     8  C    0.047228
     9  C    0.048453
    10  C    0.010145
    11  C    0.108727
    12  C    0.108365
    13  C    0.144616
    14  C    0.049022
    15  O   -0.175054
    16  O   -0.283681
    17  N   -0.304237
    18  C    0.189043
    19  C   -0.119440
    20  C    0.055996
    21  C    0.128399
    22  C    0.174275
    23  C   -0.086176
    24  O   -0.160969
    25  C    0.120540
    26  N   -0.138007
    27  C   -0.049624
    28  C   -0.007779
    29  C   -0.000815
    30  C    0.050784
    31  C    0.118976
    32  C    0.088217
    33  C    0.113736
    34  N   -0.285685
    35  C    0.143638
    36  C   -0.224150
    37  C    0.160047
    38  C    0.062133
    39  C    0.192654
    40  C   -0.069342
    41  O   -0.171284
    42  C    0.063537
    43  C    0.128201
    44  O   -0.184811
    45  O   -0.281719
    46  C    0.215289
    47  C    0.333963
    48  C   -0.111703
    49  C   -0.171027
    50  C    0.151513
    51  C    0.123069
    52  C    0.098848
    53  C    0.079941
    54  C   -0.032701
    55  C    0.104475
    56  C    0.083218
    57  C    0.062182
    58  C    0.111164
    59  C   -0.033987
    60  C    0.103098
    61  C    0.083473
    62  C    0.047166
    63  C    0.112783
    64  C   -0.070030
    65  C    0.095771
    66  C    0.082352
    67  H   -0.074289
    68  H   -0.051145
    69  H   -0.063882
    70  H   -0.024587
    71  H   -0.017768
    72  H   -0.018078
    73  H   -0.012872
    74  H    0.005841
    75  H   -0.020350
    76  H   -0.020675
    77  H    0.005524
    78  H   -0.002801
    79  H   -0.003336
    80  H   -0.025916
    81  H   -0.001545
    82  H    0.016056
    83  H   -0.006490
    84  H   -0.003589
    85  H   -0.015523
    86  H   -0.038689
    87  H    0.004027
    88  H    0.014004
    89  H   -0.011866
    90  H   -0.020962
    91  H   -0.021551
    92  H   -0.004339
    93  H   -0.013762
    94  H   -0.011290
    95  H    0.004752
    96  H   -0.006058
    97  H    0.002015
    98  H   -0.001794
    99  H    0.005860
   100  H    0.024618
   101  H    0.020157
   102  H    0.008486
   103  H   -0.015428
   104  H   -0.047057
   105  H    0.006459
   106  H   -0.005550
   107  H   -0.016116
   108  H   -0.028916
   109  H   -0.023948
   110  H   -0.030578
   111  H   -0.020694
   112  H   -0.049632
   113  H   -0.033170
   114  H   -0.046475
   115  H   -0.007904
   116  H   -0.020831
   117  H   -0.016104
   118  H   -0.044808
   119  H   -0.026891
   120  H   -0.023134
   121  H   -0.040963
   122  H   -0.042348
   123  H   -0.034780
   124  H   -0.041228
   125  H   -0.016109
   126  H   -0.016915
   127  H   -0.020665
   128  H   -0.047007
   129  H   -0.026795
   130  H   -0.024997
   131  H   -0.032683
   132  H   -0.039401
   133  H   -0.036629
   134  H   -0.032171
   135  H   -0.024447
   136  H   -0.029904
   137  H   -0.001602
   138  H   -0.017238
   139  H   -0.016565
   140  H   -0.017450
 Sum of Mulliken charges =  -0.00000

 Dipole moment (field-independent basis, Debye):
    X=              4.8968    Y=              3.8046    Z=              0.4790  Tot=              6.2196
 Quadrupole moment (field-independent basis, Debye-Ang):
   XX=           -373.1527   YY=           -443.4752   ZZ=           -412.3254
   XY=            -25.0341   XZ=             10.0141   YZ=             -4.6504

 Normal termination of Gaussian 16 at Thu May  5 07:16:39 2022.
