 Gaussian 16, Revision A.03,
 Gaussian 16:  ES64L-G16RevA.03 25-Dec-2016

 -----------------------------------
 #p cam-b3lyp/Def2SVP td=(nstates=5)
 -----------------------------------

 -------------------------------------------------------
 step_701_chromophore_27 TDDFT with cam-b3lyp functional
 -------------------------------------------------------
 Symbolic Z-matrix:
 Charge =  0 Multiplicity = 1

                         Standard orientation:
 ---------------------------------------------------------------------
 Center     Atomic      Atomic             Coordinates (Angstroms)
 Number     Number       Type             X           Y           Z
 ---------------------------------------------------------------------
      1         12           0       -4.472842    0.789535   -0.232899
      2          6           0       -3.892700   -2.493051    0.366136
      3          6           0       -1.122828    1.364821   -0.209477
      4          6           0       -5.110270    4.088782   -0.184717
      5          6           0       -7.924335    0.290824    0.044333
      6          7           0       -2.773152   -0.447028   -0.029964
      7          6           0       -2.699411   -1.795045    0.085096
      8          6           0       -1.271566   -2.335180    0.174246
      9          6           0       -0.422795   -1.054670    0.142125
     10          6           0       -1.469480   -0.007694   -0.044387
     11          6           0        0.562642   -0.857747    1.341145
     12          6           0       -0.924970   -3.391781   -0.961422
     13          6           0        0.229260   -4.356538   -0.626711
     14          6           0        1.386948   -4.516104   -1.601794
     15          8           0        1.409422   -5.096546   -2.669529
     16          8           0        2.512735   -4.033274   -0.957256
     17          7           0       -3.310898    2.476872   -0.465609
     18          6           0       -1.963565    2.494041   -0.364576
     19          6           0       -1.481647    3.822646   -0.423385
     20          6           0       -2.602103    4.666192   -0.395492
     21          6           0       -3.799992    3.786313   -0.358839
     22          6           0       -0.110758    4.160609   -0.643066
     23          6           0       -2.651160    6.178190   -0.521989
     24          8           0       -3.706060    6.760979   -0.692122
     25          6           0       -1.417141    7.008170   -0.503791
     26          7           0       -6.298938    2.025440   -0.182240
     27          6           0       -6.302456    3.295869    0.006744
     28          6           0       -7.708668    3.924476    0.159135
     29          6           0       -8.600865    2.630185   -0.090861
     30          6           0       -7.557110    1.534758   -0.092962
     31          6           0       -7.752332    4.575201    1.610241
     32          6           0       -9.334228    2.651437   -1.482557
     33          6           0      -10.374965    1.595887   -1.603485
     34          7           0       -5.653403   -0.727487    0.112754
     35          6           0       -7.034762   -0.777942    0.197830
     36          6           0       -7.410944   -2.166986    0.414552
     37          6           0       -6.249418   -2.886287    0.510701
     38          6           0       -5.197400   -1.949431    0.326586
     39          6           0       -8.792733   -2.580133    0.387976
     40          6           0       -5.609244   -4.195744    0.624320
     41          8           0       -6.053628   -5.376269    0.628124
     42          6           0       -4.033310   -3.953923    0.695172
     43          6           0       -3.563533   -4.425812    2.002187
     44          8           0       -4.044569   -4.122464    3.094846
     45          8           0       -2.476380   -5.251495    1.781716
     46          6           0       -1.827571   -5.623616    3.053981
     47          6           0        3.778535   -4.351331   -1.642405
     48          6           0        4.356243   -2.976796   -2.043024
     49          6           0        5.541715   -2.452134   -1.694683
     50          6           0        6.436139   -2.987607   -0.631948
     51          6           0        5.831715   -1.071970   -2.242030
     52          6           0        6.374269   -1.131594   -3.709863
     53          6           0        7.875176   -0.682724   -3.649763
     54          6           0        8.171343    0.783711   -3.918285
     55          6           0        8.301609    1.136751   -5.439911
     56          6           0        9.441812    1.182568   -3.165628
     57          6           0        9.236937    2.115691   -1.874920
     58          6           0       10.341808    1.878014   -0.816665
     59          6           0        9.797544    1.329606    0.493903
     60          6           0        9.551495   -0.135485    0.512523
     61          6           0       10.640462    1.789481    1.726835
     62          6           0        9.858884    2.561336    2.906173
     63          6           0        9.121412    1.558415    3.828293
     64          6           0        9.027303    1.868225    5.381881
     65          6           0        9.634949    0.774446    6.238467
     66          6           0        7.516358    2.096250    5.857640
     67          1           0       -0.049410    1.490531   -0.051007
     68          1           0       -5.315583    5.144773    0.005480
     69          1           0       -8.978884    0.133109    0.283356
     70          1           0       -1.201513   -2.897615    1.105227
     71          1           0        0.273843   -1.027419   -0.696635
     72          1           0        0.657672   -1.677567    2.052960
     73          1           0        0.208919   -0.155869    2.095810
     74          1           0        1.551704   -0.641042    0.935447
     75          1           0       -0.764101   -2.891225   -1.915972
     76          1           0       -1.794668   -4.027196   -1.129701
     77          1           0       -0.261010   -5.329947   -0.658554
     78          1           0        0.683471   -4.168761    0.346113
     79          1           0       -0.128146    4.943023   -1.401511
     80          1           0        0.501276    3.369556   -1.076402
     81          1           0        0.527404    4.365172    0.216753
     82          1           0       -0.913433    7.016757   -1.470546
     83          1           0       -0.635915    6.678840    0.182406
     84          1           0       -1.714840    8.025975   -0.253132
     85          1           0       -7.870771    4.722285   -0.565897
     86          1           0       -9.358473    2.457926    0.673172
     87          1           0       -7.694197    5.663658    1.605034
     88          1           0       -6.910128    4.120602    2.132217
     89          1           0       -8.767601    4.354655    1.939100
     90          1           0       -8.577365    2.537645   -2.257906
     91          1           0       -9.737286    3.664318   -1.505309
     92          1           0      -10.094875    0.893038   -2.387868
     93          1           0      -11.308220    2.066750   -1.912099
     94          1           0      -10.548750    1.085139   -0.656370
     95          1           0       -8.943253   -3.654182    0.281625
     96          1           0       -9.365371   -2.117787   -0.415899
     97          1           0       -9.150070   -2.180759    1.337602
     98          1           0       -3.635987   -4.583161   -0.101653
     99          1           0       -0.845794   -5.985751    2.748512
    100          1           0       -2.309313   -6.451457    3.574416
    101          1           0       -1.764155   -4.736533    3.684537
    102          1           0        3.649800   -4.851124   -2.601969
    103          1           0        4.436403   -4.893441   -0.962673
    104          1           0        3.763533   -2.419804   -2.769200
    105          1           0        6.773757   -2.254834    0.101052
    106          1           0        7.285612   -3.209927   -1.278212
    107          1           0        6.136836   -3.913305   -0.140472
    108          1           0        6.533872   -0.648056   -1.524790
    109          1           0        4.875393   -0.549269   -2.220774
    110          1           0        5.778737   -0.442720   -4.308082
    111          1           0        6.290567   -2.119009   -4.163753
    112          1           0        8.345150   -1.327052   -4.392476
    113          1           0        8.340534   -1.016863   -2.723205
    114          1           0        7.358690    1.387555   -3.516511
    115          1           0        9.326374    0.985550   -5.776040
    116          1           0        8.084270    2.195315   -5.580552
    117          1           0        7.559996    0.598008   -6.030198
    118          1           0       10.058415    1.767429   -3.847826
    119          1           0       10.061917    0.338783   -2.863255
    120          1           0        8.190192    2.261836   -1.608800
    121          1           0        9.483304    3.106220   -2.257713
    122          1           0       10.869933    2.824450   -0.704270
    123          1           0       11.148192    1.236859   -1.172010
    124          1           0        8.770022    1.678196    0.590899
    125          1           0        9.693423   -0.735052   -0.386435
    126          1           0        8.490658   -0.232663    0.746876
    127          1           0       10.128579   -0.609870    1.305944
    128          1           0       11.306398    2.573523    1.366460
    129          1           0       11.303141    1.080532    2.223003
    130          1           0        9.184853    3.315632    2.501796
    131          1           0       10.645615    3.081559    3.451935
    132          1           0        9.579888    0.571297    3.764107
    133          1           0        8.139725    1.460819    3.365269
    134          1           0        9.540350    2.789813    5.655670
    135          1           0       10.013573    1.132629    7.195248
    136          1           0       10.614424    0.495674    5.848825
    137          1           0        8.985900   -0.095147    6.347166
    138          1           0        7.504443    2.973684    6.504389
    139          1           0        7.167940    1.239363    6.433601
    140          1           0        6.809304    2.286060    5.050103
 ---------------------------------------------------------------------

 SCF Done:  E(RCAM-B3LYP) =  -3007.18144914     A.U. after   18 cycles

 Excitation energies and oscillator strengths:

 Excited State   1:      Singlet-A      1.7956 eV  690.49 nm  f=0.3699  <S**2>=0.000
     245 -> 248        0.17049
     246 -> 247        0.68566
     245 <- 248        0.10032
 This state for optimization and/or second-order correction.
 Total Energy, E(TD-HF/TD-DFT) =  -3007.11546219
 Copying the excited state density for this state as the 1-particle RhoCI density.

 Excited State   2:      Singlet-A      2.3443 eV  528.87 nm  f=0.0576  <S**2>=0.000
     245 -> 247        0.60682
     246 -> 248       -0.34693

 Excited State   3:      Singlet-A      3.4530 eV  359.06 nm  f=0.5705  <S**2>=0.000
     240 -> 247        0.11530
     241 -> 247        0.29709
     245 -> 247        0.28952
     246 -> 248        0.54904

 Excited State   4:      Singlet-A      3.5917 eV  345.20 nm  f=0.0050  <S**2>=0.000
     242 -> 247       -0.10444
     243 -> 247        0.51548
     243 -> 249       -0.26918
     243 -> 250       -0.27837

 Excited State   5:      Singlet-A      3.6672 eV  338.09 nm  f=0.0515  <S**2>=0.000
     239 -> 247        0.52099
     239 -> 248       -0.13656
     239 -> 249        0.31848
     239 -> 250       -0.17376
     241 -> 247       -0.13394
     246 -> 248        0.11464

 The electronic state is 1-A.
 Alpha  occ. eigenvalues --  -46.87087 -19.25648 -19.24705 -19.20051 -19.19909
 Alpha  occ. eigenvalues --  -19.19164 -19.17805 -14.42235 -14.41614 -14.39457
 Alpha  occ. eigenvalues --  -14.38942 -10.39267 -10.39176 -10.35342 -10.34450
 Alpha  occ. eigenvalues --  -10.31720 -10.31579 -10.31478 -10.31099 -10.30570
 Alpha  occ. eigenvalues --  -10.30516 -10.30251 -10.28544 -10.28496 -10.28465
 Alpha  occ. eigenvalues --  -10.28299 -10.28245 -10.28081 -10.28038 -10.27646
 Alpha  occ. eigenvalues --  -10.27621 -10.27310 -10.27297 -10.27252 -10.27197
 Alpha  occ. eigenvalues --  -10.26985 -10.26758 -10.26741 -10.26643 -10.26367
 Alpha  occ. eigenvalues --  -10.26325 -10.26298 -10.26278 -10.26257 -10.26075
 Alpha  occ. eigenvalues --  -10.26040 -10.25898 -10.25787 -10.25762 -10.25575
 Alpha  occ. eigenvalues --  -10.25516 -10.25481 -10.25453 -10.25259 -10.25229
 Alpha  occ. eigenvalues --  -10.25097 -10.25050 -10.25002 -10.24998 -10.24996
 Alpha  occ. eigenvalues --  -10.24988 -10.24864 -10.24658 -10.24623 -10.24436
 Alpha  occ. eigenvalues --  -10.24253  -3.16015  -1.90915  -1.90467  -1.90344
 Alpha  occ. eigenvalues --   -1.16053  -1.15989  -1.10892  -1.07851  -1.07642
 Alpha  occ. eigenvalues --   -1.06482  -1.05910  -1.04660  -1.03548  -1.03028
 Alpha  occ. eigenvalues --   -0.92148  -0.91003  -0.90142  -0.90084  -0.89827
 Alpha  occ. eigenvalues --   -0.89127  -0.88701  -0.88030  -0.87742  -0.87485
 Alpha  occ. eigenvalues --   -0.87069  -0.85995  -0.84157  -0.84075  -0.83503
 Alpha  occ. eigenvalues --   -0.82604  -0.82403  -0.81890  -0.81062  -0.80514
 Alpha  occ. eigenvalues --   -0.80189  -0.78689  -0.78390  -0.77448  -0.76433
 Alpha  occ. eigenvalues --   -0.76158  -0.75625  -0.75369  -0.75187  -0.74239
 Alpha  occ. eigenvalues --   -0.73370  -0.72542  -0.71878  -0.70679  -0.69128
 Alpha  occ. eigenvalues --   -0.68964  -0.68407  -0.67666  -0.67081  -0.66129
 Alpha  occ. eigenvalues --   -0.65670  -0.65632  -0.65015  -0.64340  -0.64282
 Alpha  occ. eigenvalues --   -0.63448  -0.63044  -0.62826  -0.62037  -0.60730
 Alpha  occ. eigenvalues --   -0.60350  -0.59448  -0.59291  -0.58983  -0.58140
 Alpha  occ. eigenvalues --   -0.57773  -0.57561  -0.56988  -0.56015  -0.55377
 Alpha  occ. eigenvalues --   -0.55317  -0.55215  -0.54909  -0.54511  -0.54140
 Alpha  occ. eigenvalues --   -0.53956  -0.53531  -0.53309  -0.53242  -0.53164
 Alpha  occ. eigenvalues --   -0.52750  -0.52481  -0.52268  -0.52214  -0.51795
 Alpha  occ. eigenvalues --   -0.51698  -0.51653  -0.51558  -0.51225  -0.51134
 Alpha  occ. eigenvalues --   -0.50767  -0.50526  -0.50467  -0.50204  -0.49862
 Alpha  occ. eigenvalues --   -0.49818  -0.49506  -0.49103  -0.48924  -0.48732
 Alpha  occ. eigenvalues --   -0.48641  -0.48478  -0.48245  -0.47995  -0.47846
 Alpha  occ. eigenvalues --   -0.47720  -0.47406  -0.47110  -0.46922  -0.46863
 Alpha  occ. eigenvalues --   -0.46593  -0.46524  -0.46305  -0.45985  -0.45925
 Alpha  occ. eigenvalues --   -0.45536  -0.45432  -0.45402  -0.45228  -0.44893
 Alpha  occ. eigenvalues --   -0.44510  -0.44155  -0.44036  -0.43974  -0.43728
 Alpha  occ. eigenvalues --   -0.43602  -0.43456  -0.43347  -0.43335  -0.43137
 Alpha  occ. eigenvalues --   -0.43055  -0.42948  -0.42684  -0.42600  -0.42442
 Alpha  occ. eigenvalues --   -0.42269  -0.41882  -0.41742  -0.41699  -0.41524
 Alpha  occ. eigenvalues --   -0.41312  -0.41087  -0.40785  -0.40514  -0.40284
 Alpha  occ. eigenvalues --   -0.40209  -0.40044  -0.39619  -0.39114  -0.39070
 Alpha  occ. eigenvalues --   -0.39019  -0.38807  -0.38621  -0.37937  -0.37670
 Alpha  occ. eigenvalues --   -0.37543  -0.37352  -0.37263  -0.37222  -0.36654
 Alpha  occ. eigenvalues --   -0.35989  -0.35697  -0.35413  -0.34671  -0.34598
 Alpha  occ. eigenvalues --   -0.34392  -0.34188  -0.33415  -0.31614  -0.31255
 Alpha  occ. eigenvalues --   -0.30334  -0.29763  -0.29693  -0.29207  -0.24224
 Alpha  occ. eigenvalues --   -0.20707
 Alpha virt. eigenvalues --   -0.07888  -0.01721   0.00542   0.02493   0.03653
 Alpha virt. eigenvalues --    0.04343   0.04961   0.05358   0.05418   0.06367
 Alpha virt. eigenvalues --    0.07685   0.07818   0.08603   0.08783   0.09016

 Mulliken charges:
               1
     1  Mg   0.861312
     2  C   -0.028777
     3  C   -0.120318
     4  C   -0.052475
     5  C   -0.120181
     6  N   -0.305803
     7  C   -0.022007
     8  C   -0.002632
     9  C   -0.012345
    10  C    0.037201
    11  C    0.048750
    12  C    0.061519
    13  C    0.072428
    14  C    0.136001
    15  O   -0.218341
    16  O   -0.348640
    17  N   -0.395685
    18  C    0.203507
    19  C   -0.119816
    20  C   -0.006715
    21  C    0.151471
    22  C    0.101140
    23  C   -0.004992
    24  O   -0.197842
    25  C    0.035908
    26  N   -0.206525
    27  C   -0.026636
    28  C   -0.062365
    29  C   -0.054346
    30  C    0.055114
    31  C    0.064554
    32  C    0.040394
    33  C    0.044571
    34  N   -0.378656
    35  C    0.136328
    36  C   -0.215576
    37  C    0.075395
    38  C    0.093679
    39  C    0.128663
    40  C    0.036444
    41  O   -0.214900
    42  C   -0.015504
    43  C    0.217895
    44  O   -0.222967
    45  O   -0.345489
    46  C    0.174961
    47  C    0.288663
    48  C   -0.124594
    49  C   -0.189954
    50  C    0.088968
    51  C    0.066114
    52  C    0.042528
    53  C    0.029521
    54  C   -0.091237
    55  C    0.049445
    56  C    0.033798
    57  C    0.003547
    58  C    0.057645
    59  C   -0.091164
    60  C    0.048364
    61  C    0.028277
    62  C   -0.001927
    63  C    0.058142
    64  C   -0.130768
    65  C    0.034427
    66  C    0.026737
    67  H   -0.038969
    68  H   -0.011649
    69  H   -0.027199
    70  H    0.007865
    71  H    0.018359
    72  H    0.008828
    73  H    0.014552
    74  H    0.029701
    75  H    0.010284
    76  H    0.010266
    77  H    0.038208
    78  H    0.029481
    79  H    0.024064
    80  H    0.008557
    81  H    0.030831
    82  H    0.045347
    83  H    0.024436
    84  H    0.033212
    85  H    0.020159
    86  H   -0.003198
    87  H    0.028032
    88  H    0.037839
    89  H    0.013698
    90  H    0.007297
    91  H    0.005121
    92  H    0.020741
    93  H    0.011816
    94  H    0.009344
    95  H    0.032554
    96  H    0.017222
    97  H    0.026004
    98  H    0.041800
    99  H    0.028100
   100  H    0.047668
   101  H    0.043577
   102  H    0.044259
   103  H    0.013557
   104  H   -0.014740
   105  H    0.028966
   106  H    0.015939
   107  H    0.010020
   108  H   -0.004319
   109  H    0.007126
   110  H   -0.002362
   111  H    0.009806
   112  H   -0.018455
   113  H   -0.009619
   114  H   -0.015528
   115  H    0.015001
   116  H    0.003825
   117  H    0.007357
   118  H   -0.014248
   119  H   -0.000816
   120  H    0.003663
   121  H   -0.010289
   122  H   -0.011013
   123  H   -0.005434
   124  H   -0.009843
   125  H    0.005685
   126  H    0.002051
   127  H    0.004293
   128  H   -0.015957
   129  H    0.001027
   130  H    0.001553
   131  H   -0.004510
   132  H   -0.011451
   133  H   -0.009739
   134  H   -0.000549
   135  H    0.001745
   136  H   -0.004777
   137  H    0.020930
   138  H    0.006540
   139  H    0.006299
   140  H    0.005826
 Sum of Mulliken charges =  -0.00000

 Dipole moment (field-independent basis, Debye):
    X=              5.9597    Y=              5.3013    Z=              0.4769  Tot=              7.9906
 Quadrupole moment (field-independent basis, Debye-Ang):
   XX=           -377.8579   YY=           -438.4845   ZZ=           -412.5730
   XY=            -30.0008   XZ=             10.5846   YZ=             -5.0997

 Normal termination of Gaussian 16 at Thu May  5 06:15:50 2022.
