 Gaussian 16, Revision A.03,
 Gaussian 16:  ES64L-G16RevA.03 25-Dec-2016

 ---------------------------------
 #p PBE1PBE/Def2SVP td=(nstates=5)
 ---------------------------------

 -----------------------------------------------------
 step_701_chromophore_27 TDDFT with PBE1PBE functional
 -----------------------------------------------------
 Symbolic Z-matrix:
 Charge =  0 Multiplicity = 1

                         Standard orientation:
 ---------------------------------------------------------------------
 Center     Atomic      Atomic             Coordinates (Angstroms)
 Number     Number       Type             X           Y           Z
 ---------------------------------------------------------------------
      1         12           0       -4.472842    0.789535   -0.232899
      2          6           0       -3.892700   -2.493051    0.366136
      3          6           0       -1.122828    1.364821   -0.209477
      4          6           0       -5.110270    4.088782   -0.184717
      5          6           0       -7.924335    0.290824    0.044333
      6          7           0       -2.773152   -0.447028   -0.029964
      7          6           0       -2.699411   -1.795045    0.085096
      8          6           0       -1.271566   -2.335180    0.174246
      9          6           0       -0.422795   -1.054670    0.142125
     10          6           0       -1.469480   -0.007694   -0.044387
     11          6           0        0.562642   -0.857747    1.341145
     12          6           0       -0.924970   -3.391781   -0.961422
     13          6           0        0.229260   -4.356538   -0.626711
     14          6           0        1.386948   -4.516104   -1.601794
     15          8           0        1.409422   -5.096546   -2.669529
     16          8           0        2.512735   -4.033274   -0.957256
     17          7           0       -3.310898    2.476872   -0.465609
     18          6           0       -1.963565    2.494041   -0.364576
     19          6           0       -1.481647    3.822646   -0.423385
     20          6           0       -2.602103    4.666192   -0.395492
     21          6           0       -3.799992    3.786313   -0.358839
     22          6           0       -0.110758    4.160609   -0.643066
     23          6           0       -2.651160    6.178190   -0.521989
     24          8           0       -3.706060    6.760979   -0.692122
     25          6           0       -1.417141    7.008170   -0.503791
     26          7           0       -6.298938    2.025440   -0.182240
     27          6           0       -6.302456    3.295869    0.006744
     28          6           0       -7.708668    3.924476    0.159135
     29          6           0       -8.600865    2.630185   -0.090861
     30          6           0       -7.557110    1.534758   -0.092962
     31          6           0       -7.752332    4.575201    1.610241
     32          6           0       -9.334228    2.651437   -1.482557
     33          6           0      -10.374965    1.595887   -1.603485
     34          7           0       -5.653403   -0.727487    0.112754
     35          6           0       -7.034762   -0.777942    0.197830
     36          6           0       -7.410944   -2.166986    0.414552
     37          6           0       -6.249418   -2.886287    0.510701
     38          6           0       -5.197400   -1.949431    0.326586
     39          6           0       -8.792733   -2.580133    0.387976
     40          6           0       -5.609244   -4.195744    0.624320
     41          8           0       -6.053628   -5.376269    0.628124
     42          6           0       -4.033310   -3.953923    0.695172
     43          6           0       -3.563533   -4.425812    2.002187
     44          8           0       -4.044569   -4.122464    3.094846
     45          8           0       -2.476380   -5.251495    1.781716
     46          6           0       -1.827571   -5.623616    3.053981
     47          6           0        3.778535   -4.351331   -1.642405
     48          6           0        4.356243   -2.976796   -2.043024
     49          6           0        5.541715   -2.452134   -1.694683
     50          6           0        6.436139   -2.987607   -0.631948
     51          6           0        5.831715   -1.071970   -2.242030
     52          6           0        6.374269   -1.131594   -3.709863
     53          6           0        7.875176   -0.682724   -3.649763
     54          6           0        8.171343    0.783711   -3.918285
     55          6           0        8.301609    1.136751   -5.439911
     56          6           0        9.441812    1.182568   -3.165628
     57          6           0        9.236937    2.115691   -1.874920
     58          6           0       10.341808    1.878014   -0.816665
     59          6           0        9.797544    1.329606    0.493903
     60          6           0        9.551495   -0.135485    0.512523
     61          6           0       10.640462    1.789481    1.726835
     62          6           0        9.858884    2.561336    2.906173
     63          6           0        9.121412    1.558415    3.828293
     64          6           0        9.027303    1.868225    5.381881
     65          6           0        9.634949    0.774446    6.238467
     66          6           0        7.516358    2.096250    5.857640
     67          1           0       -0.049410    1.490531   -0.051007
     68          1           0       -5.315583    5.144773    0.005480
     69          1           0       -8.978884    0.133109    0.283356
     70          1           0       -1.201513   -2.897615    1.105227
     71          1           0        0.273843   -1.027419   -0.696635
     72          1           0        0.657672   -1.677567    2.052960
     73          1           0        0.208919   -0.155869    2.095810
     74          1           0        1.551704   -0.641042    0.935447
     75          1           0       -0.764101   -2.891225   -1.915972
     76          1           0       -1.794668   -4.027196   -1.129701
     77          1           0       -0.261010   -5.329947   -0.658554
     78          1           0        0.683471   -4.168761    0.346113
     79          1           0       -0.128146    4.943023   -1.401511
     80          1           0        0.501276    3.369556   -1.076402
     81          1           0        0.527404    4.365172    0.216753
     82          1           0       -0.913433    7.016757   -1.470546
     83          1           0       -0.635915    6.678840    0.182406
     84          1           0       -1.714840    8.025975   -0.253132
     85          1           0       -7.870771    4.722285   -0.565897
     86          1           0       -9.358473    2.457926    0.673172
     87          1           0       -7.694197    5.663658    1.605034
     88          1           0       -6.910128    4.120602    2.132217
     89          1           0       -8.767601    4.354655    1.939100
     90          1           0       -8.577365    2.537645   -2.257906
     91          1           0       -9.737286    3.664318   -1.505309
     92          1           0      -10.094875    0.893038   -2.387868
     93          1           0      -11.308220    2.066750   -1.912099
     94          1           0      -10.548750    1.085139   -0.656370
     95          1           0       -8.943253   -3.654182    0.281625
     96          1           0       -9.365371   -2.117787   -0.415899
     97          1           0       -9.150070   -2.180759    1.337602
     98          1           0       -3.635987   -4.583161   -0.101653
     99          1           0       -0.845794   -5.985751    2.748512
    100          1           0       -2.309313   -6.451457    3.574416
    101          1           0       -1.764155   -4.736533    3.684537
    102          1           0        3.649800   -4.851124   -2.601969
    103          1           0        4.436403   -4.893441   -0.962673
    104          1           0        3.763533   -2.419804   -2.769200
    105          1           0        6.773757   -2.254834    0.101052
    106          1           0        7.285612   -3.209927   -1.278212
    107          1           0        6.136836   -3.913305   -0.140472
    108          1           0        6.533872   -0.648056   -1.524790
    109          1           0        4.875393   -0.549269   -2.220774
    110          1           0        5.778737   -0.442720   -4.308082
    111          1           0        6.290567   -2.119009   -4.163753
    112          1           0        8.345150   -1.327052   -4.392476
    113          1           0        8.340534   -1.016863   -2.723205
    114          1           0        7.358690    1.387555   -3.516511
    115          1           0        9.326374    0.985550   -5.776040
    116          1           0        8.084270    2.195315   -5.580552
    117          1           0        7.559996    0.598008   -6.030198
    118          1           0       10.058415    1.767429   -3.847826
    119          1           0       10.061917    0.338783   -2.863255
    120          1           0        8.190192    2.261836   -1.608800
    121          1           0        9.483304    3.106220   -2.257713
    122          1           0       10.869933    2.824450   -0.704270
    123          1           0       11.148192    1.236859   -1.172010
    124          1           0        8.770022    1.678196    0.590899
    125          1           0        9.693423   -0.735052   -0.386435
    126          1           0        8.490658   -0.232663    0.746876
    127          1           0       10.128579   -0.609870    1.305944
    128          1           0       11.306398    2.573523    1.366460
    129          1           0       11.303141    1.080532    2.223003
    130          1           0        9.184853    3.315632    2.501796
    131          1           0       10.645615    3.081559    3.451935
    132          1           0        9.579888    0.571297    3.764107
    133          1           0        8.139725    1.460819    3.365269
    134          1           0        9.540350    2.789813    5.655670
    135          1           0       10.013573    1.132629    7.195248
    136          1           0       10.614424    0.495674    5.848825
    137          1           0        8.985900   -0.095147    6.347166
    138          1           0        7.504443    2.973684    6.504389
    139          1           0        7.167940    1.239363    6.433601
    140          1           0        6.809304    2.286060    5.050103
 ---------------------------------------------------------------------

 SCF Done:  E(RPBE1PBE) =  -3005.36901064     A.U. after   15 cycles

 Excitation energies and oscillator strengths:

 Excited State   1:      Singlet-A      1.8913 eV  655.57 nm  f=0.3624  <S**2>=0.000
     245 -> 248        0.17029
     246 -> 247        0.69197
     246 <- 247       -0.10116
 This state for optimization and/or second-order correction.
 Total Energy, E(TD-HF/TD-DFT) =  -3005.29950845
 Copying the excited state density for this state as the 1-particle RhoCI density.

 Excited State   2:      Singlet-A      2.3300 eV  532.12 nm  f=0.0609  <S**2>=0.000
     245 -> 247        0.62524
     246 -> 248       -0.31783

 Excited State   3:      Singlet-A      3.0600 eV  405.18 nm  f=0.0036  <S**2>=0.000
     243 -> 247        0.65810
     243 -> 249        0.18029
     243 -> 250       -0.12771

 Excited State   4:      Singlet-A      3.1990 eV  387.58 nm  f=0.0297  <S**2>=0.000
     240 -> 247        0.43870
     240 -> 249       -0.13657
     241 -> 247       -0.28351
     242 -> 247        0.36146
     246 -> 248       -0.19063

 Excited State   5:      Singlet-A      3.2872 eV  377.17 nm  f=0.2627  <S**2>=0.000
     240 -> 247        0.39876
     242 -> 247       -0.23191
     245 -> 247        0.20420
     246 -> 248        0.45468
     246 -> 249        0.10344

 The electronic state is 1-A.
 Alpha  occ. eigenvalues --  -46.90503 -19.26403 -19.25481 -19.20376 -19.20271
 Alpha  occ. eigenvalues --  -19.19033 -19.18425 -14.41856 -14.40932 -14.38952
 Alpha  occ. eigenvalues --  -14.38796 -10.36339 -10.36310 -10.32137 -10.31958
 Alpha  occ. eigenvalues --  -10.29020 -10.29020 -10.28916 -10.28521 -10.28490
 Alpha  occ. eigenvalues --  -10.27898 -10.27448 -10.26507 -10.26426 -10.26413
 Alpha  occ. eigenvalues --  -10.26216 -10.26079 -10.25827 -10.25439 -10.25326
 Alpha  occ. eigenvalues --  -10.25268 -10.25206 -10.25028 -10.24920 -10.24875
 Alpha  occ. eigenvalues --  -10.24398 -10.24364 -10.24297 -10.24183 -10.24109
 Alpha  occ. eigenvalues --  -10.24024 -10.23769 -10.23731 -10.23645 -10.23563
 Alpha  occ. eigenvalues --  -10.23440 -10.23358 -10.23330 -10.23310 -10.23172
 Alpha  occ. eigenvalues --  -10.23163 -10.23107 -10.23024 -10.22857 -10.22735
 Alpha  occ. eigenvalues --  -10.22646 -10.22624 -10.22562 -10.22555 -10.22553
 Alpha  occ. eigenvalues --  -10.22528 -10.22388 -10.22379 -10.22039 -10.21990
 Alpha  occ. eigenvalues --  -10.21788  -3.13000  -1.85843  -1.85371  -1.85255
 Alpha  occ. eigenvalues --   -1.10905  -1.10859  -1.05302  -1.02775  -1.02571
 Alpha  occ. eigenvalues --   -1.01516  -1.00499  -0.99355  -0.98381  -0.97520
 Alpha  occ. eigenvalues --   -0.86705  -0.85127  -0.84428  -0.84225  -0.84076
 Alpha  occ. eigenvalues --   -0.83186  -0.82806  -0.82364  -0.82087  -0.81563
 Alpha  occ. eigenvalues --   -0.81512  -0.80241  -0.78402  -0.78309  -0.77750
 Alpha  occ. eigenvalues --   -0.76790  -0.76472  -0.76106  -0.75290  -0.74710
 Alpha  occ. eigenvalues --   -0.74464  -0.72887  -0.72655  -0.71828  -0.70626
 Alpha  occ. eigenvalues --   -0.70539  -0.69718  -0.69543  -0.69435  -0.68403
 Alpha  occ. eigenvalues --   -0.67713  -0.67033  -0.66303  -0.64984  -0.63440
 Alpha  occ. eigenvalues --   -0.63357  -0.62784  -0.62050  -0.61294  -0.60517
 Alpha  occ. eigenvalues --   -0.60175  -0.59845  -0.59546  -0.58954  -0.58413
 Alpha  occ. eigenvalues --   -0.57646  -0.57393  -0.57163  -0.56688  -0.55062
 Alpha  occ. eigenvalues --   -0.54848  -0.53901  -0.53794  -0.53594  -0.52782
 Alpha  occ. eigenvalues --   -0.52369  -0.51981  -0.51504  -0.50565  -0.49918
 Alpha  occ. eigenvalues --   -0.49895  -0.49692  -0.49447  -0.49113  -0.48726
 Alpha  occ. eigenvalues --   -0.48345  -0.48012  -0.47679  -0.47635  -0.47375
 Alpha  occ. eigenvalues --   -0.47219  -0.47163  -0.46895  -0.46722  -0.46405
 Alpha  occ. eigenvalues --   -0.46355  -0.46230  -0.45997  -0.45815  -0.45757
 Alpha  occ. eigenvalues --   -0.45341  -0.45265  -0.44850  -0.44782  -0.44405
 Alpha  occ. eigenvalues --   -0.44254  -0.44128  -0.43640  -0.43486  -0.43381
 Alpha  occ. eigenvalues --   -0.43144  -0.43002  -0.42882  -0.42720  -0.42646
 Alpha  occ. eigenvalues --   -0.42336  -0.42049  -0.41720  -0.41544  -0.41440
 Alpha  occ. eigenvalues --   -0.41254  -0.41178  -0.41052  -0.40669  -0.40588
 Alpha  occ. eigenvalues --   -0.40355  -0.40228  -0.40029  -0.39925  -0.39710
 Alpha  occ. eigenvalues --   -0.39291  -0.38893  -0.38803  -0.38693  -0.38543
 Alpha  occ. eigenvalues --   -0.38307  -0.38296  -0.38094  -0.38016  -0.37908
 Alpha  occ. eigenvalues --   -0.37801  -0.37693  -0.37603  -0.37507  -0.37136
 Alpha  occ. eigenvalues --   -0.36921  -0.36628  -0.36619  -0.36579  -0.36408
 Alpha  occ. eigenvalues --   -0.36205  -0.35971  -0.35624  -0.35487  -0.35159
 Alpha  occ. eigenvalues --   -0.35010  -0.34841  -0.34400  -0.34098  -0.34004
 Alpha  occ. eigenvalues --   -0.33819  -0.33584  -0.33416  -0.32750  -0.32571
 Alpha  occ. eigenvalues --   -0.32471  -0.32387  -0.32294  -0.32051  -0.31746
 Alpha  occ. eigenvalues --   -0.30880  -0.30598  -0.30321  -0.29732  -0.29593
 Alpha  occ. eigenvalues --   -0.29341  -0.29182  -0.28967  -0.26776  -0.26086
 Alpha  occ. eigenvalues --   -0.25759  -0.25634  -0.24890  -0.24522  -0.21025
 Alpha  occ. eigenvalues --   -0.18323
 Alpha virt. eigenvalues --   -0.10507  -0.05209  -0.03644  -0.01983  -0.00124
 Alpha virt. eigenvalues --    0.00173   0.00860   0.01225   0.01346   0.02847
 Alpha virt. eigenvalues --    0.03748   0.04364   0.04582   0.05379   0.05674

 Mulliken charges:
               1
     1  Mg   1.020160
     2  C   -0.031925
     3  C   -0.094755
     4  C   -0.043968
     5  C   -0.100996
     6  N   -0.412859
     7  C    0.053343
     8  C   -0.081954
     9  C   -0.085517
    10  C    0.067287
    11  C   -0.005102
    12  C    0.012980
    13  C   -0.007452
    14  C    0.209324
    15  O   -0.253586
    16  O   -0.375204
    17  N   -0.512651
    18  C    0.217189
    19  C   -0.153114
    20  C   -0.056241
    21  C    0.174651
    22  C    0.040660
    23  C    0.048288
    24  O   -0.236416
    25  C   -0.035739
    26  N   -0.315965
    27  C    0.008112
    28  C   -0.136304
    29  C   -0.131651
    30  C    0.086955
    31  C    0.009161
    32  C   -0.016052
    33  C   -0.030249
    34  N   -0.519655
    35  C    0.169406
    36  C   -0.243326
    37  C    0.033069
    38  C    0.143124
    39  C    0.071711
    40  C    0.136867
    41  O   -0.255586
    42  C   -0.126202
    43  C    0.306488
    44  O   -0.256956
    45  O   -0.375756
    46  C    0.118749
    47  C    0.236257
    48  C   -0.129304
    49  C   -0.228833
    50  C    0.018746
    51  C   -0.003878
    52  C   -0.016544
    53  C   -0.030286
    54  C   -0.177604
    55  C   -0.012488
    56  C   -0.016481
    57  C   -0.059560
    58  C    0.003987
    59  C   -0.177344
    60  C   -0.006666
    61  C   -0.029780
    62  C   -0.068550
    63  C    0.006864
    64  C   -0.222110
    65  C   -0.028215
    66  C   -0.031872
    67  H   -0.005835
    68  H    0.019895
    69  H    0.002938
    70  H    0.051175
    71  H    0.054786
    72  H    0.034508
    73  H    0.041738
    74  H    0.055107
    75  H    0.042485
    76  H    0.044818
    77  H    0.070863
    78  H    0.060940
    79  H    0.051854
    80  H    0.034069
    81  H    0.056224
    82  H    0.070485
    83  H    0.051033
    84  H    0.059358
    85  H    0.054420
    86  H    0.033103
    87  H    0.054966
    88  H    0.066038
    89  H    0.040802
    90  H    0.041270
    91  H    0.039748
    92  H    0.048925
    93  H    0.041229
    94  H    0.036034
    95  H    0.061559
    96  H    0.046144
    97  H    0.056351
    98  H    0.080285
    99  H    0.050322
   100  H    0.070029
   101  H    0.065003
   102  H    0.072793
   103  H    0.041473
   104  H    0.014960
   105  H    0.058002
   106  H    0.046366
   107  H    0.036858
   108  H    0.030605
   109  H    0.039931
   110  H    0.029806
   111  H    0.041188
   112  H    0.015275
   113  H    0.027063
   114  H    0.023537
   115  H    0.042013
   116  H    0.032683
   117  H    0.035215
   118  H    0.019091
   119  H    0.029979
   120  H    0.032306
   121  H    0.024890
   122  H    0.020821
   123  H    0.026273
   124  H    0.029221
   125  H    0.033391
   126  H    0.029286
   127  H    0.031094
   128  H    0.017912
   129  H    0.032474
   130  H    0.033934
   131  H    0.028541
   132  H    0.021123
   133  H    0.022474
   134  H    0.036416
   135  H    0.030146
   136  H    0.023940
   137  H    0.047539
   138  H    0.034225
   139  H    0.032944
   140  H    0.032861
 Sum of Mulliken charges =  -0.00000

 Dipole moment (field-independent basis, Debye):
    X=              5.5547    Y=              4.6254    Z=              0.5069  Tot=              7.2461
 Quadrupole moment (field-independent basis, Debye-Ang):
   XX=           -368.1858   YY=           -437.1767   ZZ=           -410.0286
   XY=            -27.7657   XZ=             10.6093   YZ=             -5.1676

 Normal termination of Gaussian 16 at Thu May  5 06:36:37 2022.
