 Gaussian 16, Revision A.03,
 Gaussian 16:  ES64L-G16RevA.03 25-Dec-2016

 --------------------------------
 #p wB97XD/Def2SVP td=(nstates=5)
 --------------------------------

 ----------------------------------------------------
 step_701_chromophore_27 TDDFT with wB97XD functional
 ----------------------------------------------------
 Symbolic Z-matrix:
 Charge =  0 Multiplicity = 1

                         Standard orientation:
 ---------------------------------------------------------------------
 Center     Atomic      Atomic             Coordinates (Angstroms)
 Number     Number       Type             X           Y           Z
 ---------------------------------------------------------------------
      1         12           0       -4.472842    0.789535   -0.232899
      2          6           0       -3.892700   -2.493051    0.366136
      3          6           0       -1.122828    1.364821   -0.209477
      4          6           0       -5.110270    4.088782   -0.184717
      5          6           0       -7.924335    0.290824    0.044333
      6          7           0       -2.773152   -0.447028   -0.029964
      7          6           0       -2.699411   -1.795045    0.085096
      8          6           0       -1.271566   -2.335180    0.174246
      9          6           0       -0.422795   -1.054670    0.142125
     10          6           0       -1.469480   -0.007694   -0.044387
     11          6           0        0.562642   -0.857747    1.341145
     12          6           0       -0.924970   -3.391781   -0.961422
     13          6           0        0.229260   -4.356538   -0.626711
     14          6           0        1.386948   -4.516104   -1.601794
     15          8           0        1.409422   -5.096546   -2.669529
     16          8           0        2.512735   -4.033274   -0.957256
     17          7           0       -3.310898    2.476872   -0.465609
     18          6           0       -1.963565    2.494041   -0.364576
     19          6           0       -1.481647    3.822646   -0.423385
     20          6           0       -2.602103    4.666192   -0.395492
     21          6           0       -3.799992    3.786313   -0.358839
     22          6           0       -0.110758    4.160609   -0.643066
     23          6           0       -2.651160    6.178190   -0.521989
     24          8           0       -3.706060    6.760979   -0.692122
     25          6           0       -1.417141    7.008170   -0.503791
     26          7           0       -6.298938    2.025440   -0.182240
     27          6           0       -6.302456    3.295869    0.006744
     28          6           0       -7.708668    3.924476    0.159135
     29          6           0       -8.600865    2.630185   -0.090861
     30          6           0       -7.557110    1.534758   -0.092962
     31          6           0       -7.752332    4.575201    1.610241
     32          6           0       -9.334228    2.651437   -1.482557
     33          6           0      -10.374965    1.595887   -1.603485
     34          7           0       -5.653403   -0.727487    0.112754
     35          6           0       -7.034762   -0.777942    0.197830
     36          6           0       -7.410944   -2.166986    0.414552
     37          6           0       -6.249418   -2.886287    0.510701
     38          6           0       -5.197400   -1.949431    0.326586
     39          6           0       -8.792733   -2.580133    0.387976
     40          6           0       -5.609244   -4.195744    0.624320
     41          8           0       -6.053628   -5.376269    0.628124
     42          6           0       -4.033310   -3.953923    0.695172
     43          6           0       -3.563533   -4.425812    2.002187
     44          8           0       -4.044569   -4.122464    3.094846
     45          8           0       -2.476380   -5.251495    1.781716
     46          6           0       -1.827571   -5.623616    3.053981
     47          6           0        3.778535   -4.351331   -1.642405
     48          6           0        4.356243   -2.976796   -2.043024
     49          6           0        5.541715   -2.452134   -1.694683
     50          6           0        6.436139   -2.987607   -0.631948
     51          6           0        5.831715   -1.071970   -2.242030
     52          6           0        6.374269   -1.131594   -3.709863
     53          6           0        7.875176   -0.682724   -3.649763
     54          6           0        8.171343    0.783711   -3.918285
     55          6           0        8.301609    1.136751   -5.439911
     56          6           0        9.441812    1.182568   -3.165628
     57          6           0        9.236937    2.115691   -1.874920
     58          6           0       10.341808    1.878014   -0.816665
     59          6           0        9.797544    1.329606    0.493903
     60          6           0        9.551495   -0.135485    0.512523
     61          6           0       10.640462    1.789481    1.726835
     62          6           0        9.858884    2.561336    2.906173
     63          6           0        9.121412    1.558415    3.828293
     64          6           0        9.027303    1.868225    5.381881
     65          6           0        9.634949    0.774446    6.238467
     66          6           0        7.516358    2.096250    5.857640
     67          1           0       -0.049410    1.490531   -0.051007
     68          1           0       -5.315583    5.144773    0.005480
     69          1           0       -8.978884    0.133109    0.283356
     70          1           0       -1.201513   -2.897615    1.105227
     71          1           0        0.273843   -1.027419   -0.696635
     72          1           0        0.657672   -1.677567    2.052960
     73          1           0        0.208919   -0.155869    2.095810
     74          1           0        1.551704   -0.641042    0.935447
     75          1           0       -0.764101   -2.891225   -1.915972
     76          1           0       -1.794668   -4.027196   -1.129701
     77          1           0       -0.261010   -5.329947   -0.658554
     78          1           0        0.683471   -4.168761    0.346113
     79          1           0       -0.128146    4.943023   -1.401511
     80          1           0        0.501276    3.369556   -1.076402
     81          1           0        0.527404    4.365172    0.216753
     82          1           0       -0.913433    7.016757   -1.470546
     83          1           0       -0.635915    6.678840    0.182406
     84          1           0       -1.714840    8.025975   -0.253132
     85          1           0       -7.870771    4.722285   -0.565897
     86          1           0       -9.358473    2.457926    0.673172
     87          1           0       -7.694197    5.663658    1.605034
     88          1           0       -6.910128    4.120602    2.132217
     89          1           0       -8.767601    4.354655    1.939100
     90          1           0       -8.577365    2.537645   -2.257906
     91          1           0       -9.737286    3.664318   -1.505309
     92          1           0      -10.094875    0.893038   -2.387868
     93          1           0      -11.308220    2.066750   -1.912099
     94          1           0      -10.548750    1.085139   -0.656370
     95          1           0       -8.943253   -3.654182    0.281625
     96          1           0       -9.365371   -2.117787   -0.415899
     97          1           0       -9.150070   -2.180759    1.337602
     98          1           0       -3.635987   -4.583161   -0.101653
     99          1           0       -0.845794   -5.985751    2.748512
    100          1           0       -2.309313   -6.451457    3.574416
    101          1           0       -1.764155   -4.736533    3.684537
    102          1           0        3.649800   -4.851124   -2.601969
    103          1           0        4.436403   -4.893441   -0.962673
    104          1           0        3.763533   -2.419804   -2.769200
    105          1           0        6.773757   -2.254834    0.101052
    106          1           0        7.285612   -3.209927   -1.278212
    107          1           0        6.136836   -3.913305   -0.140472
    108          1           0        6.533872   -0.648056   -1.524790
    109          1           0        4.875393   -0.549269   -2.220774
    110          1           0        5.778737   -0.442720   -4.308082
    111          1           0        6.290567   -2.119009   -4.163753
    112          1           0        8.345150   -1.327052   -4.392476
    113          1           0        8.340534   -1.016863   -2.723205
    114          1           0        7.358690    1.387555   -3.516511
    115          1           0        9.326374    0.985550   -5.776040
    116          1           0        8.084270    2.195315   -5.580552
    117          1           0        7.559996    0.598008   -6.030198
    118          1           0       10.058415    1.767429   -3.847826
    119          1           0       10.061917    0.338783   -2.863255
    120          1           0        8.190192    2.261836   -1.608800
    121          1           0        9.483304    3.106220   -2.257713
    122          1           0       10.869933    2.824450   -0.704270
    123          1           0       11.148192    1.236859   -1.172010
    124          1           0        8.770022    1.678196    0.590899
    125          1           0        9.693423   -0.735052   -0.386435
    126          1           0        8.490658   -0.232663    0.746876
    127          1           0       10.128579   -0.609870    1.305944
    128          1           0       11.306398    2.573523    1.366460
    129          1           0       11.303141    1.080532    2.223003
    130          1           0        9.184853    3.315632    2.501796
    131          1           0       10.645615    3.081559    3.451935
    132          1           0        9.579888    0.571297    3.764107
    133          1           0        8.139725    1.460819    3.365269
    134          1           0        9.540350    2.789813    5.655670
    135          1           0       10.013573    1.132629    7.195248
    136          1           0       10.614424    0.495674    5.848825
    137          1           0        8.985900   -0.095147    6.347166
    138          1           0        7.504443    2.973684    6.504389
    139          1           0        7.167940    1.239363    6.433601
    140          1           0        6.809304    2.286060    5.050103
 ---------------------------------------------------------------------

 SCF Done:  E(RwB97XD) =  -3007.87952550     A.U. after   19 cycles

 Excitation energies and oscillator strengths:

 Excited State   1:      Singlet-A      1.7700 eV  700.48 nm  f=0.3692  <S**2>=0.000
     245 -> 248        0.17248
     246 -> 247        0.68378
     245 <- 248        0.10692
 This state for optimization and/or second-order correction.
 Total Energy, E(TD-HF/TD-DFT) =  -3007.81447965
 Copying the excited state density for this state as the 1-particle RhoCI density.

 Excited State   2:      Singlet-A      2.2987 eV  539.36 nm  f=0.0580  <S**2>=0.000
     245 -> 247        0.60646
     246 -> 248       -0.34482

 Excited State   3:      Singlet-A      3.4605 eV  358.28 nm  f=0.5253  <S**2>=0.000
     240 -> 247        0.13283
     241 -> 247        0.33428
     245 -> 247        0.26921
     246 -> 248        0.53022

 Excited State   4:      Singlet-A      3.6456 eV  340.10 nm  f=0.0373  <S**2>=0.000
     239 -> 247       -0.14029
     241 -> 247        0.12919
     243 -> 247        0.46357
     243 -> 249       -0.28817
     243 -> 250       -0.30578
     246 -> 248       -0.11518

 Excited State   5:      Singlet-A      3.6641 eV  338.38 nm  f=0.0189  <S**2>=0.000
     239 -> 247        0.49877
     239 -> 248       -0.13043
     239 -> 249        0.32135
     239 -> 250       -0.16258
     240 -> 247        0.14416
     243 -> 247        0.13964
     243 -> 249       -0.10335

 The electronic state is 1-A.
 Alpha  occ. eigenvalues --  -46.93448 -19.30833 -19.29973 -19.25006 -19.24814
 Alpha  occ. eigenvalues --  -19.24263 -19.22812 -14.46817 -14.46204 -14.44126
 Alpha  occ. eigenvalues --  -14.43487 -10.43082 -10.42979 -10.39376 -10.38443
 Alpha  occ. eigenvalues --  -10.35584 -10.35489 -10.35438 -10.35167 -10.34726
 Alpha  occ. eigenvalues --  -10.34490 -10.34387 -10.32603 -10.32545 -10.32509
 Alpha  occ. eigenvalues --  -10.32372 -10.32154 -10.32146 -10.31944 -10.31844
 Alpha  occ. eigenvalues --  -10.31596 -10.31342 -10.31322 -10.31218 -10.31192
 Alpha  occ. eigenvalues --  -10.30980 -10.30812 -10.30645 -10.30633 -10.30330
 Alpha  occ. eigenvalues --  -10.30269 -10.30208 -10.30207 -10.30149 -10.30094
 Alpha  occ. eigenvalues --  -10.29978 -10.29891 -10.29742 -10.29714 -10.29494
 Alpha  occ. eigenvalues --  -10.29488 -10.29441 -10.29405 -10.29221 -10.29044
 Alpha  occ. eigenvalues --  -10.29037 -10.28991 -10.28950 -10.28947 -10.28929
 Alpha  occ. eigenvalues --  -10.28851 -10.28650 -10.28481 -10.28442 -10.28252
 Alpha  occ. eigenvalues --  -10.28195  -3.19759  -1.93360  -1.92890  -1.92766
 Alpha  occ. eigenvalues --   -1.18238  -1.18119  -1.13181  -1.10072  -1.09791
 Alpha  occ. eigenvalues --   -1.08642  -1.07922  -1.06659  -1.05594  -1.05092
 Alpha  occ. eigenvalues --   -0.94067  -0.92808  -0.92041  -0.91886  -0.91679
 Alpha  occ. eigenvalues --   -0.91095  -0.90494  -0.89950  -0.89655  -0.89254
 Alpha  occ. eigenvalues --   -0.88970  -0.87911  -0.86019  -0.85940  -0.85411
 Alpha  occ. eigenvalues --   -0.84534  -0.84280  -0.83794  -0.82952  -0.82404
 Alpha  occ. eigenvalues --   -0.82099  -0.80699  -0.80273  -0.79357  -0.78287
 Alpha  occ. eigenvalues --   -0.78083  -0.77435  -0.77161  -0.77125  -0.76088
 Alpha  occ. eigenvalues --   -0.75293  -0.74511  -0.73847  -0.72617  -0.71046
 Alpha  occ. eigenvalues --   -0.70869  -0.70377  -0.69664  -0.68960  -0.68071
 Alpha  occ. eigenvalues --   -0.67598  -0.67516  -0.67011  -0.66336  -0.66106
 Alpha  occ. eigenvalues --   -0.65291  -0.64903  -0.64780  -0.63988  -0.62772
 Alpha  occ. eigenvalues --   -0.62315  -0.61338  -0.61275  -0.60953  -0.60063
 Alpha  occ. eigenvalues --   -0.59741  -0.59489  -0.58944  -0.57977  -0.57306
 Alpha  occ. eigenvalues --   -0.57245  -0.57070  -0.56827  -0.56440  -0.56065
 Alpha  occ. eigenvalues --   -0.55829  -0.55492  -0.55318  -0.55090  -0.55062
 Alpha  occ. eigenvalues --   -0.54641  -0.54430  -0.54160  -0.54109  -0.53714
 Alpha  occ. eigenvalues --   -0.53606  -0.53577  -0.53421  -0.53156  -0.53047
 Alpha  occ. eigenvalues --   -0.52674  -0.52449  -0.52413  -0.52099  -0.51881
 Alpha  occ. eigenvalues --   -0.51704  -0.51379  -0.51077  -0.50810  -0.50655
 Alpha  occ. eigenvalues --   -0.50584  -0.50363  -0.50149  -0.49898  -0.49762
 Alpha  occ. eigenvalues --   -0.49639  -0.49327  -0.49048  -0.48845  -0.48807
 Alpha  occ. eigenvalues --   -0.48485  -0.48423  -0.48225  -0.47883  -0.47827
 Alpha  occ. eigenvalues --   -0.47505  -0.47306  -0.47262  -0.47113  -0.46748
 Alpha  occ. eigenvalues --   -0.46407  -0.46044  -0.45923  -0.45882  -0.45636
 Alpha  occ. eigenvalues --   -0.45472  -0.45393  -0.45279  -0.45221  -0.45108
 Alpha  occ. eigenvalues --   -0.44947  -0.44863  -0.44611  -0.44538  -0.44350
 Alpha  occ. eigenvalues --   -0.44302  -0.43764  -0.43677  -0.43560  -0.43445
 Alpha  occ. eigenvalues --   -0.43205  -0.43013  -0.42670  -0.42455  -0.42161
 Alpha  occ. eigenvalues --   -0.42079  -0.41913  -0.41490  -0.41026  -0.40986
 Alpha  occ. eigenvalues --   -0.40889  -0.40647  -0.40487  -0.39801  -0.39535
 Alpha  occ. eigenvalues --   -0.39488  -0.39264  -0.39250  -0.39100  -0.38757
 Alpha  occ. eigenvalues --   -0.37872  -0.37571  -0.37308  -0.36593  -0.36558
 Alpha  occ. eigenvalues --   -0.36338  -0.36035  -0.35650  -0.33622  -0.33481
 Alpha  occ. eigenvalues --   -0.32540  -0.31844  -0.31633  -0.31236  -0.26185
 Alpha  occ. eigenvalues --   -0.22551
 Alpha virt. eigenvalues --   -0.06197   0.00218   0.02591   0.04603   0.06672
 Alpha virt. eigenvalues --    0.06799   0.07157   0.07862   0.07904   0.09098
 Alpha virt. eigenvalues --    0.10301   0.10977   0.11507   0.12108   0.12322

 Mulliken charges:
               1
     1  Mg   1.006611
     2  C   -0.039426
     3  C   -0.125437
     4  C   -0.062503
     5  C   -0.115845
     6  N   -0.380273
     7  C    0.018677
     8  C   -0.047079
     9  C   -0.065243
    10  C    0.063034
    11  C    0.002021
    12  C    0.023437
    13  C    0.010571
    14  C    0.196490
    15  O   -0.251130
    16  O   -0.376169
    17  N   -0.481694
    18  C    0.220113
    19  C   -0.136831
    20  C   -0.047973
    21  C    0.173216
    22  C    0.049208
    23  C    0.044279
    24  O   -0.228519
    25  C   -0.027275
    26  N   -0.276852
    27  C   -0.000607
    28  C   -0.116901
    29  C   -0.100347
    30  C    0.071324
    31  C    0.019048
    32  C   -0.004612
    33  C   -0.014327
    34  N   -0.476948
    35  C    0.150121
    36  C   -0.231393
    37  C    0.030787
    38  C    0.125624
    39  C    0.079801
    40  C    0.116564
    41  O   -0.250164
    42  C   -0.084142
    43  C    0.283456
    44  O   -0.252699
    45  O   -0.375152
    46  C    0.133894
    47  C    0.253145
    48  C   -0.141976
    49  C   -0.214807
    50  C    0.036512
    51  C    0.021914
    52  C   -0.005311
    53  C   -0.005937
    54  C   -0.150649
    55  C    0.001005
    56  C   -0.000135
    57  C   -0.045278
    58  C    0.019067
    59  C   -0.146799
    60  C    0.003510
    61  C   -0.012308
    62  C   -0.050693
    63  C    0.020782
    64  C   -0.195396
    65  C   -0.015316
    66  C   -0.019524
    67  H   -0.014028
    68  H    0.015507
    69  H   -0.006661
    70  H    0.031505
    71  H    0.045865
    72  H    0.030496
    73  H    0.036008
    74  H    0.051350
    75  H    0.035631
    76  H    0.034716
    77  H    0.066360
    78  H    0.053952
    79  H    0.045669
    80  H    0.032034
    81  H    0.055671
    82  H    0.067760
    83  H    0.046424
    84  H    0.059721
    85  H    0.047086
    86  H    0.022340
    87  H    0.050287
    88  H    0.059075
    89  H    0.035988
    90  H    0.032466
    91  H    0.030012
    92  H    0.043593
    93  H    0.036134
    94  H    0.028229
    95  H    0.057994
    96  H    0.038140
    97  H    0.048769
    98  H    0.071781
    99  H    0.046526
   100  H    0.066257
   101  H    0.060194
   102  H    0.067999
   103  H    0.036687
   104  H    0.011160
   105  H    0.051658
   106  H    0.037155
   107  H    0.032148
   108  H    0.015285
   109  H    0.032597
   110  H    0.022211
   111  H    0.034029
   112  H    0.007436
   113  H    0.008275
   114  H    0.009484
   115  H    0.035568
   116  H    0.026681
   117  H    0.029185
   118  H    0.010393
   119  H    0.017994
   120  H    0.024765
   121  H    0.016480
   122  H    0.013021
   123  H    0.017787
   124  H    0.013882
   125  H    0.025835
   126  H    0.021641
   127  H    0.025034
   128  H    0.008328
   129  H    0.024039
   130  H    0.026474
   131  H    0.020307
   132  H    0.008942
   133  H    0.013182
   134  H    0.026441
   135  H    0.024743
   136  H    0.016706
   137  H    0.041368
   138  H    0.028540
   139  H    0.026391
   140  H    0.026751
 Sum of Mulliken charges =  -0.00000

 Dipole moment (field-independent basis, Debye):
    X=              6.1561    Y=              5.5989    Z=              0.4541  Tot=              8.3338
 Quadrupole moment (field-independent basis, Debye-Ang):
   XX=           -373.8755   YY=           -434.1225   ZZ=           -409.6292
   XY=            -30.9845   XZ=             10.8445   YZ=             -5.3608

 Normal termination of Gaussian 16 at Thu May  5 07:05:04 2022.
