 Gaussian 16, Revision A.03,
 Gaussian 16:  ES64L-G16RevA.03 25-Dec-2016

 --------------------
 #p ZINDO=(nstates=5)
 --------------------

 -----------------------------
 step_701_chromophore_27 ZINDO
 -----------------------------
 Symbolic Z-matrix:
 Charge =  0 Multiplicity = 1

                         Standard orientation:
 ---------------------------------------------------------------------
 Center     Atomic      Atomic             Coordinates (Angstroms)
 Number     Number       Type             X           Y           Z
 ---------------------------------------------------------------------
      1         12           0       -4.472842    0.789535   -0.232899
      2          6           0       -3.892700   -2.493051    0.366136
      3          6           0       -1.122828    1.364821   -0.209477
      4          6           0       -5.110270    4.088782   -0.184717
      5          6           0       -7.924335    0.290824    0.044333
      6          7           0       -2.773152   -0.447028   -0.029964
      7          6           0       -2.699411   -1.795045    0.085096
      8          6           0       -1.271566   -2.335180    0.174246
      9          6           0       -0.422795   -1.054670    0.142125
     10          6           0       -1.469480   -0.007694   -0.044387
     11          6           0        0.562642   -0.857747    1.341145
     12          6           0       -0.924970   -3.391781   -0.961422
     13          6           0        0.229260   -4.356538   -0.626711
     14          6           0        1.386948   -4.516104   -1.601794
     15          8           0        1.409422   -5.096546   -2.669529
     16          8           0        2.512735   -4.033274   -0.957256
     17          7           0       -3.310898    2.476872   -0.465609
     18          6           0       -1.963565    2.494041   -0.364576
     19          6           0       -1.481647    3.822646   -0.423385
     20          6           0       -2.602103    4.666192   -0.395492
     21          6           0       -3.799992    3.786313   -0.358839
     22          6           0       -0.110758    4.160609   -0.643066
     23          6           0       -2.651160    6.178190   -0.521989
     24          8           0       -3.706060    6.760979   -0.692122
     25          6           0       -1.417141    7.008170   -0.503791
     26          7           0       -6.298938    2.025440   -0.182240
     27          6           0       -6.302456    3.295869    0.006744
     28          6           0       -7.708668    3.924476    0.159135
     29          6           0       -8.600865    2.630185   -0.090861
     30          6           0       -7.557110    1.534758   -0.092962
     31          6           0       -7.752332    4.575201    1.610241
     32          6           0       -9.334228    2.651437   -1.482557
     33          6           0      -10.374965    1.595887   -1.603485
     34          7           0       -5.653403   -0.727487    0.112754
     35          6           0       -7.034762   -0.777942    0.197830
     36          6           0       -7.410944   -2.166986    0.414552
     37          6           0       -6.249418   -2.886287    0.510701
     38          6           0       -5.197400   -1.949431    0.326586
     39          6           0       -8.792733   -2.580133    0.387976
     40          6           0       -5.609244   -4.195744    0.624320
     41          8           0       -6.053628   -5.376269    0.628124
     42          6           0       -4.033310   -3.953923    0.695172
     43          6           0       -3.563533   -4.425812    2.002187
     44          8           0       -4.044569   -4.122464    3.094846
     45          8           0       -2.476380   -5.251495    1.781716
     46          6           0       -1.827571   -5.623616    3.053981
     47          6           0        3.778535   -4.351331   -1.642405
     48          6           0        4.356243   -2.976796   -2.043024
     49          6           0        5.541715   -2.452134   -1.694683
     50          6           0        6.436139   -2.987607   -0.631948
     51          6           0        5.831715   -1.071970   -2.242030
     52          6           0        6.374269   -1.131594   -3.709863
     53          6           0        7.875176   -0.682724   -3.649763
     54          6           0        8.171343    0.783711   -3.918285
     55          6           0        8.301609    1.136751   -5.439911
     56          6           0        9.441812    1.182568   -3.165628
     57          6           0        9.236937    2.115691   -1.874920
     58          6           0       10.341808    1.878014   -0.816665
     59          6           0        9.797544    1.329606    0.493903
     60          6           0        9.551495   -0.135485    0.512523
     61          6           0       10.640462    1.789481    1.726835
     62          6           0        9.858884    2.561336    2.906173
     63          6           0        9.121412    1.558415    3.828293
     64          6           0        9.027303    1.868225    5.381881
     65          6           0        9.634949    0.774446    6.238467
     66          6           0        7.516358    2.096250    5.857640
     67          1           0       -0.049410    1.490531   -0.051007
     68          1           0       -5.315583    5.144773    0.005480
     69          1           0       -8.978884    0.133109    0.283356
     70          1           0       -1.201513   -2.897615    1.105227
     71          1           0        0.273843   -1.027419   -0.696635
     72          1           0        0.657672   -1.677567    2.052960
     73          1           0        0.208919   -0.155869    2.095810
     74          1           0        1.551704   -0.641042    0.935447
     75          1           0       -0.764101   -2.891225   -1.915972
     76          1           0       -1.794668   -4.027196   -1.129701
     77          1           0       -0.261010   -5.329947   -0.658554
     78          1           0        0.683471   -4.168761    0.346113
     79          1           0       -0.128146    4.943023   -1.401511
     80          1           0        0.501276    3.369556   -1.076402
     81          1           0        0.527404    4.365172    0.216753
     82          1           0       -0.913433    7.016757   -1.470546
     83          1           0       -0.635915    6.678840    0.182406
     84          1           0       -1.714840    8.025975   -0.253132
     85          1           0       -7.870771    4.722285   -0.565897
     86          1           0       -9.358473    2.457926    0.673172
     87          1           0       -7.694197    5.663658    1.605034
     88          1           0       -6.910128    4.120602    2.132217
     89          1           0       -8.767601    4.354655    1.939100
     90          1           0       -8.577365    2.537645   -2.257906
     91          1           0       -9.737286    3.664318   -1.505309
     92          1           0      -10.094875    0.893038   -2.387868
     93          1           0      -11.308220    2.066750   -1.912099
     94          1           0      -10.548750    1.085139   -0.656370
     95          1           0       -8.943253   -3.654182    0.281625
     96          1           0       -9.365371   -2.117787   -0.415899
     97          1           0       -9.150070   -2.180759    1.337602
     98          1           0       -3.635987   -4.583161   -0.101653
     99          1           0       -0.845794   -5.985751    2.748512
    100          1           0       -2.309313   -6.451457    3.574416
    101          1           0       -1.764155   -4.736533    3.684537
    102          1           0        3.649800   -4.851124   -2.601969
    103          1           0        4.436403   -4.893441   -0.962673
    104          1           0        3.763533   -2.419804   -2.769200
    105          1           0        6.773757   -2.254834    0.101052
    106          1           0        7.285612   -3.209927   -1.278212
    107          1           0        6.136836   -3.913305   -0.140472
    108          1           0        6.533872   -0.648056   -1.524790
    109          1           0        4.875393   -0.549269   -2.220774
    110          1           0        5.778737   -0.442720   -4.308082
    111          1           0        6.290567   -2.119009   -4.163753
    112          1           0        8.345150   -1.327052   -4.392476
    113          1           0        8.340534   -1.016863   -2.723205
    114          1           0        7.358690    1.387555   -3.516511
    115          1           0        9.326374    0.985550   -5.776040
    116          1           0        8.084270    2.195315   -5.580552
    117          1           0        7.559996    0.598008   -6.030198
    118          1           0       10.058415    1.767429   -3.847826
    119          1           0       10.061917    0.338783   -2.863255
    120          1           0        8.190192    2.261836   -1.608800
    121          1           0        9.483304    3.106220   -2.257713
    122          1           0       10.869933    2.824450   -0.704270
    123          1           0       11.148192    1.236859   -1.172010
    124          1           0        8.770022    1.678196    0.590899
    125          1           0        9.693423   -0.735052   -0.386435
    126          1           0        8.490658   -0.232663    0.746876
    127          1           0       10.128579   -0.609870    1.305944
    128          1           0       11.306398    2.573523    1.366460
    129          1           0       11.303141    1.080532    2.223003
    130          1           0        9.184853    3.315632    2.501796
    131          1           0       10.645615    3.081559    3.451935
    132          1           0        9.579888    0.571297    3.764107
    133          1           0        8.139725    1.460819    3.365269
    134          1           0        9.540350    2.789813    5.655670
    135          1           0       10.013573    1.132629    7.195248
    136          1           0       10.614424    0.495674    5.848825
    137          1           0        8.985900   -0.095147    6.347166
    138          1           0        7.504443    2.973684    6.504389
    139          1           0        7.167940    1.239363    6.433601
    140          1           0        6.809304    2.286060    5.050103
 ---------------------------------------------------------------------

 SCF Done:  E(RZINDO/S) =  -474.686413644     A.U. after   19 cycles

 Excitation energies and oscillator strengths:

 Excited State   1:      Singlet-A      1.3713 eV  904.14 nm  f=0.5222  <S**2>=0.000
     175 ->178         0.15849
     176 ->177         0.67262
 This state for optimization and/or second-order correction.
 Total Energy, E(CIS/TDA) =  -474.636019725
 Copying the excited state density for this state as the 1-particle RhoCI density.

 Excited State   2:      Singlet-A      1.9803 eV  626.07 nm  f=0.0139  <S**2>=0.000
     175 ->177         0.49271
     176 ->178        -0.47760

 Excited State   3:      Singlet-A      2.9354 eV  422.37 nm  f=0.0291  <S**2>=0.000
     167 ->177        -0.12969
     167 ->179         0.16834
     168 ->177        -0.32746
     168 ->179         0.38233
     168 ->180        -0.21464
     168 ->185         0.21825
     176 ->179         0.11576

 Excited State   4:      Singlet-A      2.9883 eV  414.90 nm  f=0.5217  <S**2>=0.000
     175 ->177        -0.30471
     176 ->178        -0.30902
     176 ->179         0.42269
     176 ->180         0.28088
     176 ->182         0.13235

 Excited State   5:      Singlet-A      3.0393 eV  407.94 nm  f=0.7134  <S**2>=0.000
     170 ->177        -0.11678
     175 ->177         0.31544
     176 ->178         0.35859
     176 ->179         0.38549
     176 ->180         0.12758

 The electronic state is 1-A.
 Alpha  occ. eigenvalues --   -1.86652  -1.83783  -1.82746  -1.73802  -1.72566
 Alpha  occ. eigenvalues --   -1.72245  -1.65183  -1.61154  -1.60640  -1.56987
 Alpha  occ. eigenvalues --   -1.54814  -1.51919  -1.50041  -1.48471  -1.46109
 Alpha  occ. eigenvalues --   -1.44680  -1.44381  -1.43355  -1.40653  -1.38862
 Alpha  occ. eigenvalues --   -1.36870  -1.35621  -1.33547  -1.32424  -1.29962
 Alpha  occ. eigenvalues --   -1.27670  -1.26075  -1.23190  -1.21793  -1.18820
 Alpha  occ. eigenvalues --   -1.18234  -1.16507  -1.15893  -1.15090  -1.14750
 Alpha  occ. eigenvalues --   -1.12540  -1.11027  -1.10240  -1.04259  -1.04202
 Alpha  occ. eigenvalues --   -1.02745  -1.01151  -0.99908  -0.97921  -0.97590
 Alpha  occ. eigenvalues --   -0.96113  -0.95029  -0.94470  -0.93620  -0.92808
 Alpha  occ. eigenvalues --   -0.90121  -0.90085  -0.89639  -0.89055  -0.87760
 Alpha  occ. eigenvalues --   -0.86106  -0.83626  -0.83196  -0.82232  -0.80364
 Alpha  occ. eigenvalues --   -0.80001  -0.79398  -0.77716  -0.77056  -0.76028
 Alpha  occ. eigenvalues --   -0.75668  -0.75383  -0.75118  -0.74573  -0.74027
 Alpha  occ. eigenvalues --   -0.73485  -0.73156  -0.72173  -0.72033  -0.71375
 Alpha  occ. eigenvalues --   -0.71037  -0.70263  -0.69536  -0.69273  -0.68842
 Alpha  occ. eigenvalues --   -0.67552  -0.67376  -0.66964  -0.66621  -0.66493
 Alpha  occ. eigenvalues --   -0.65628  -0.65494  -0.65135  -0.64419  -0.63724
 Alpha  occ. eigenvalues --   -0.63490  -0.62887  -0.62699  -0.62296  -0.61882
 Alpha  occ. eigenvalues --   -0.61459  -0.61226  -0.60761  -0.60441  -0.60269
 Alpha  occ. eigenvalues --   -0.59841  -0.59594  -0.58763  -0.58238  -0.58110
 Alpha  occ. eigenvalues --   -0.57804  -0.57578  -0.57096  -0.56540  -0.56284
 Alpha  occ. eigenvalues --   -0.55945  -0.55712  -0.55223  -0.55060  -0.54815
 Alpha  occ. eigenvalues --   -0.54477  -0.54140  -0.53606  -0.53050  -0.52810
 Alpha  occ. eigenvalues --   -0.52694  -0.52501  -0.52309  -0.52047  -0.51792
 Alpha  occ. eigenvalues --   -0.51569  -0.51142  -0.50739  -0.50719  -0.50530
 Alpha  occ. eigenvalues --   -0.49818  -0.49580  -0.49469  -0.49352  -0.49028
 Alpha  occ. eigenvalues --   -0.48598  -0.48539  -0.48173  -0.48025  -0.47989
 Alpha  occ. eigenvalues --   -0.47879  -0.47629  -0.47281  -0.47199  -0.46859
 Alpha  occ. eigenvalues --   -0.46479  -0.46286  -0.46127  -0.45888  -0.45707
 Alpha  occ. eigenvalues --   -0.45640  -0.45423  -0.45095  -0.44351  -0.44297
 Alpha  occ. eigenvalues --   -0.43800  -0.43432  -0.42822  -0.42334  -0.42029
 Alpha  occ. eigenvalues --   -0.41629  -0.41544  -0.41438  -0.39438  -0.39176
 Alpha  occ. eigenvalues --   -0.38370  -0.37081  -0.36278  -0.35188  -0.34120
 Alpha  occ. eigenvalues --   -0.33929  -0.32490  -0.31817  -0.31709  -0.27051
 Alpha  occ. eigenvalues --   -0.21681
 Alpha virt. eigenvalues --   -0.07792  -0.02112  -0.00547   0.01294   0.01699
 Alpha virt. eigenvalues --    0.02866   0.03128   0.03310   0.04470   0.04909
 Alpha virt. eigenvalues --    0.06465   0.06736   0.07121   0.07594   0.08138

 Mulliken charges:
               1
     1  Mg   0.424810
     2  C   -0.042712
     3  C   -0.120456
     4  C   -0.059997
     5  C   -0.046070
     6  N   -0.283119
     7  C    0.084799
     8  C    0.006652
     9  C    0.015696
    10  C    0.167130
    11  C   -0.057012
    12  C   -0.021472
    13  C    0.002697
    14  C    0.466897
    15  O   -0.507258
    16  O   -0.274194
    17  N   -0.342356
    18  C    0.161917
    19  C    0.043076
    20  C   -0.036072
    21  C    0.139822
    22  C   -0.039967
    23  C    0.332512
    24  O   -0.512934
    25  C   -0.027496
    26  N   -0.244660
    27  C    0.182710
    28  C   -0.009196
    29  C   -0.009583
    30  C    0.087296
    31  C   -0.057216
    32  C   -0.023950
    33  C   -0.051583
    34  N   -0.297988
    35  C    0.031608
    36  C    0.030906
    37  C   -0.061887
    38  C    0.105043
    39  C   -0.037037
    40  C    0.325171
    41  O   -0.548661
    42  C    0.053293
    43  C    0.498085
    44  O   -0.516811
    45  O   -0.272938
    46  C    0.073145
    47  C    0.094014
    48  C   -0.103273
    49  C   -0.006036
    50  C   -0.043141
    51  C   -0.026077
    52  C   -0.033030
    53  C   -0.032480
    54  C   -0.002645
    55  C   -0.056286
    56  C   -0.040539
    57  C   -0.050913
    58  C   -0.022884
    59  C    0.002571
    60  C   -0.053548
    61  C   -0.044842
    62  C   -0.038446
    63  C   -0.034490
    64  C   -0.011438
    65  C   -0.054575
    66  C   -0.064288
    67  H    0.020497
    68  H    0.032789
    69  H    0.029939
    70  H    0.035074
    71  H    0.034933
    72  H    0.020879
    73  H    0.024312
    74  H    0.025289
    75  H    0.029550
    76  H    0.026482
    77  H    0.045155
    78  H    0.037976
    79  H    0.029155
    80  H    0.018542
    81  H    0.039627
    82  H    0.043163
    83  H    0.024470
    84  H    0.038658
    85  H    0.039137
    86  H    0.030774
    87  H    0.027074
    88  H    0.037192
    89  H    0.024396
    90  H    0.025483
    91  H    0.015087
    92  H    0.022336
    93  H    0.013746
    94  H    0.025856
    95  H    0.030393
    96  H    0.021176
    97  H    0.032347
    98  H    0.049704
    99  H    0.021654
   100  H    0.051501
   101  H    0.048331
   102  H    0.061810
   103  H    0.043225
   104  H    0.029012
   105  H    0.029866
   106  H    0.025752
   107  H    0.026856
   108  H    0.022756
   109  H    0.022176
   110  H    0.020082
   111  H    0.028272
   112  H    0.007419
   113  H    0.018783
   114  H    0.019181
   115  H    0.025655
   116  H    0.012858
   117  H    0.019487
   118  H    0.012886
   119  H    0.022021
   120  H    0.035577
   121  H    0.003690
   122  H    0.013806
   123  H    0.020567
   124  H    0.018232
   125  H    0.019391
   126  H    0.009045
   127  H    0.016535
   128  H    0.004249
   129  H    0.029128
   130  H    0.023551
   131  H    0.015427
   132  H    0.018473
   133  H    0.016375
   134  H    0.022805
   135  H    0.015329
   136  H    0.007217
   137  H    0.027039
   138  H    0.014755
   139  H    0.020830
   140  H    0.018909
 Sum of Mulliken charges =  -0.00000

 Dipole moment (field-independent basis, Debye):
    X=              9.3827    Y=              8.5177    Z=              1.0782  Tot=             12.7180
 N-N= 4.420239387176D+03 E-N= 0.000000000000D+00  KE=-9.514390689797D+03
 Leave Link  601 at Thu May  5 07:16:47 2022, MaxMem=  6710886400 cpu:               0.8 elap:               0.0
 (Enter /sw/apps/gaussian-16.0/g16/l9999.exe)
 1\1\GINC-BP1-COMPUTE168\SP\RZINDO CIS\STO-3G\C55H74Mg1N4O6\OF15641\05-
 May-2022\0\\#p ZINDO=(nstates=5)\\step_701_chromophore_27 ZINDO\\0,1\M
 g,0,-5.194,24.464,27.316\C,0,-3.83,26.48,29.671\C,0,-6.493,22.507,29.7
 73\C,0,-5.97,22.172,24.984\C,0,-3.618,26.273,24.77\N,0,-5.204,24.57,29
 .425\C,0,-4.704,25.53,30.24\C,0,-4.941,25.269,31.728\C,0,-5.66,23.911,
 31.723\C,0,-5.798,23.652,30.26\C,0,-4.994,22.782,32.577\C,0,-5.734,26.
 439,32.455\C,0,-5.527,26.52,33.98\C,0,-6.735,26.56,34.905\O,0,-7.507,2

 Normal termination of Gaussian 16 at Thu May  5 07:16:48 2022.
