 Gaussian 16, Revision A.03,
 Gaussian 16:  ES64L-G16RevA.03 25-Dec-2016

 ------------------------------
 #p blyp/Def2SVP td=(nstates=5)
 ------------------------------

 ---------------------------------------------------
 step_1501_chromophore_27 TDDFT with blyp functional
 ---------------------------------------------------
 Symbolic Z-matrix:
 Charge =  0 Multiplicity = 1

                         Standard orientation:
 ---------------------------------------------------------------------
 Center     Atomic      Atomic             Coordinates (Angstroms)
 Number     Number       Type             X           Y           Z
 ---------------------------------------------------------------------
      1         12           0       -4.577619    0.705953    0.115981
      2          6           0       -4.059630   -2.588443    0.384083
      3          6           0       -1.163737    1.288630    0.043680
      4          6           0       -5.178871    4.136469   -0.165998
      5          6           0       -8.052584    0.320321    0.588534
      6          7           0       -2.842657   -0.516522    0.429130
      7          6           0       -2.877047   -1.887876    0.307874
      8          6           0       -1.408727   -2.427330    0.166601
      9          6           0       -0.577614   -1.201336    0.587853
     10          6           0       -1.586075   -0.011352    0.306950
     11          6           0       -0.212311   -1.197156    2.066176
     12          6           0       -1.120599   -2.841183   -1.319653
     13          6           0       -0.165310   -4.087055   -1.494375
     14          6           0        1.115697   -3.836771   -2.118433
     15          8           0        1.421046   -4.094000   -3.277943
     16          8           0        1.958326   -3.351529   -1.221452
     17          7           0       -3.323570    2.453982   -0.159050
     18          6           0       -1.983748    2.445582   -0.187221
     19          6           0       -1.461086    3.763234   -0.328323
     20          6           0       -2.577526    4.637969   -0.438312
     21          6           0       -3.807142    3.763069   -0.249193
     22          6           0       -0.005787    4.175438   -0.283677
     23          6           0       -2.577792    6.147640   -0.662018
     24          8           0       -3.593735    6.773471   -0.575671
     25          6           0       -1.265388    6.886841   -0.937728
     26          7           0       -6.399302    2.061949    0.187291
     27          6           0       -6.351673    3.394950   -0.080183
     28          6           0       -7.749678    4.046326    0.017870
     29          6           0       -8.664667    2.804274    0.290837
     30          6           0       -7.660240    1.630718    0.359291
     31          6           0       -7.904728    5.199362    1.145575
     32          6           0       -9.864554    2.570113   -0.623420
     33          6           0       -9.461245    2.285405   -2.076739
     34          7           0       -5.887858   -0.836339    0.400790
     35          6           0       -7.288799   -0.861783    0.667425
     36          6           0       -7.650538   -2.223447    0.792691
     37          6           0       -6.449970   -2.981698    0.614797
     38          6           0       -5.417402   -2.047626    0.446525
     39          6           0       -9.089891   -2.649017    0.938524
     40          6           0       -5.791094   -4.259456    0.451931
     41          8           0       -6.252428   -5.375009    0.349920
     42          6           0       -4.241157   -4.060613    0.308138
     43          6           0       -3.520143   -4.701423    1.395517
     44          8           0       -3.322355   -4.217998    2.503694
     45          8           0       -3.068677   -5.953454    0.958752
     46          6           0       -2.074544   -6.581240    1.899495
     47          6           0        3.411430   -3.583498   -1.417270
     48          6           0        4.151989   -2.422470   -1.974155
     49          6           0        5.386152   -1.969139   -1.718830
     50          6           0        6.294460   -2.700148   -0.742472
     51          6           0        5.890622   -0.635173   -2.245109
     52          6           0        6.596378   -0.793223   -3.602317
     53          6           0        8.134992   -0.480273   -3.585097
     54          6           0        8.592816    0.891005   -4.144253
     55          6           0        8.938101    0.722567   -5.635261
     56          6           0        9.825812    1.430217   -3.349847
     57          6           0        9.501466    2.005183   -1.969139
     58          6           0       10.312977    1.241308   -0.853630
     59          6           0        9.549209    1.110917    0.483072
     60          6           0        8.911156   -0.269856    0.596325
     61          6           0       10.500992    1.404643    1.645568
     62          6           0        9.646522    1.986186    2.897670
     63          6           0        9.411729    0.982922    4.125568
     64          6           0       10.122809    1.534393    5.471407
     65          6           0       11.215860    0.567572    5.903654
     66          6           0        8.979045    1.618421    6.524750
     67          1           0       -0.081319    1.421706    0.098171
     68          1           0       -5.316861    5.216803   -0.229748
     69          1           0       -9.116388    0.099946    0.706421
     70          1           0       -1.354948   -3.278574    0.845415
     71          1           0        0.260458   -1.224438   -0.107324
     72          1           0       -0.130922   -0.175775    2.439167
     73          1           0        0.703021   -1.744348    2.288526
     74          1           0       -1.036974   -1.741959    2.525963
     75          1           0       -0.851339   -1.958906   -1.900426
     76          1           0       -2.034816   -3.232390   -1.765663
     77          1           0       -0.679719   -4.925482   -1.963661
     78          1           0        0.024101   -4.561744   -0.532049
     79          1           0        0.175149    4.558874   -1.287829
     80          1           0        0.661797    3.361991    0.001453
     81          1           0        0.229897    4.954271    0.441097
     82          1           0       -1.519111    7.931517   -1.118852
     83          1           0       -0.804142    6.424442   -1.809059
     84          1           0       -0.658835    6.812665   -0.034994
     85          1           0       -7.927363    4.466082   -0.972701
     86          1           0       -9.032922    2.773164    1.316056
     87          1           0       -6.951443    5.233802    1.672219
     88          1           0       -8.734586    4.943353    1.804884
     89          1           0       -8.101396    6.162373    0.674182
     90          1           0      -10.294819    3.571534   -0.617362
     91          1           0      -10.632232    1.936550   -0.178747
     92          1           0       -9.395422    1.211550   -2.251476
     93          1           0       -8.432650    2.564007   -2.302907
     94          1           0      -10.167228    2.801702   -2.727831
     95          1           0       -9.565228   -2.342554    1.870322
     96          1           0       -9.082469   -3.724291    0.760145
     97          1           0       -9.762362   -2.110767    0.271430
     98          1           0       -3.901497   -4.532474   -0.614457
     99          1           0       -1.397703   -5.829916    2.305428
    100          1           0       -1.571294   -7.360663    1.327390
    101          1           0       -2.533193   -7.008978    2.790964
    102          1           0        3.646748   -4.575623   -1.803907
    103          1           0        3.761856   -3.653314   -0.387396
    104          1           0        3.508147   -1.732264   -2.521434
    105          1           0        7.051558   -3.149723   -1.384891
    106          1           0        5.925025   -3.563218   -0.188845
    107          1           0        6.789149   -1.992803   -0.076674
    108          1           0        6.541644   -0.199201   -1.486779
    109          1           0        5.069595    0.061600   -2.415777
    110          1           0        6.086877   -0.147561   -4.317507
    111          1           0        6.380240   -1.840503   -3.813524
    112          1           0        8.659426   -1.300015   -4.077285
    113          1           0        8.542008   -0.554884   -2.576960
    114          1           0        7.718660    1.541087   -4.097721
    115          1           0        8.554881    1.621916   -6.117039
    116          1           0        8.340674   -0.127337   -5.963499
    117          1           0        9.996915    0.556576   -5.835888
    118          1           0       10.239551    2.322417   -3.819911
    119          1           0       10.645452    0.711643   -3.373039
    120          1           0        8.433937    2.104476   -1.776027
    121          1           0        9.725087    3.071266   -2.017059
    122          1           0       11.131416    1.949640   -0.731206
    123          1           0       10.705625    0.259098   -1.117903
    124          1           0        8.741381    1.839563    0.418082
    125          1           0        8.978874   -0.787515   -0.360114
    126          1           0        7.844285   -0.240661    0.813884
    127          1           0        9.353249   -0.934236    1.339585
    128          1           0       11.167918    2.184051    1.276157
    129          1           0       11.110380    0.542596    1.918814
    130          1           0        8.632119    2.242742    2.591375
    131          1           0       10.108299    2.908069    3.253108
    132          1           0        9.689238   -0.054187    3.937683
    133          1           0        8.331195    0.874347    4.222434
    134          1           0       10.528382    2.517258    5.229300
    135          1           0       11.740261   -0.074121    5.196272
    136          1           0       10.898415   -0.095407    6.707620
    137          1           0       12.025733    1.153802    6.339261
    138          1           0        9.242662    1.309790    7.536394
    139          1           0        8.160310    0.908305    6.407198
    140          1           0        8.601803    2.625943    6.697404
 ---------------------------------------------------------------------

 SCF Done:  E(RB-LYP) =  -3007.38694781     A.U. after   21 cycles

 Excitation energies and oscillator strengths:

 Excited State   1:      Singlet-A      1.8132 eV  683.77 nm  f=0.0411  <S**2>=0.000
     244 -> 247        0.63283
     245 -> 247        0.16429
     246 -> 247        0.26182
 This state for optimization and/or second-order correction.
 Total Energy, E(TD-HF/TD-DFT) =  -3007.32031261
 Copying the excited state density for this state as the 1-particle RhoCI density.

 Excited State   2:      Singlet-A      1.8367 eV  675.05 nm  f=0.2680  <S**2>=0.000
     244 -> 247       -0.26369
     245 -> 248        0.17099
     246 -> 247        0.63801
     246 <- 247       -0.13893

 Excited State   3:      Singlet-A      1.9608 eV  632.33 nm  f=0.0051  <S**2>=0.000
     243 -> 247        0.68938
     245 -> 247       -0.13663

 Excited State   4:      Singlet-A      2.0167 eV  614.79 nm  f=0.0994  <S**2>=0.000
     243 -> 247        0.14984
     244 -> 247       -0.16214
     245 -> 247        0.62532
     246 -> 248       -0.20669

 Excited State   5:      Singlet-A      2.2639 eV  547.66 nm  f=0.0002  <S**2>=0.000
     242 -> 247        0.70618

 The electronic state is 1-A.
 Alpha  occ. eigenvalues --  -46.27535 -18.82197 -18.81969 -18.76961 -18.75928
 Alpha  occ. eigenvalues --  -18.75677 -18.75148 -14.03203 -14.03109 -14.01470
 Alpha  occ. eigenvalues --  -14.00405 -10.03550 -10.03232  -9.99987  -9.99440
 Alpha  occ. eigenvalues --   -9.98649  -9.97794  -9.96649  -9.96629  -9.96508
 Alpha  occ. eigenvalues --   -9.96430  -9.96147  -9.95792  -9.95178  -9.94516
 Alpha  occ. eigenvalues --   -9.94298  -9.94109  -9.94057  -9.93843  -9.93801
 Alpha  occ. eigenvalues --   -9.93538  -9.93507  -9.93438  -9.93425  -9.93199
 Alpha  occ. eigenvalues --   -9.93148  -9.93076  -9.93026  -9.93015  -9.92924
 Alpha  occ. eigenvalues --   -9.92903  -9.92866  -9.92684  -9.92499  -9.92481
 Alpha  occ. eigenvalues --   -9.92321  -9.92267  -9.92095  -9.92093  -9.91892
 Alpha  occ. eigenvalues --   -9.91857  -9.91827  -9.91743  -9.91657  -9.91612
 Alpha  occ. eigenvalues --   -9.91482  -9.91443  -9.91296  -9.91279  -9.91194
 Alpha  occ. eigenvalues --   -9.91188  -9.91124  -9.91069  -9.90945  -9.90822
 Alpha  occ. eigenvalues --   -9.90655  -2.92012  -1.72459  -1.71879  -1.71728
 Alpha  occ. eigenvalues --   -0.98835  -0.96538  -0.93291  -0.91546  -0.89369
 Alpha  occ. eigenvalues --   -0.89179  -0.86616  -0.85928  -0.85668  -0.84888
 Alpha  occ. eigenvalues --   -0.75571  -0.74098  -0.73146  -0.72717  -0.72477
 Alpha  occ. eigenvalues --   -0.71782  -0.71621  -0.70727  -0.70669  -0.70510
 Alpha  occ. eigenvalues --   -0.69974  -0.69751  -0.68153  -0.67504  -0.66990
 Alpha  occ. eigenvalues --   -0.66432  -0.65742  -0.65225  -0.64983  -0.64545
 Alpha  occ. eigenvalues --   -0.64254  -0.62733  -0.62424  -0.61653  -0.60852
 Alpha  occ. eigenvalues --   -0.60585  -0.60367  -0.60102  -0.60083  -0.58681
 Alpha  occ. eigenvalues --   -0.58545  -0.58219  -0.56822  -0.56117  -0.55701
 Alpha  occ. eigenvalues --   -0.53935  -0.53626  -0.52971  -0.52655  -0.51377
 Alpha  occ. eigenvalues --   -0.51220  -0.51028  -0.50859  -0.50255  -0.50234
 Alpha  occ. eigenvalues --   -0.50116  -0.49854  -0.48968  -0.48004  -0.46957
 Alpha  occ. eigenvalues --   -0.46334  -0.45941  -0.45791  -0.44913  -0.44622
 Alpha  occ. eigenvalues --   -0.44600  -0.43850  -0.43088  -0.42781  -0.42461
 Alpha  occ. eigenvalues --   -0.42185  -0.41761  -0.41709  -0.41347  -0.41092
 Alpha  occ. eigenvalues --   -0.40800  -0.40579  -0.40446  -0.40225  -0.39876
 Alpha  occ. eigenvalues --   -0.39729  -0.39696  -0.39479  -0.39431  -0.39169
 Alpha  occ. eigenvalues --   -0.38893  -0.38716  -0.38395  -0.38132  -0.38037
 Alpha  occ. eigenvalues --   -0.37911  -0.37795  -0.37537  -0.37391  -0.37332
 Alpha  occ. eigenvalues --   -0.37166  -0.36992  -0.36865  -0.36779  -0.36665
 Alpha  occ. eigenvalues --   -0.36626  -0.36570  -0.35768  -0.35714  -0.35505
 Alpha  occ. eigenvalues --   -0.35304  -0.35066  -0.34969  -0.34915  -0.34667
 Alpha  occ. eigenvalues --   -0.34635  -0.34547  -0.34391  -0.34267  -0.33903
 Alpha  occ. eigenvalues --   -0.33801  -0.33689  -0.33626  -0.33565  -0.33438
 Alpha  occ. eigenvalues --   -0.32889  -0.32726  -0.32546  -0.32319  -0.32238
 Alpha  occ. eigenvalues --   -0.32076  -0.32053  -0.31848  -0.31772  -0.31663
 Alpha  occ. eigenvalues --   -0.31477  -0.31307  -0.31280  -0.31174  -0.31085
 Alpha  occ. eigenvalues --   -0.30731  -0.30670  -0.30468  -0.30407  -0.30028
 Alpha  occ. eigenvalues --   -0.29733  -0.29610  -0.29371  -0.29151  -0.29103
 Alpha  occ. eigenvalues --   -0.28894  -0.28669  -0.28480  -0.28190  -0.28142
 Alpha  occ. eigenvalues --   -0.27867  -0.27723  -0.27366  -0.27070  -0.26859
 Alpha  occ. eigenvalues --   -0.26341  -0.26244  -0.25980  -0.25334  -0.25177
 Alpha  occ. eigenvalues --   -0.25069  -0.24921  -0.24876  -0.23745  -0.23166
 Alpha  occ. eigenvalues --   -0.22638  -0.22369  -0.22095  -0.20877  -0.20776
 Alpha  occ. eigenvalues --   -0.20380  -0.20202  -0.19009  -0.18490  -0.17330
 Alpha  occ. eigenvalues --   -0.16219
 Alpha virt. eigenvalues --   -0.11884  -0.06910  -0.05460  -0.04355  -0.03004
 Alpha virt. eigenvalues --   -0.02791  -0.01786  -0.01450  -0.01070   0.00118
 Alpha virt. eigenvalues --    0.01192   0.01766   0.02365   0.02419   0.02902

 Mulliken charges:
               1
     1  Mg   0.672346
     2  C    0.088015
     3  C   -0.063923
     4  C   -0.022885
     5  C   -0.061591
     6  N   -0.241628
     7  C   -0.091680
     8  C   -0.006095
     9  C    0.010057
    10  C    0.011528
    11  C    0.153069
    12  C    0.125141
    13  C    0.169237
    14  C    0.040699
    15  O   -0.196196
    16  O   -0.262984
    17  N   -0.251787
    18  C    0.142177
    19  C   -0.161920
    20  C    0.031801
    21  C    0.067640
    22  C    0.189399
    23  C   -0.108845
    24  O   -0.134024
    25  C    0.142103
    26  N   -0.167305
    27  C   -0.006222
    28  C    0.023293
    29  C    0.021456
    30  C    0.010956
    31  C    0.122197
    32  C    0.101024
    33  C    0.072198
    34  N   -0.287612
    35  C    0.105661
    36  C   -0.175176
    37  C    0.122534
    38  C    0.039439
    39  C    0.169552
    40  C   -0.093925
    41  O   -0.117184
    42  C    0.080043
    43  C    0.100627
    44  O   -0.185970
    45  O   -0.291897
    46  C    0.222088
    47  C    0.331850
    48  C   -0.081687
    49  C   -0.169342
    50  C    0.140011
    51  C    0.135407
    52  C    0.089793
    53  C    0.104413
    54  C   -0.071079
    55  C    0.124939
    56  C    0.096113
    57  C    0.064380
    58  C    0.099876
    59  C   -0.079781
    60  C    0.097858
    61  C    0.121064
    62  C    0.051827
    63  C    0.078829
    64  C   -0.051214
    65  C    0.104494
    66  C    0.094359
    67  H   -0.065196
    68  H   -0.044135
    69  H   -0.074807
    70  H   -0.020075
    71  H   -0.037162
    72  H   -0.011197
    73  H   -0.007955
    74  H    0.007741
    75  H   -0.005637
    76  H   -0.017481
    77  H   -0.009602
    78  H   -0.026511
    79  H    0.004352
    80  H   -0.014965
    81  H    0.000654
    82  H   -0.008828
    83  H    0.006564
    84  H    0.009558
    85  H   -0.014671
    86  H   -0.028278
    87  H    0.007576
    88  H   -0.002153
    89  H   -0.000059
    90  H   -0.030784
    91  H   -0.016195
    92  H   -0.007782
    93  H   -0.006260
    94  H    0.000914
    95  H   -0.009724
    96  H    0.017666
    97  H   -0.012965
    98  H   -0.001390
    99  H    0.010516
   100  H    0.019061
   101  H    0.015214
   102  H    0.009091
   103  H   -0.017177
   104  H   -0.040433
   105  H   -0.009552
   106  H   -0.018662
   107  H   -0.005742
   108  H   -0.031074
   109  H   -0.035236
   110  H   -0.023889
   111  H   -0.020979
   112  H   -0.044485
   113  H   -0.054132
   114  H   -0.045053
   115  H   -0.019985
   116  H   -0.020789
   117  H   -0.008998
   118  H   -0.045279
   119  H   -0.025418
   120  H   -0.034789
   121  H   -0.038944
   122  H   -0.036205
   123  H   -0.022564
   124  H   -0.038923
   125  H   -0.018522
   126  H    0.005384
   127  H   -0.021495
   128  H   -0.044105
   129  H   -0.023387
   130  H   -0.029530
   131  H   -0.025058
   132  H   -0.035307
   133  H   -0.037445
   134  H   -0.022396
   135  H   -0.015414
   136  H   -0.021616
   137  H   -0.025691
   138  H   -0.038530
   139  H   -0.016733
   140  H   -0.014484
 Sum of Mulliken charges =  -0.00000

 Dipole moment (field-independent basis, Debye):
    X=              3.7995    Y=              3.2326    Z=              1.1796  Tot=              5.1261
 Quadrupole moment (field-independent basis, Debye-Ang):
   XX=           -370.4666   YY=           -426.9292   ZZ=           -422.3970
   XY=            -25.8415   XZ=              8.5075   YZ=             -9.5481

 Normal termination of Gaussian 16 at Thu Apr 28 08:36:14 2022.
