 Gaussian 16, Revision A.03,
 Gaussian 16:  ES64L-G16RevA.03 25-Dec-2016

 -----------------------------------
 #p cam-b3lyp/Def2SVP td=(nstates=5)
 -----------------------------------

 --------------------------------------------------------
 step_1501_chromophore_27 TDDFT with cam-b3lyp functional
 --------------------------------------------------------
 Symbolic Z-matrix:
 Charge =  0 Multiplicity = 1

                         Standard orientation:
 ---------------------------------------------------------------------
 Center     Atomic      Atomic             Coordinates (Angstroms)
 Number     Number       Type             X           Y           Z
 ---------------------------------------------------------------------
      1         12           0       -4.577619    0.705953    0.115981
      2          6           0       -4.059630   -2.588443    0.384083
      3          6           0       -1.163737    1.288630    0.043680
      4          6           0       -5.178871    4.136469   -0.165998
      5          6           0       -8.052584    0.320321    0.588534
      6          7           0       -2.842657   -0.516522    0.429130
      7          6           0       -2.877047   -1.887876    0.307874
      8          6           0       -1.408727   -2.427330    0.166601
      9          6           0       -0.577614   -1.201336    0.587853
     10          6           0       -1.586075   -0.011352    0.306950
     11          6           0       -0.212311   -1.197156    2.066176
     12          6           0       -1.120599   -2.841183   -1.319653
     13          6           0       -0.165310   -4.087055   -1.494375
     14          6           0        1.115697   -3.836771   -2.118433
     15          8           0        1.421046   -4.094000   -3.277943
     16          8           0        1.958326   -3.351529   -1.221452
     17          7           0       -3.323570    2.453982   -0.159050
     18          6           0       -1.983748    2.445582   -0.187221
     19          6           0       -1.461086    3.763234   -0.328323
     20          6           0       -2.577526    4.637969   -0.438312
     21          6           0       -3.807142    3.763069   -0.249193
     22          6           0       -0.005787    4.175438   -0.283677
     23          6           0       -2.577792    6.147640   -0.662018
     24          8           0       -3.593735    6.773471   -0.575671
     25          6           0       -1.265388    6.886841   -0.937728
     26          7           0       -6.399302    2.061949    0.187291
     27          6           0       -6.351673    3.394950   -0.080183
     28          6           0       -7.749678    4.046326    0.017870
     29          6           0       -8.664667    2.804274    0.290837
     30          6           0       -7.660240    1.630718    0.359291
     31          6           0       -7.904728    5.199362    1.145575
     32          6           0       -9.864554    2.570113   -0.623420
     33          6           0       -9.461245    2.285405   -2.076739
     34          7           0       -5.887858   -0.836339    0.400790
     35          6           0       -7.288799   -0.861783    0.667425
     36          6           0       -7.650538   -2.223447    0.792691
     37          6           0       -6.449970   -2.981698    0.614797
     38          6           0       -5.417402   -2.047626    0.446525
     39          6           0       -9.089891   -2.649017    0.938524
     40          6           0       -5.791094   -4.259456    0.451931
     41          8           0       -6.252428   -5.375009    0.349920
     42          6           0       -4.241157   -4.060613    0.308138
     43          6           0       -3.520143   -4.701423    1.395517
     44          8           0       -3.322355   -4.217998    2.503694
     45          8           0       -3.068677   -5.953454    0.958752
     46          6           0       -2.074544   -6.581240    1.899495
     47          6           0        3.411430   -3.583498   -1.417270
     48          6           0        4.151989   -2.422470   -1.974155
     49          6           0        5.386152   -1.969139   -1.718830
     50          6           0        6.294460   -2.700148   -0.742472
     51          6           0        5.890622   -0.635173   -2.245109
     52          6           0        6.596378   -0.793223   -3.602317
     53          6           0        8.134992   -0.480273   -3.585097
     54          6           0        8.592816    0.891005   -4.144253
     55          6           0        8.938101    0.722567   -5.635261
     56          6           0        9.825812    1.430217   -3.349847
     57          6           0        9.501466    2.005183   -1.969139
     58          6           0       10.312977    1.241308   -0.853630
     59          6           0        9.549209    1.110917    0.483072
     60          6           0        8.911156   -0.269856    0.596325
     61          6           0       10.500992    1.404643    1.645568
     62          6           0        9.646522    1.986186    2.897670
     63          6           0        9.411729    0.982922    4.125568
     64          6           0       10.122809    1.534393    5.471407
     65          6           0       11.215860    0.567572    5.903654
     66          6           0        8.979045    1.618421    6.524750
     67          1           0       -0.081319    1.421706    0.098171
     68          1           0       -5.316861    5.216803   -0.229748
     69          1           0       -9.116388    0.099946    0.706421
     70          1           0       -1.354948   -3.278574    0.845415
     71          1           0        0.260458   -1.224438   -0.107324
     72          1           0       -0.130922   -0.175775    2.439167
     73          1           0        0.703021   -1.744348    2.288526
     74          1           0       -1.036974   -1.741959    2.525963
     75          1           0       -0.851339   -1.958906   -1.900426
     76          1           0       -2.034816   -3.232390   -1.765663
     77          1           0       -0.679719   -4.925482   -1.963661
     78          1           0        0.024101   -4.561744   -0.532049
     79          1           0        0.175149    4.558874   -1.287829
     80          1           0        0.661797    3.361991    0.001453
     81          1           0        0.229897    4.954271    0.441097
     82          1           0       -1.519111    7.931517   -1.118852
     83          1           0       -0.804142    6.424442   -1.809059
     84          1           0       -0.658835    6.812665   -0.034994
     85          1           0       -7.927363    4.466082   -0.972701
     86          1           0       -9.032922    2.773164    1.316056
     87          1           0       -6.951443    5.233802    1.672219
     88          1           0       -8.734586    4.943353    1.804884
     89          1           0       -8.101396    6.162373    0.674182
     90          1           0      -10.294819    3.571534   -0.617362
     91          1           0      -10.632232    1.936550   -0.178747
     92          1           0       -9.395422    1.211550   -2.251476
     93          1           0       -8.432650    2.564007   -2.302907
     94          1           0      -10.167228    2.801702   -2.727831
     95          1           0       -9.565228   -2.342554    1.870322
     96          1           0       -9.082469   -3.724291    0.760145
     97          1           0       -9.762362   -2.110767    0.271430
     98          1           0       -3.901497   -4.532474   -0.614457
     99          1           0       -1.397703   -5.829916    2.305428
    100          1           0       -1.571294   -7.360663    1.327390
    101          1           0       -2.533193   -7.008978    2.790964
    102          1           0        3.646748   -4.575623   -1.803907
    103          1           0        3.761856   -3.653314   -0.387396
    104          1           0        3.508147   -1.732264   -2.521434
    105          1           0        7.051558   -3.149723   -1.384891
    106          1           0        5.925025   -3.563218   -0.188845
    107          1           0        6.789149   -1.992803   -0.076674
    108          1           0        6.541644   -0.199201   -1.486779
    109          1           0        5.069595    0.061600   -2.415777
    110          1           0        6.086877   -0.147561   -4.317507
    111          1           0        6.380240   -1.840503   -3.813524
    112          1           0        8.659426   -1.300015   -4.077285
    113          1           0        8.542008   -0.554884   -2.576960
    114          1           0        7.718660    1.541087   -4.097721
    115          1           0        8.554881    1.621916   -6.117039
    116          1           0        8.340674   -0.127337   -5.963499
    117          1           0        9.996915    0.556576   -5.835888
    118          1           0       10.239551    2.322417   -3.819911
    119          1           0       10.645452    0.711643   -3.373039
    120          1           0        8.433937    2.104476   -1.776027
    121          1           0        9.725087    3.071266   -2.017059
    122          1           0       11.131416    1.949640   -0.731206
    123          1           0       10.705625    0.259098   -1.117903
    124          1           0        8.741381    1.839563    0.418082
    125          1           0        8.978874   -0.787515   -0.360114
    126          1           0        7.844285   -0.240661    0.813884
    127          1           0        9.353249   -0.934236    1.339585
    128          1           0       11.167918    2.184051    1.276157
    129          1           0       11.110380    0.542596    1.918814
    130          1           0        8.632119    2.242742    2.591375
    131          1           0       10.108299    2.908069    3.253108
    132          1           0        9.689238   -0.054187    3.937683
    133          1           0        8.331195    0.874347    4.222434
    134          1           0       10.528382    2.517258    5.229300
    135          1           0       11.740261   -0.074121    5.196272
    136          1           0       10.898415   -0.095407    6.707620
    137          1           0       12.025733    1.153802    6.339261
    138          1           0        9.242662    1.309790    7.536394
    139          1           0        8.160310    0.908305    6.407198
    140          1           0        8.601803    2.625943    6.697404
 ---------------------------------------------------------------------

 SCF Done:  E(RCAM-B3LYP) =  -3007.18388843     A.U. after   18 cycles

 Excitation energies and oscillator strengths:

 Excited State   1:      Singlet-A      1.7289 eV  717.15 nm  f=0.3872  <S**2>=0.000
     245 -> 248       -0.16599
     246 -> 247        0.68755
     245 <- 248       -0.10042
 This state for optimization and/or second-order correction.
 Total Energy, E(TD-HF/TD-DFT) =  -3007.12035422
 Copying the excited state density for this state as the 1-particle RhoCI density.

 Excited State   2:      Singlet-A      2.1912 eV  565.82 nm  f=0.1655  <S**2>=0.000
     245 -> 247        0.65865
     246 -> 248        0.23858

 Excited State   3:      Singlet-A      3.3075 eV  374.86 nm  f=0.0031  <S**2>=0.000
     241 -> 247       -0.28482
     244 -> 247        0.63047

 Excited State   4:      Singlet-A      3.4375 eV  360.68 nm  f=0.0010  <S**2>=0.000
     241 -> 247        0.58995
     242 -> 247        0.16222
     244 -> 247        0.23103
     246 -> 248       -0.20349

 Excited State   5:      Singlet-A      3.4952 eV  354.73 nm  f=0.0024  <S**2>=0.000
     241 -> 247       -0.14788
     242 -> 247        0.58888
     242 -> 249        0.23644
     242 -> 250        0.18093
     244 -> 247       -0.12748

 The electronic state is 1-A.
 Alpha  occ. eigenvalues --  -46.89081 -19.25146 -19.24865 -19.20021 -19.19488
 Alpha  occ. eigenvalues --  -19.18637 -19.17923 -14.42174 -14.41779 -14.40159
 Alpha  occ. eigenvalues --  -14.38587 -10.38981 -10.38350 -10.35447 -10.34418
 Alpha  occ. eigenvalues --  -10.32790 -10.31830 -10.31438 -10.31362 -10.31101
 Alpha  occ. eigenvalues --  -10.30819 -10.30546 -10.30264 -10.28954 -10.28731
 Alpha  occ. eigenvalues --  -10.28532 -10.28344 -10.28145 -10.27968 -10.27956
 Alpha  occ. eigenvalues --  -10.27873 -10.27606 -10.27507 -10.27380 -10.27304
 Alpha  occ. eigenvalues --  -10.27278 -10.27243 -10.27137 -10.27075 -10.26901
 Alpha  occ. eigenvalues --  -10.26901 -10.26667 -10.26612 -10.26500 -10.26467
 Alpha  occ. eigenvalues --  -10.26230 -10.25876 -10.25859 -10.25809 -10.25631
 Alpha  occ. eigenvalues --  -10.25550 -10.25525 -10.25502 -10.25423 -10.25376
 Alpha  occ. eigenvalues --  -10.25216 -10.25170 -10.25046 -10.24934 -10.24919
 Alpha  occ. eigenvalues --  -10.24894 -10.24848 -10.24733 -10.24561 -10.24406
 Alpha  occ. eigenvalues --  -10.24261  -3.17459  -1.92385  -1.91894  -1.91766
 Alpha  occ. eigenvalues --   -1.17351  -1.15025  -1.12099  -1.09624  -1.07201
 Alpha  occ. eigenvalues --   -1.07073  -1.04254  -1.03544  -1.03323  -1.02464
 Alpha  occ. eigenvalues --   -0.92488  -0.91055  -0.89971  -0.89453  -0.89183
 Alpha  occ. eigenvalues --   -0.88484  -0.88370  -0.87519  -0.87248  -0.87079
 Alpha  occ. eigenvalues --   -0.86415  -0.86078  -0.84432  -0.83629  -0.83164
 Alpha  occ. eigenvalues --   -0.82504  -0.81917  -0.81298  -0.80804  -0.80387
 Alpha  occ. eigenvalues --   -0.80091  -0.78366  -0.78270  -0.77105  -0.76209
 Alpha  occ. eigenvalues --   -0.75979  -0.75741  -0.75467  -0.75348  -0.73880
 Alpha  occ. eigenvalues --   -0.73629  -0.73215  -0.71763  -0.70960  -0.70332
 Alpha  occ. eigenvalues --   -0.68541  -0.68214  -0.67580  -0.67089  -0.65619
 Alpha  occ. eigenvalues --   -0.65190  -0.65138  -0.64850  -0.64292  -0.64198
 Alpha  occ. eigenvalues --   -0.64123  -0.63661  -0.62875  -0.61636  -0.60558
 Alpha  occ. eigenvalues --   -0.60020  -0.59538  -0.59376  -0.58263  -0.58175
 Alpha  occ. eigenvalues --   -0.58074  -0.57224  -0.56170  -0.55840  -0.55589
 Alpha  occ. eigenvalues --   -0.55286  -0.54956  -0.54679  -0.54086  -0.53915
 Alpha  occ. eigenvalues --   -0.53819  -0.53535  -0.53349  -0.53192  -0.52653
 Alpha  occ. eigenvalues --   -0.52487  -0.52236  -0.52045  -0.51959  -0.51904
 Alpha  occ. eigenvalues --   -0.51538  -0.51118  -0.50973  -0.50730  -0.50600
 Alpha  occ. eigenvalues --   -0.50362  -0.50144  -0.50078  -0.49803  -0.49628
 Alpha  occ. eigenvalues --   -0.49493  -0.49463  -0.49220  -0.49198  -0.48911
 Alpha  occ. eigenvalues --   -0.48790  -0.48657  -0.48354  -0.48098  -0.47661
 Alpha  occ. eigenvalues --   -0.47601  -0.47014  -0.46919  -0.46877  -0.46536
 Alpha  occ. eigenvalues --   -0.46477  -0.46311  -0.46138  -0.46038  -0.45731
 Alpha  occ. eigenvalues --   -0.45577  -0.45479  -0.45330  -0.45257  -0.45100
 Alpha  occ. eigenvalues --   -0.44657  -0.44406  -0.44368  -0.44252  -0.43971
 Alpha  occ. eigenvalues --   -0.43839  -0.43753  -0.43361  -0.43305  -0.43247
 Alpha  occ. eigenvalues --   -0.43120  -0.42990  -0.42793  -0.42628  -0.42389
 Alpha  occ. eigenvalues --   -0.42327  -0.42136  -0.41878  -0.41774  -0.41266
 Alpha  occ. eigenvalues --   -0.41186  -0.40678  -0.40560  -0.40381  -0.40206
 Alpha  occ. eigenvalues --   -0.39993  -0.39668  -0.39439  -0.39345  -0.39063
 Alpha  occ. eigenvalues --   -0.38837  -0.38613  -0.38237  -0.37910  -0.37728
 Alpha  occ. eigenvalues --   -0.37299  -0.37062  -0.36821  -0.36634  -0.36512
 Alpha  occ. eigenvalues --   -0.36102  -0.35728  -0.35459  -0.34407  -0.34075
 Alpha  occ. eigenvalues --   -0.33181  -0.33046  -0.32898  -0.31733  -0.31346
 Alpha  occ. eigenvalues --   -0.30427  -0.30173  -0.29931  -0.29376  -0.24045
 Alpha  occ. eigenvalues --   -0.21630
 Alpha virt. eigenvalues --   -0.09134  -0.01599   0.01122   0.02642   0.03388
 Alpha virt. eigenvalues --    0.04495   0.04943   0.05498   0.05736   0.06970
 Alpha virt. eigenvalues --    0.08252   0.08478   0.08603   0.09025   0.09221

 Mulliken charges:
               1
     1  Mg   0.803969
     2  C    0.052790
     3  C   -0.083294
     4  C   -0.044276
     5  C   -0.064223
     6  N   -0.315946
     7  C   -0.044426
     8  C   -0.055150
     9  C   -0.041243
    10  C    0.029453
    11  C    0.097280
    12  C    0.072423
    13  C    0.093790
    14  C    0.123369
    15  O   -0.237526
    16  O   -0.325926
    17  N   -0.339420
    18  C    0.160743
    19  C   -0.169176
    20  C   -0.033870
    21  C    0.095117
    22  C    0.129996
    23  C   -0.026950
    24  O   -0.174115
    25  C    0.060812
    26  N   -0.232267
    27  C    0.018686
    28  C   -0.035074
    29  C   -0.030253
    30  C    0.023085
    31  C    0.065942
    32  C    0.044809
    33  C    0.009291
    34  N   -0.378983
    35  C    0.106031
    36  C   -0.166606
    37  C    0.036691
    38  C    0.077769
    39  C    0.115437
    40  C    0.004970
    41  O   -0.159450
    42  C   -0.000111
    43  C    0.192146
    44  O   -0.221946
    45  O   -0.355655
    46  C    0.182447
    47  C    0.295904
    48  C   -0.097329
    49  C   -0.197947
    50  C    0.081698
    51  C    0.083755
    52  C    0.034653
    53  C    0.053888
    54  C   -0.126060
    55  C    0.066516
    56  C    0.039462
    57  C    0.013993
    58  C    0.042989
    59  C   -0.131615
    60  C    0.039544
    61  C    0.065734
    62  C    0.000506
    63  C    0.029006
    64  C   -0.112845
    65  C    0.043579
    66  C    0.032948
    67  H   -0.031161
    68  H   -0.002243
    69  H   -0.037992
    70  H    0.011625
    71  H   -0.001300
    72  H    0.014218
    73  H    0.017928
    74  H    0.030941
    75  H    0.024670
    76  H    0.014870
    77  H    0.024843
    78  H    0.006504
    79  H    0.030509
    80  H    0.015385
    81  H    0.028041
    82  H    0.028143
    83  H    0.033698
    84  H    0.036294
    85  H    0.019379
    86  H    0.007833
    87  H    0.031484
    88  H    0.022284
    89  H    0.024055
    90  H   -0.002242
    91  H    0.011888
    92  H    0.016559
    93  H    0.014652
    94  H    0.024547
    95  H    0.016438
    96  H    0.043750
    97  H    0.010838
    98  H    0.040743
    99  H    0.032134
   100  H    0.042374
   101  H    0.039434
   102  H    0.039698
   103  H    0.012361
   104  H   -0.007320
   105  H    0.014315
   106  H    0.007518
   107  H    0.014012
   108  H   -0.006052
   109  H   -0.002607
   110  H    0.003937
   111  H    0.010130
   112  H   -0.013352
   113  H   -0.032694
   114  H   -0.013662
   115  H    0.004641
   116  H    0.003289
   117  H    0.014747
   118  H   -0.013580
   119  H    0.002650
   120  H   -0.008830
   121  H   -0.008731
   122  H   -0.005489
   123  H    0.004973
   124  H   -0.007054
   125  H    0.001255
   126  H    0.024508
   127  H    0.004042
   128  H   -0.012715
   129  H    0.003200
   130  H   -0.002104
   131  H    0.001759
   132  H   -0.009332
   133  H   -0.008551
   134  H    0.008498
   135  H    0.008681
   136  H    0.002848
   137  H   -0.000739
   138  H   -0.012539
   139  H    0.007213
   140  H    0.010408
 Sum of Mulliken charges =  -0.00000

 Dipole moment (field-independent basis, Debye):
    X=              4.5093    Y=              4.1742    Z=              1.1543  Tot=              6.2522
 Quadrupole moment (field-independent basis, Debye-Ang):
   XX=           -372.9934   YY=           -422.0230   ZZ=           -423.2088
   XY=            -29.5839   XZ=              9.3837   YZ=            -11.0021

 Normal termination of Gaussian 16 at Thu Apr 28 07:40:19 2022.
