 Gaussian 16, Revision A.03,
 Gaussian 16:  ES64L-G16RevA.03 25-Dec-2016

 ---------------------------------
 #p PBE1PBE/Def2SVP td=(nstates=5)
 ---------------------------------

 ------------------------------------------------------
 step_1501_chromophore_27 TDDFT with PBE1PBE functional
 ------------------------------------------------------
 Symbolic Z-matrix:
 Charge =  0 Multiplicity = 1

                         Standard orientation:
 ---------------------------------------------------------------------
 Center     Atomic      Atomic             Coordinates (Angstroms)
 Number     Number       Type             X           Y           Z
 ---------------------------------------------------------------------
      1         12           0       -4.577619    0.705953    0.115981
      2          6           0       -4.059630   -2.588443    0.384083
      3          6           0       -1.163737    1.288630    0.043680
      4          6           0       -5.178871    4.136469   -0.165998
      5          6           0       -8.052584    0.320321    0.588534
      6          7           0       -2.842657   -0.516522    0.429130
      7          6           0       -2.877047   -1.887876    0.307874
      8          6           0       -1.408727   -2.427330    0.166601
      9          6           0       -0.577614   -1.201336    0.587853
     10          6           0       -1.586075   -0.011352    0.306950
     11          6           0       -0.212311   -1.197156    2.066176
     12          6           0       -1.120599   -2.841183   -1.319653
     13          6           0       -0.165310   -4.087055   -1.494375
     14          6           0        1.115697   -3.836771   -2.118433
     15          8           0        1.421046   -4.094000   -3.277943
     16          8           0        1.958326   -3.351529   -1.221452
     17          7           0       -3.323570    2.453982   -0.159050
     18          6           0       -1.983748    2.445582   -0.187221
     19          6           0       -1.461086    3.763234   -0.328323
     20          6           0       -2.577526    4.637969   -0.438312
     21          6           0       -3.807142    3.763069   -0.249193
     22          6           0       -0.005787    4.175438   -0.283677
     23          6           0       -2.577792    6.147640   -0.662018
     24          8           0       -3.593735    6.773471   -0.575671
     25          6           0       -1.265388    6.886841   -0.937728
     26          7           0       -6.399302    2.061949    0.187291
     27          6           0       -6.351673    3.394950   -0.080183
     28          6           0       -7.749678    4.046326    0.017870
     29          6           0       -8.664667    2.804274    0.290837
     30          6           0       -7.660240    1.630718    0.359291
     31          6           0       -7.904728    5.199362    1.145575
     32          6           0       -9.864554    2.570113   -0.623420
     33          6           0       -9.461245    2.285405   -2.076739
     34          7           0       -5.887858   -0.836339    0.400790
     35          6           0       -7.288799   -0.861783    0.667425
     36          6           0       -7.650538   -2.223447    0.792691
     37          6           0       -6.449970   -2.981698    0.614797
     38          6           0       -5.417402   -2.047626    0.446525
     39          6           0       -9.089891   -2.649017    0.938524
     40          6           0       -5.791094   -4.259456    0.451931
     41          8           0       -6.252428   -5.375009    0.349920
     42          6           0       -4.241157   -4.060613    0.308138
     43          6           0       -3.520143   -4.701423    1.395517
     44          8           0       -3.322355   -4.217998    2.503694
     45          8           0       -3.068677   -5.953454    0.958752
     46          6           0       -2.074544   -6.581240    1.899495
     47          6           0        3.411430   -3.583498   -1.417270
     48          6           0        4.151989   -2.422470   -1.974155
     49          6           0        5.386152   -1.969139   -1.718830
     50          6           0        6.294460   -2.700148   -0.742472
     51          6           0        5.890622   -0.635173   -2.245109
     52          6           0        6.596378   -0.793223   -3.602317
     53          6           0        8.134992   -0.480273   -3.585097
     54          6           0        8.592816    0.891005   -4.144253
     55          6           0        8.938101    0.722567   -5.635261
     56          6           0        9.825812    1.430217   -3.349847
     57          6           0        9.501466    2.005183   -1.969139
     58          6           0       10.312977    1.241308   -0.853630
     59          6           0        9.549209    1.110917    0.483072
     60          6           0        8.911156   -0.269856    0.596325
     61          6           0       10.500992    1.404643    1.645568
     62          6           0        9.646522    1.986186    2.897670
     63          6           0        9.411729    0.982922    4.125568
     64          6           0       10.122809    1.534393    5.471407
     65          6           0       11.215860    0.567572    5.903654
     66          6           0        8.979045    1.618421    6.524750
     67          1           0       -0.081319    1.421706    0.098171
     68          1           0       -5.316861    5.216803   -0.229748
     69          1           0       -9.116388    0.099946    0.706421
     70          1           0       -1.354948   -3.278574    0.845415
     71          1           0        0.260458   -1.224438   -0.107324
     72          1           0       -0.130922   -0.175775    2.439167
     73          1           0        0.703021   -1.744348    2.288526
     74          1           0       -1.036974   -1.741959    2.525963
     75          1           0       -0.851339   -1.958906   -1.900426
     76          1           0       -2.034816   -3.232390   -1.765663
     77          1           0       -0.679719   -4.925482   -1.963661
     78          1           0        0.024101   -4.561744   -0.532049
     79          1           0        0.175149    4.558874   -1.287829
     80          1           0        0.661797    3.361991    0.001453
     81          1           0        0.229897    4.954271    0.441097
     82          1           0       -1.519111    7.931517   -1.118852
     83          1           0       -0.804142    6.424442   -1.809059
     84          1           0       -0.658835    6.812665   -0.034994
     85          1           0       -7.927363    4.466082   -0.972701
     86          1           0       -9.032922    2.773164    1.316056
     87          1           0       -6.951443    5.233802    1.672219
     88          1           0       -8.734586    4.943353    1.804884
     89          1           0       -8.101396    6.162373    0.674182
     90          1           0      -10.294819    3.571534   -0.617362
     91          1           0      -10.632232    1.936550   -0.178747
     92          1           0       -9.395422    1.211550   -2.251476
     93          1           0       -8.432650    2.564007   -2.302907
     94          1           0      -10.167228    2.801702   -2.727831
     95          1           0       -9.565228   -2.342554    1.870322
     96          1           0       -9.082469   -3.724291    0.760145
     97          1           0       -9.762362   -2.110767    0.271430
     98          1           0       -3.901497   -4.532474   -0.614457
     99          1           0       -1.397703   -5.829916    2.305428
    100          1           0       -1.571294   -7.360663    1.327390
    101          1           0       -2.533193   -7.008978    2.790964
    102          1           0        3.646748   -4.575623   -1.803907
    103          1           0        3.761856   -3.653314   -0.387396
    104          1           0        3.508147   -1.732264   -2.521434
    105          1           0        7.051558   -3.149723   -1.384891
    106          1           0        5.925025   -3.563218   -0.188845
    107          1           0        6.789149   -1.992803   -0.076674
    108          1           0        6.541644   -0.199201   -1.486779
    109          1           0        5.069595    0.061600   -2.415777
    110          1           0        6.086877   -0.147561   -4.317507
    111          1           0        6.380240   -1.840503   -3.813524
    112          1           0        8.659426   -1.300015   -4.077285
    113          1           0        8.542008   -0.554884   -2.576960
    114          1           0        7.718660    1.541087   -4.097721
    115          1           0        8.554881    1.621916   -6.117039
    116          1           0        8.340674   -0.127337   -5.963499
    117          1           0        9.996915    0.556576   -5.835888
    118          1           0       10.239551    2.322417   -3.819911
    119          1           0       10.645452    0.711643   -3.373039
    120          1           0        8.433937    2.104476   -1.776027
    121          1           0        9.725087    3.071266   -2.017059
    122          1           0       11.131416    1.949640   -0.731206
    123          1           0       10.705625    0.259098   -1.117903
    124          1           0        8.741381    1.839563    0.418082
    125          1           0        8.978874   -0.787515   -0.360114
    126          1           0        7.844285   -0.240661    0.813884
    127          1           0        9.353249   -0.934236    1.339585
    128          1           0       11.167918    2.184051    1.276157
    129          1           0       11.110380    0.542596    1.918814
    130          1           0        8.632119    2.242742    2.591375
    131          1           0       10.108299    2.908069    3.253108
    132          1           0        9.689238   -0.054187    3.937683
    133          1           0        8.331195    0.874347    4.222434
    134          1           0       10.528382    2.517258    5.229300
    135          1           0       11.740261   -0.074121    5.196272
    136          1           0       10.898415   -0.095407    6.707620
    137          1           0       12.025733    1.153802    6.339261
    138          1           0        9.242662    1.309790    7.536394
    139          1           0        8.160310    0.908305    6.407198
    140          1           0        8.601803    2.625943    6.697404
 ---------------------------------------------------------------------

 SCF Done:  E(RPBE1PBE) =  -3005.37154930     A.U. after   15 cycles

 Excitation energies and oscillator strengths:

 Excited State   1:      Singlet-A      1.8772 eV  660.48 nm  f=0.3709  <S**2>=0.000
     245 -> 248        0.16236
     246 -> 247        0.69377
     246 <- 247       -0.10850
 This state for optimization and/or second-order correction.
 Total Energy, E(TD-HF/TD-DFT) =  -3005.30256359
 Copying the excited state density for this state as the 1-particle RhoCI density.

 Excited State   2:      Singlet-A      2.1982 eV  564.03 nm  f=0.1517  <S**2>=0.000
     245 -> 247        0.66518
     246 -> 248       -0.21983

 Excited State   3:      Singlet-A      2.8710 eV  431.86 nm  f=0.0007  <S**2>=0.000
     242 -> 247       -0.36567
     244 -> 247        0.57722

 Excited State   4:      Singlet-A      2.9750 eV  416.76 nm  f=0.0040  <S**2>=0.000
     241 -> 247       -0.15739
     242 -> 247        0.57573
     244 -> 247        0.36008

 Excited State   5:      Singlet-A      3.0573 eV  405.54 nm  f=0.0059  <S**2>=0.000
     240 -> 247        0.29207
     241 -> 247        0.61245

 The electronic state is 1-A.
 Alpha  occ. eigenvalues --  -46.92474 -19.25805 -19.25614 -19.20334 -19.19467
 Alpha  occ. eigenvalues --  -19.18931 -19.18407 -14.41535 -14.41481 -14.39680
 Alpha  occ. eigenvalues --  -14.38377 -10.36076 -10.35355 -10.32383 -10.31787
 Alpha  occ. eigenvalues --  -10.30165 -10.29120 -10.28972 -10.28954 -10.28722
 Alpha  occ. eigenvalues --  -10.28672 -10.28168 -10.27906 -10.27004 -10.26399
 Alpha  occ. eigenvalues --  -10.26152 -10.26147 -10.26010 -10.25874 -10.25657
 Alpha  occ. eigenvalues --  -10.25359 -10.25348 -10.25283 -10.25266 -10.25021
 Alpha  occ. eigenvalues --  -10.24921 -10.24887 -10.24868 -10.24669 -10.24430
 Alpha  occ. eigenvalues --  -10.24349 -10.24347 -10.24161 -10.23939 -10.23752
 Alpha  occ. eigenvalues --  -10.23609 -10.23536 -10.23405 -10.23402 -10.23132
 Alpha  occ. eigenvalues --  -10.23104 -10.23088 -10.23062 -10.22984 -10.22938
 Alpha  occ. eigenvalues --  -10.22860 -10.22788 -10.22723 -10.22641 -10.22475
 Alpha  occ. eigenvalues --  -10.22456 -10.22442 -10.22121 -10.21956 -10.21773
 Alpha  occ. eigenvalues --  -10.21630  -3.14438  -1.87306  -1.86792  -1.86667
 Alpha  occ. eigenvalues --   -1.12184  -1.09836  -1.06650  -1.04615  -1.02107
 Alpha  occ. eigenvalues --   -1.01938  -0.98932  -0.98200  -0.97947  -0.97103
 Alpha  occ. eigenvalues --   -0.87010  -0.85169  -0.84075  -0.83671  -0.83453
 Alpha  occ. eigenvalues --   -0.82617  -0.82578  -0.81681  -0.81433  -0.81319
 Alpha  occ. eigenvalues --   -0.80820  -0.80378  -0.78619  -0.78012  -0.77397
 Alpha  occ. eigenvalues --   -0.76687  -0.76052  -0.75509  -0.75056  -0.74691
 Alpha  occ. eigenvalues --   -0.74226  -0.72654  -0.72468  -0.71437  -0.70555
 Alpha  occ. eigenvalues --   -0.70138  -0.69822  -0.69681  -0.69564  -0.68104
 Alpha  occ. eigenvalues --   -0.67989  -0.67601  -0.66155  -0.65261  -0.64709
 Alpha  occ. eigenvalues --   -0.62768  -0.62678  -0.62010  -0.61295  -0.59830
 Alpha  occ. eigenvalues --   -0.59774  -0.59602  -0.59332  -0.58817  -0.58446
 Alpha  occ. eigenvalues --   -0.58333  -0.58069  -0.57059  -0.56302  -0.54880
 Alpha  occ. eigenvalues --   -0.54530  -0.54098  -0.53943  -0.52927  -0.52624
 Alpha  occ. eigenvalues --   -0.52586  -0.51851  -0.50791  -0.50410  -0.50088
 Alpha  occ. eigenvalues --   -0.49775  -0.49509  -0.49210  -0.48527  -0.48473
 Alpha  occ. eigenvalues --   -0.48422  -0.47886  -0.47833  -0.47656  -0.47145
 Alpha  occ. eigenvalues --   -0.47031  -0.46741  -0.46602  -0.46515  -0.46387
 Alpha  occ. eigenvalues --   -0.46045  -0.45663  -0.45602  -0.45358  -0.45029
 Alpha  occ. eigenvalues --   -0.44867  -0.44720  -0.44543  -0.44362  -0.44209
 Alpha  occ. eigenvalues --   -0.44022  -0.43983  -0.43863  -0.43808  -0.43527
 Alpha  occ. eigenvalues --   -0.43378  -0.43230  -0.43053  -0.42801  -0.42270
 Alpha  occ. eigenvalues --   -0.42166  -0.41723  -0.41630  -0.41542  -0.41344
 Alpha  occ. eigenvalues --   -0.41123  -0.40910  -0.40729  -0.40679  -0.40484
 Alpha  occ. eigenvalues --   -0.40239  -0.40200  -0.40106  -0.39993  -0.39868
 Alpha  occ. eigenvalues --   -0.39474  -0.39170  -0.39024  -0.38856  -0.38714
 Alpha  occ. eigenvalues --   -0.38634  -0.38471  -0.38149  -0.38031  -0.38024
 Alpha  occ. eigenvalues --   -0.37900  -0.37847  -0.37767  -0.37389  -0.37221
 Alpha  occ. eigenvalues --   -0.37103  -0.36943  -0.36764  -0.36599  -0.36053
 Alpha  occ. eigenvalues --   -0.35977  -0.35614  -0.35446  -0.35322  -0.34933
 Alpha  occ. eigenvalues --   -0.34911  -0.34476  -0.34244  -0.34187  -0.33823
 Alpha  occ. eigenvalues --   -0.33800  -0.33441  -0.33005  -0.32674  -0.32557
 Alpha  occ. eigenvalues --   -0.32333  -0.31935  -0.31847  -0.31622  -0.31444
 Alpha  occ. eigenvalues --   -0.31189  -0.30602  -0.30349  -0.29310  -0.29232
 Alpha  occ. eigenvalues --   -0.28712  -0.27975  -0.27918  -0.27245  -0.26152
 Alpha  occ. eigenvalues --   -0.25777  -0.25336  -0.25196  -0.25161  -0.21006
 Alpha  occ. eigenvalues --   -0.19220
 Alpha virt. eigenvalues --   -0.11558  -0.05191  -0.03129  -0.01767   0.00054
 Alpha virt. eigenvalues --    0.00187   0.00762   0.01185   0.01814   0.02927
 Alpha virt. eigenvalues --    0.04005   0.04954   0.05274   0.05316   0.05795

 Mulliken charges:
               1
     1  Mg   0.949364
     2  C    0.037172
     3  C   -0.063558
     4  C   -0.047639
     5  C   -0.067894
     6  N   -0.412841
     7  C    0.033935
     8  C   -0.132035
     9  C   -0.118297
    10  C    0.054548
    11  C    0.042063
    12  C    0.021957
    13  C    0.020198
    14  C    0.196079
    15  O   -0.273007
    16  O   -0.356948
    17  N   -0.456100
    18  C    0.185664
    19  C   -0.198569
    20  C   -0.085332
    21  C    0.129406
    22  C    0.067695
    23  C    0.029070
    24  O   -0.212915
    25  C   -0.017890
    26  N   -0.338134
    27  C    0.058807
    28  C   -0.108173
    29  C   -0.103360
    30  C    0.069498
    31  C    0.006012
    32  C   -0.023017
    33  C   -0.062316
    34  N   -0.510366
    35  C    0.137256
    36  C   -0.183087
    37  C   -0.015346
    38  C    0.133439
    39  C    0.065212
    40  C    0.102928
    41  O   -0.203577
    42  C   -0.114589
    43  C    0.284538
    44  O   -0.254888
    45  O   -0.387273
    46  C    0.125569
    47  C    0.250554
    48  C   -0.094038
    49  C   -0.259572
    50  C    0.015809
    51  C    0.021964
    52  C   -0.026672
    53  C   -0.009279
    54  C   -0.213467
    55  C    0.006165
    56  C   -0.017543
    57  C   -0.041304
    58  C   -0.015654
    59  C   -0.217357
    60  C   -0.018790
    61  C    0.007595
    62  C   -0.060467
    63  C   -0.017589
    64  C   -0.211356
    65  C   -0.014285
    66  C   -0.024740
    67  H    0.001902
    68  H    0.029511
    69  H   -0.005972
    70  H    0.054806
    71  H    0.036090
    72  H    0.042968
    73  H    0.046255
    74  H    0.058344
    75  H    0.055755
    76  H    0.049596
    77  H    0.056107
    78  H    0.038655
    79  H    0.058672
    80  H    0.041822
    81  H    0.054804
    82  H    0.055409
    83  H    0.060680
    84  H    0.063207
    85  H    0.056165
    86  H    0.046758
    87  H    0.059563
    88  H    0.048642
    89  H    0.051173
    90  H    0.034175
    91  H    0.042119
    92  H    0.045047
    93  H    0.043891
    94  H    0.052238
    95  H    0.045130
    96  H    0.071936
    97  H    0.038484
    98  H    0.077635
    99  H    0.053523
   100  H    0.064054
   101  H    0.062034
   102  H    0.065084
   103  H    0.039622
   104  H    0.022525
   105  H    0.043666
   106  H    0.032989
   107  H    0.046933
   108  H    0.029910
   109  H    0.029636
   110  H    0.035163
   111  H    0.044451
   112  H    0.019539
   113  H    0.011665
   114  H    0.023881
   115  H    0.033077
   116  H    0.032131
   117  H    0.041381
   118  H    0.020397
   119  H    0.033692
   120  H    0.021989
   121  H    0.023689
   122  H    0.028431
   123  H    0.035523
   124  H    0.030902
   125  H    0.030847
   126  H    0.049828
   127  H    0.031429
   128  H    0.021287
   129  H    0.034569
   130  H    0.029864
   131  H    0.032832
   132  H    0.021571
   133  H    0.023098
   134  H    0.044228
   135  H    0.035341
   136  H    0.029913
   137  H    0.027731
   138  H    0.014930
   139  H    0.033482
   140  H    0.038357
 Sum of Mulliken charges =  -0.00000

 Dipole moment (field-independent basis, Debye):
    X=              4.1892    Y=              3.7704    Z=              1.2439  Tot=              5.7717
 Quadrupole moment (field-independent basis, Debye-Ang):
   XX=           -365.1128   YY=           -419.8605   ZZ=           -420.8236
   XY=            -28.6051   XZ=              9.0782   YZ=            -11.0324

 Normal termination of Gaussian 16 at Thu Apr 28 07:57:34 2022.
