 Gaussian 16, Revision A.03,
 Gaussian 16:  ES64L-G16RevA.03 25-Dec-2016

 --------------------------------
 #p wB97XD/Def2SVP td=(nstates=5)
 --------------------------------

 -----------------------------------------------------
 step_1501_chromophore_27 TDDFT with wB97XD functional
 -----------------------------------------------------
 Symbolic Z-matrix:
 Charge =  0 Multiplicity = 1

                         Standard orientation:
 ---------------------------------------------------------------------
 Center     Atomic      Atomic             Coordinates (Angstroms)
 Number     Number       Type             X           Y           Z
 ---------------------------------------------------------------------
      1         12           0       -4.577619    0.705953    0.115981
      2          6           0       -4.059630   -2.588443    0.384083
      3          6           0       -1.163737    1.288630    0.043680
      4          6           0       -5.178871    4.136469   -0.165998
      5          6           0       -8.052584    0.320321    0.588534
      6          7           0       -2.842657   -0.516522    0.429130
      7          6           0       -2.877047   -1.887876    0.307874
      8          6           0       -1.408727   -2.427330    0.166601
      9          6           0       -0.577614   -1.201336    0.587853
     10          6           0       -1.586075   -0.011352    0.306950
     11          6           0       -0.212311   -1.197156    2.066176
     12          6           0       -1.120599   -2.841183   -1.319653
     13          6           0       -0.165310   -4.087055   -1.494375
     14          6           0        1.115697   -3.836771   -2.118433
     15          8           0        1.421046   -4.094000   -3.277943
     16          8           0        1.958326   -3.351529   -1.221452
     17          7           0       -3.323570    2.453982   -0.159050
     18          6           0       -1.983748    2.445582   -0.187221
     19          6           0       -1.461086    3.763234   -0.328323
     20          6           0       -2.577526    4.637969   -0.438312
     21          6           0       -3.807142    3.763069   -0.249193
     22          6           0       -0.005787    4.175438   -0.283677
     23          6           0       -2.577792    6.147640   -0.662018
     24          8           0       -3.593735    6.773471   -0.575671
     25          6           0       -1.265388    6.886841   -0.937728
     26          7           0       -6.399302    2.061949    0.187291
     27          6           0       -6.351673    3.394950   -0.080183
     28          6           0       -7.749678    4.046326    0.017870
     29          6           0       -8.664667    2.804274    0.290837
     30          6           0       -7.660240    1.630718    0.359291
     31          6           0       -7.904728    5.199362    1.145575
     32          6           0       -9.864554    2.570113   -0.623420
     33          6           0       -9.461245    2.285405   -2.076739
     34          7           0       -5.887858   -0.836339    0.400790
     35          6           0       -7.288799   -0.861783    0.667425
     36          6           0       -7.650538   -2.223447    0.792691
     37          6           0       -6.449970   -2.981698    0.614797
     38          6           0       -5.417402   -2.047626    0.446525
     39          6           0       -9.089891   -2.649017    0.938524
     40          6           0       -5.791094   -4.259456    0.451931
     41          8           0       -6.252428   -5.375009    0.349920
     42          6           0       -4.241157   -4.060613    0.308138
     43          6           0       -3.520143   -4.701423    1.395517
     44          8           0       -3.322355   -4.217998    2.503694
     45          8           0       -3.068677   -5.953454    0.958752
     46          6           0       -2.074544   -6.581240    1.899495
     47          6           0        3.411430   -3.583498   -1.417270
     48          6           0        4.151989   -2.422470   -1.974155
     49          6           0        5.386152   -1.969139   -1.718830
     50          6           0        6.294460   -2.700148   -0.742472
     51          6           0        5.890622   -0.635173   -2.245109
     52          6           0        6.596378   -0.793223   -3.602317
     53          6           0        8.134992   -0.480273   -3.585097
     54          6           0        8.592816    0.891005   -4.144253
     55          6           0        8.938101    0.722567   -5.635261
     56          6           0        9.825812    1.430217   -3.349847
     57          6           0        9.501466    2.005183   -1.969139
     58          6           0       10.312977    1.241308   -0.853630
     59          6           0        9.549209    1.110917    0.483072
     60          6           0        8.911156   -0.269856    0.596325
     61          6           0       10.500992    1.404643    1.645568
     62          6           0        9.646522    1.986186    2.897670
     63          6           0        9.411729    0.982922    4.125568
     64          6           0       10.122809    1.534393    5.471407
     65          6           0       11.215860    0.567572    5.903654
     66          6           0        8.979045    1.618421    6.524750
     67          1           0       -0.081319    1.421706    0.098171
     68          1           0       -5.316861    5.216803   -0.229748
     69          1           0       -9.116388    0.099946    0.706421
     70          1           0       -1.354948   -3.278574    0.845415
     71          1           0        0.260458   -1.224438   -0.107324
     72          1           0       -0.130922   -0.175775    2.439167
     73          1           0        0.703021   -1.744348    2.288526
     74          1           0       -1.036974   -1.741959    2.525963
     75          1           0       -0.851339   -1.958906   -1.900426
     76          1           0       -2.034816   -3.232390   -1.765663
     77          1           0       -0.679719   -4.925482   -1.963661
     78          1           0        0.024101   -4.561744   -0.532049
     79          1           0        0.175149    4.558874   -1.287829
     80          1           0        0.661797    3.361991    0.001453
     81          1           0        0.229897    4.954271    0.441097
     82          1           0       -1.519111    7.931517   -1.118852
     83          1           0       -0.804142    6.424442   -1.809059
     84          1           0       -0.658835    6.812665   -0.034994
     85          1           0       -7.927363    4.466082   -0.972701
     86          1           0       -9.032922    2.773164    1.316056
     87          1           0       -6.951443    5.233802    1.672219
     88          1           0       -8.734586    4.943353    1.804884
     89          1           0       -8.101396    6.162373    0.674182
     90          1           0      -10.294819    3.571534   -0.617362
     91          1           0      -10.632232    1.936550   -0.178747
     92          1           0       -9.395422    1.211550   -2.251476
     93          1           0       -8.432650    2.564007   -2.302907
     94          1           0      -10.167228    2.801702   -2.727831
     95          1           0       -9.565228   -2.342554    1.870322
     96          1           0       -9.082469   -3.724291    0.760145
     97          1           0       -9.762362   -2.110767    0.271430
     98          1           0       -3.901497   -4.532474   -0.614457
     99          1           0       -1.397703   -5.829916    2.305428
    100          1           0       -1.571294   -7.360663    1.327390
    101          1           0       -2.533193   -7.008978    2.790964
    102          1           0        3.646748   -4.575623   -1.803907
    103          1           0        3.761856   -3.653314   -0.387396
    104          1           0        3.508147   -1.732264   -2.521434
    105          1           0        7.051558   -3.149723   -1.384891
    106          1           0        5.925025   -3.563218   -0.188845
    107          1           0        6.789149   -1.992803   -0.076674
    108          1           0        6.541644   -0.199201   -1.486779
    109          1           0        5.069595    0.061600   -2.415777
    110          1           0        6.086877   -0.147561   -4.317507
    111          1           0        6.380240   -1.840503   -3.813524
    112          1           0        8.659426   -1.300015   -4.077285
    113          1           0        8.542008   -0.554884   -2.576960
    114          1           0        7.718660    1.541087   -4.097721
    115          1           0        8.554881    1.621916   -6.117039
    116          1           0        8.340674   -0.127337   -5.963499
    117          1           0        9.996915    0.556576   -5.835888
    118          1           0       10.239551    2.322417   -3.819911
    119          1           0       10.645452    0.711643   -3.373039
    120          1           0        8.433937    2.104476   -1.776027
    121          1           0        9.725087    3.071266   -2.017059
    122          1           0       11.131416    1.949640   -0.731206
    123          1           0       10.705625    0.259098   -1.117903
    124          1           0        8.741381    1.839563    0.418082
    125          1           0        8.978874   -0.787515   -0.360114
    126          1           0        7.844285   -0.240661    0.813884
    127          1           0        9.353249   -0.934236    1.339585
    128          1           0       11.167918    2.184051    1.276157
    129          1           0       11.110380    0.542596    1.918814
    130          1           0        8.632119    2.242742    2.591375
    131          1           0       10.108299    2.908069    3.253108
    132          1           0        9.689238   -0.054187    3.937683
    133          1           0        8.331195    0.874347    4.222434
    134          1           0       10.528382    2.517258    5.229300
    135          1           0       11.740261   -0.074121    5.196272
    136          1           0       10.898415   -0.095407    6.707620
    137          1           0       12.025733    1.153802    6.339261
    138          1           0        9.242662    1.309790    7.536394
    139          1           0        8.160310    0.908305    6.407198
    140          1           0        8.601803    2.625943    6.697404
 ---------------------------------------------------------------------

 SCF Done:  E(RwB97XD) =  -3007.88475743     A.U. after   19 cycles

 Excitation energies and oscillator strengths:

 Excited State   1:      Singlet-A      1.6791 eV  738.39 nm  f=0.3860  <S**2>=0.000
     245 -> 248       -0.17054
     246 -> 247        0.68539
     245 <- 248       -0.10848
 This state for optimization and/or second-order correction.
 Total Energy, E(TD-HF/TD-DFT) =  -3007.82305107
 Copying the excited state density for this state as the 1-particle RhoCI density.

 Excited State   2:      Singlet-A      2.1417 eV  578.92 nm  f=0.1631  <S**2>=0.000
     245 -> 247        0.65651
     246 -> 248        0.24057

 Excited State   3:      Singlet-A      3.3399 eV  371.22 nm  f=0.0030  <S**2>=0.000
     241 -> 247       -0.34506
     244 -> 247        0.59465

 Excited State   4:      Singlet-A      3.4652 eV  357.80 nm  f=0.0033  <S**2>=0.000
     241 -> 247        0.55441
     242 -> 247        0.10309
     244 -> 247        0.29799
     246 -> 248       -0.23816

 Excited State   5:      Singlet-A      3.5624 eV  348.04 nm  f=0.0021  <S**2>=0.000
     242 -> 247        0.58375
     242 -> 249       -0.26385
     242 -> 250       -0.20444

 The electronic state is 1-A.
 Alpha  occ. eigenvalues --  -46.95414 -19.30368 -19.30081 -19.24928 -19.24541
 Alpha  occ. eigenvalues --  -19.23598 -19.22920 -14.46795 -14.46354 -14.44806
 Alpha  occ. eigenvalues --  -14.43145 -10.42799 -10.42135 -10.39449 -10.38388
 Alpha  occ. eigenvalues --  -10.36683 -10.35598 -10.35572 -10.35462 -10.35173
 Alpha  occ. eigenvalues --  -10.34840 -10.34660 -10.34218 -10.32947 -10.32912
 Alpha  occ. eigenvalues --  -10.32470 -10.32424 -10.32213 -10.32069 -10.32030
 Alpha  occ. eigenvalues --  -10.31957 -10.31606 -10.31552 -10.31416 -10.31384
 Alpha  occ. eigenvalues --  -10.31279 -10.31244 -10.31194 -10.31109 -10.31023
 Alpha  occ. eigenvalues --  -10.30794 -10.30639 -10.30530 -10.30422 -10.30367
 Alpha  occ. eigenvalues --  -10.30083 -10.29844 -10.29813 -10.29661 -10.29552
 Alpha  occ. eigenvalues --  -10.29484 -10.29474 -10.29368 -10.29351 -10.29236
 Alpha  occ. eigenvalues --  -10.29168 -10.29103 -10.28994 -10.28926 -10.28869
 Alpha  occ. eigenvalues --  -10.28836 -10.28809 -10.28604 -10.28392 -10.28218
 Alpha  occ. eigenvalues --  -10.28087  -3.21246  -1.94860  -1.94349  -1.94219
 Alpha  occ. eigenvalues --   -1.19549  -1.17148  -1.14359  -1.11816  -1.09377
 Alpha  occ. eigenvalues --   -1.09269  -1.06255  -1.05545  -1.05382  -1.04506
 Alpha  occ. eigenvalues --   -0.94435  -0.92864  -0.91751  -0.91290  -0.91071
 Alpha  occ. eigenvalues --   -0.90304  -0.90265  -0.89499  -0.89045  -0.88994
 Alpha  occ. eigenvalues --   -0.88340  -0.87967  -0.86285  -0.85558  -0.85065
 Alpha  occ. eigenvalues --   -0.84359  -0.83852  -0.83216  -0.82701  -0.82319
 Alpha  occ. eigenvalues --   -0.81914  -0.80359  -0.80168  -0.79020  -0.78132
 Alpha  occ. eigenvalues --   -0.77831  -0.77531  -0.77279  -0.77272  -0.75738
 Alpha  occ. eigenvalues --   -0.75565  -0.75158  -0.73746  -0.72868  -0.72245
 Alpha  occ. eigenvalues --   -0.70418  -0.70218  -0.69621  -0.68959  -0.67479
 Alpha  occ. eigenvalues --   -0.67168  -0.67124  -0.66800  -0.66200  -0.66115
 Alpha  occ. eigenvalues --   -0.65958  -0.65614  -0.64718  -0.63622  -0.62435
 Alpha  occ. eigenvalues --   -0.62042  -0.61550  -0.61340  -0.60233  -0.60074
 Alpha  occ. eigenvalues --   -0.60020  -0.59227  -0.58135  -0.57795  -0.57525
 Alpha  occ. eigenvalues --   -0.57233  -0.56930  -0.56595  -0.55938  -0.55853
 Alpha  occ. eigenvalues --   -0.55758  -0.55500  -0.55263  -0.55149  -0.54543
 Alpha  occ. eigenvalues --   -0.54400  -0.54129  -0.53933  -0.53887  -0.53781
 Alpha  occ. eigenvalues --   -0.53426  -0.52997  -0.52894  -0.52633  -0.52570
 Alpha  occ. eigenvalues --   -0.52235  -0.52112  -0.52020  -0.51703  -0.51548
 Alpha  occ. eigenvalues --   -0.51451  -0.51354  -0.51129  -0.51113  -0.50842
 Alpha  occ. eigenvalues --   -0.50677  -0.50535  -0.50313  -0.50022  -0.49643
 Alpha  occ. eigenvalues --   -0.49492  -0.48978  -0.48812  -0.48769  -0.48440
 Alpha  occ. eigenvalues --   -0.48344  -0.48176  -0.47971  -0.47922  -0.47645
 Alpha  occ. eigenvalues --   -0.47472  -0.47417  -0.47242  -0.47159  -0.47015
 Alpha  occ. eigenvalues --   -0.46580  -0.46350  -0.46256  -0.46188  -0.45917
 Alpha  occ. eigenvalues --   -0.45786  -0.45661  -0.45375  -0.45215  -0.45161
 Alpha  occ. eigenvalues --   -0.45038  -0.44919  -0.44691  -0.44523  -0.44263
 Alpha  occ. eigenvalues --   -0.44251  -0.44047  -0.43788  -0.43710  -0.43133
 Alpha  occ. eigenvalues --   -0.43066  -0.42611  -0.42446  -0.42297  -0.42043
 Alpha  occ. eigenvalues --   -0.41887  -0.41531  -0.41279  -0.41243  -0.40911
 Alpha  occ. eigenvalues --   -0.40744  -0.40481  -0.40089  -0.39766  -0.39609
 Alpha  occ. eigenvalues --   -0.39237  -0.38999  -0.38917  -0.38622  -0.38469
 Alpha  occ. eigenvalues --   -0.38018  -0.37592  -0.37316  -0.36305  -0.36059
 Alpha  occ. eigenvalues --   -0.35326  -0.35082  -0.34741  -0.33899  -0.33403
 Alpha  occ. eigenvalues --   -0.32668  -0.32111  -0.31952  -0.31496  -0.25974
 Alpha  occ. eigenvalues --   -0.23456
 Alpha virt. eigenvalues --   -0.07494   0.00320   0.03163   0.04763   0.06415
 Alpha virt. eigenvalues --    0.06884   0.07146   0.07845   0.08405   0.09396
 Alpha virt. eigenvalues --    0.10653   0.11784   0.11942   0.12090   0.12549

 Mulliken charges:
               1
     1  Mg   0.941322
     2  C    0.038108
     3  C   -0.091838
     4  C   -0.057880
     5  C   -0.073572
     6  N   -0.386140
     7  C   -0.002163
     8  C   -0.097968
     9  C   -0.089112
    10  C    0.048306
    11  C    0.049673
    12  C    0.030747
    13  C    0.035577
    14  C    0.181468
    15  O   -0.269080
    16  O   -0.354998
    17  N   -0.422542
    18  C    0.181903
    19  C   -0.187396
    20  C   -0.076403
    21  C    0.120665
    22  C    0.081990
    23  C    0.023472
    24  O   -0.206776
    25  C   -0.002240
    26  N   -0.300366
    27  C    0.043365
    28  C   -0.089803
    29  C   -0.073320
    30  C    0.047152
    31  C    0.019334
    32  C   -0.006929
    33  C   -0.045365
    34  N   -0.471467
    35  C    0.120392
    36  C   -0.177968
    37  C   -0.012357
    38  C    0.113581
    39  C    0.071642
    40  C    0.083616
    41  O   -0.197110
    42  C   -0.074754
    43  C    0.261393
    44  O   -0.250345
    45  O   -0.386698
    46  C    0.141699
    47  C    0.267252
    48  C   -0.113174
    49  C   -0.233458
    50  C    0.035429
    51  C    0.043507
    52  C   -0.012245
    53  C    0.020759
    54  C   -0.185094
    55  C    0.017027
    56  C   -0.001204
    57  C   -0.028088
    58  C    0.002541
    59  C   -0.183956
    60  C   -0.006814
    61  C    0.022192
    62  C   -0.041920
    63  C   -0.007438
    64  C   -0.179439
    65  C   -0.004651
    66  C   -0.013725
    67  H   -0.005438
    68  H    0.025227
    69  H   -0.013020
    70  H    0.033631
    71  H    0.025883
    72  H    0.036363
    73  H    0.041946
    74  H    0.052461
    75  H    0.048783
    76  H    0.040209
    77  H    0.052406
    78  H    0.032077
    79  H    0.052334
    80  H    0.039602
    81  H    0.050117
    82  H    0.055154
    83  H    0.054871
    84  H    0.057074
    85  H    0.045740
    86  H    0.035066
    87  H    0.052063
    88  H    0.043691
    89  H    0.046438
    90  H    0.023315
    91  H    0.036735
    92  H    0.038524
    93  H    0.033876
    94  H    0.047756
    95  H    0.039582
    96  H    0.068563
    97  H    0.031765
    98  H    0.070787
    99  H    0.048041
   100  H    0.061004
   101  H    0.058160
   102  H    0.062503
   103  H    0.032413
   104  H    0.019255
   105  H    0.036356
   106  H    0.028953
   107  H    0.033099
   108  H    0.012776
   109  H    0.023840
   110  H    0.028077
   111  H    0.034266
   112  H    0.011661
   113  H   -0.017652
   114  H    0.011896
   115  H    0.027744
   116  H    0.024558
   117  H    0.036552
   118  H    0.012473
   119  H    0.024670
   120  H    0.011408
   121  H    0.017276
   122  H    0.018741
   123  H    0.026173
   124  H    0.016399
   125  H    0.019452
   126  H    0.043428
   127  H    0.026470
   128  H    0.012364
   129  H    0.026050
   130  H    0.020891
   131  H    0.024686
   132  H    0.011721
   133  H    0.014270
   134  H    0.034088
   135  H    0.029786
   136  H    0.023669
   137  H    0.021879
   138  H    0.008428
   139  H    0.026886
   140  H    0.033389
 Sum of Mulliken charges =  -0.00000

 Dipole moment (field-independent basis, Debye):
    X=              4.6108    Y=              4.3790    Z=              1.1674  Tot=              6.4652
 Quadrupole moment (field-independent basis, Debye-Ang):
   XX=           -368.5846   YY=           -417.5873   ZZ=           -420.4313
   XY=            -30.3335   XZ=              9.5638   YZ=            -11.3992

 Normal termination of Gaussian 16 at Thu Apr 28 08:23:09 2022.
