 Gaussian 16, Revision A.03,
 Gaussian 16:  ES64L-G16RevA.03 25-Dec-2016

 --------------------
 #p ZINDO=(nstates=5)
 --------------------

 ------------------------------
 step_1501_chromophore_27 ZINDO
 ------------------------------
 Symbolic Z-matrix:
 Charge =  0 Multiplicity = 1

                         Standard orientation:
 ---------------------------------------------------------------------
 Center     Atomic      Atomic             Coordinates (Angstroms)
 Number     Number       Type             X           Y           Z
 ---------------------------------------------------------------------
      1         12           0       -4.577619    0.705953    0.115981
      2          6           0       -4.059630   -2.588443    0.384083
      3          6           0       -1.163737    1.288630    0.043680
      4          6           0       -5.178871    4.136469   -0.165998
      5          6           0       -8.052584    0.320321    0.588534
      6          7           0       -2.842657   -0.516522    0.429130
      7          6           0       -2.877047   -1.887876    0.307874
      8          6           0       -1.408727   -2.427330    0.166601
      9          6           0       -0.577614   -1.201336    0.587853
     10          6           0       -1.586075   -0.011352    0.306950
     11          6           0       -0.212311   -1.197156    2.066176
     12          6           0       -1.120599   -2.841183   -1.319653
     13          6           0       -0.165310   -4.087055   -1.494375
     14          6           0        1.115697   -3.836771   -2.118433
     15          8           0        1.421046   -4.094000   -3.277943
     16          8           0        1.958326   -3.351529   -1.221452
     17          7           0       -3.323570    2.453982   -0.159050
     18          6           0       -1.983748    2.445582   -0.187221
     19          6           0       -1.461086    3.763234   -0.328323
     20          6           0       -2.577526    4.637969   -0.438312
     21          6           0       -3.807142    3.763069   -0.249193
     22          6           0       -0.005787    4.175438   -0.283677
     23          6           0       -2.577792    6.147640   -0.662018
     24          8           0       -3.593735    6.773471   -0.575671
     25          6           0       -1.265388    6.886841   -0.937728
     26          7           0       -6.399302    2.061949    0.187291
     27          6           0       -6.351673    3.394950   -0.080183
     28          6           0       -7.749678    4.046326    0.017870
     29          6           0       -8.664667    2.804274    0.290837
     30          6           0       -7.660240    1.630718    0.359291
     31          6           0       -7.904728    5.199362    1.145575
     32          6           0       -9.864554    2.570113   -0.623420
     33          6           0       -9.461245    2.285405   -2.076739
     34          7           0       -5.887858   -0.836339    0.400790
     35          6           0       -7.288799   -0.861783    0.667425
     36          6           0       -7.650538   -2.223447    0.792691
     37          6           0       -6.449970   -2.981698    0.614797
     38          6           0       -5.417402   -2.047626    0.446525
     39          6           0       -9.089891   -2.649017    0.938524
     40          6           0       -5.791094   -4.259456    0.451931
     41          8           0       -6.252428   -5.375009    0.349920
     42          6           0       -4.241157   -4.060613    0.308138
     43          6           0       -3.520143   -4.701423    1.395517
     44          8           0       -3.322355   -4.217998    2.503694
     45          8           0       -3.068677   -5.953454    0.958752
     46          6           0       -2.074544   -6.581240    1.899495
     47          6           0        3.411430   -3.583498   -1.417270
     48          6           0        4.151989   -2.422470   -1.974155
     49          6           0        5.386152   -1.969139   -1.718830
     50          6           0        6.294460   -2.700148   -0.742472
     51          6           0        5.890622   -0.635173   -2.245109
     52          6           0        6.596378   -0.793223   -3.602317
     53          6           0        8.134992   -0.480273   -3.585097
     54          6           0        8.592816    0.891005   -4.144253
     55          6           0        8.938101    0.722567   -5.635261
     56          6           0        9.825812    1.430217   -3.349847
     57          6           0        9.501466    2.005183   -1.969139
     58          6           0       10.312977    1.241308   -0.853630
     59          6           0        9.549209    1.110917    0.483072
     60          6           0        8.911156   -0.269856    0.596325
     61          6           0       10.500992    1.404643    1.645568
     62          6           0        9.646522    1.986186    2.897670
     63          6           0        9.411729    0.982922    4.125568
     64          6           0       10.122809    1.534393    5.471407
     65          6           0       11.215860    0.567572    5.903654
     66          6           0        8.979045    1.618421    6.524750
     67          1           0       -0.081319    1.421706    0.098171
     68          1           0       -5.316861    5.216803   -0.229748
     69          1           0       -9.116388    0.099946    0.706421
     70          1           0       -1.354948   -3.278574    0.845415
     71          1           0        0.260458   -1.224438   -0.107324
     72          1           0       -0.130922   -0.175775    2.439167
     73          1           0        0.703021   -1.744348    2.288526
     74          1           0       -1.036974   -1.741959    2.525963
     75          1           0       -0.851339   -1.958906   -1.900426
     76          1           0       -2.034816   -3.232390   -1.765663
     77          1           0       -0.679719   -4.925482   -1.963661
     78          1           0        0.024101   -4.561744   -0.532049
     79          1           0        0.175149    4.558874   -1.287829
     80          1           0        0.661797    3.361991    0.001453
     81          1           0        0.229897    4.954271    0.441097
     82          1           0       -1.519111    7.931517   -1.118852
     83          1           0       -0.804142    6.424442   -1.809059
     84          1           0       -0.658835    6.812665   -0.034994
     85          1           0       -7.927363    4.466082   -0.972701
     86          1           0       -9.032922    2.773164    1.316056
     87          1           0       -6.951443    5.233802    1.672219
     88          1           0       -8.734586    4.943353    1.804884
     89          1           0       -8.101396    6.162373    0.674182
     90          1           0      -10.294819    3.571534   -0.617362
     91          1           0      -10.632232    1.936550   -0.178747
     92          1           0       -9.395422    1.211550   -2.251476
     93          1           0       -8.432650    2.564007   -2.302907
     94          1           0      -10.167228    2.801702   -2.727831
     95          1           0       -9.565228   -2.342554    1.870322
     96          1           0       -9.082469   -3.724291    0.760145
     97          1           0       -9.762362   -2.110767    0.271430
     98          1           0       -3.901497   -4.532474   -0.614457
     99          1           0       -1.397703   -5.829916    2.305428
    100          1           0       -1.571294   -7.360663    1.327390
    101          1           0       -2.533193   -7.008978    2.790964
    102          1           0        3.646748   -4.575623   -1.803907
    103          1           0        3.761856   -3.653314   -0.387396
    104          1           0        3.508147   -1.732264   -2.521434
    105          1           0        7.051558   -3.149723   -1.384891
    106          1           0        5.925025   -3.563218   -0.188845
    107          1           0        6.789149   -1.992803   -0.076674
    108          1           0        6.541644   -0.199201   -1.486779
    109          1           0        5.069595    0.061600   -2.415777
    110          1           0        6.086877   -0.147561   -4.317507
    111          1           0        6.380240   -1.840503   -3.813524
    112          1           0        8.659426   -1.300015   -4.077285
    113          1           0        8.542008   -0.554884   -2.576960
    114          1           0        7.718660    1.541087   -4.097721
    115          1           0        8.554881    1.621916   -6.117039
    116          1           0        8.340674   -0.127337   -5.963499
    117          1           0        9.996915    0.556576   -5.835888
    118          1           0       10.239551    2.322417   -3.819911
    119          1           0       10.645452    0.711643   -3.373039
    120          1           0        8.433937    2.104476   -1.776027
    121          1           0        9.725087    3.071266   -2.017059
    122          1           0       11.131416    1.949640   -0.731206
    123          1           0       10.705625    0.259098   -1.117903
    124          1           0        8.741381    1.839563    0.418082
    125          1           0        8.978874   -0.787515   -0.360114
    126          1           0        7.844285   -0.240661    0.813884
    127          1           0        9.353249   -0.934236    1.339585
    128          1           0       11.167918    2.184051    1.276157
    129          1           0       11.110380    0.542596    1.918814
    130          1           0        8.632119    2.242742    2.591375
    131          1           0       10.108299    2.908069    3.253108
    132          1           0        9.689238   -0.054187    3.937683
    133          1           0        8.331195    0.874347    4.222434
    134          1           0       10.528382    2.517258    5.229300
    135          1           0       11.740261   -0.074121    5.196272
    136          1           0       10.898415   -0.095407    6.707620
    137          1           0       12.025733    1.153802    6.339261
    138          1           0        9.242662    1.309790    7.536394
    139          1           0        8.160310    0.908305    6.407198
    140          1           0        8.601803    2.625943    6.697404
 ---------------------------------------------------------------------

 SCF Done:  E(RZINDO/S) =  -474.321021290     A.U. after   19 cycles

 Excitation energies and oscillator strengths:

 Excited State   1:      Singlet-A      1.2852 eV  964.67 nm  f=0.5987  <S**2>=0.000
     175 ->178        -0.16108
     176 ->177         0.66748
 This state for optimization and/or second-order correction.
 Total Energy, E(CIS/TDA) =  -474.273789291
 Copying the excited state density for this state as the 1-particle RhoCI density.

 Excited State   2:      Singlet-A      1.9597 eV  632.68 nm  f=0.1250  <S**2>=0.000
     175 ->177         0.59301
     176 ->178         0.33878

 Excited State   3:      Singlet-A      2.9904 eV  414.60 nm  f=0.0161  <S**2>=0.000
     167 ->177         0.11942
     167 ->178        -0.11100
     167 ->179         0.14486
     167 ->180        -0.12952
     167 ->186        -0.10524
     168 ->177         0.29922
     168 ->178        -0.22899
     168 ->179         0.29590
     168 ->180        -0.24694
     168 ->186        -0.21644
     176 ->178        -0.10048

 Excited State   4:      Singlet-A      3.0415 eV  407.65 nm  f=0.8298  <S**2>=0.000
     171 ->177         0.11515
     175 ->177        -0.29359
     176 ->178         0.55729

 Excited State   5:      Singlet-A      3.0789 eV  402.70 nm  f=0.0835  <S**2>=0.000
     170 ->177         0.28883
     170 ->179        -0.28522
     170 ->180        -0.28341
     170 ->183        -0.12310
     170 ->186         0.16530
     170 ->189        -0.16189
     171 ->179         0.15751
     171 ->180         0.13959
     176 ->178         0.16561

 The electronic state is 1-A.
 Alpha  occ. eigenvalues --   -1.84773  -1.80752  -1.79736  -1.75342  -1.71607
 Alpha  occ. eigenvalues --   -1.71051  -1.65519  -1.61235  -1.59440  -1.58087
 Alpha  occ. eigenvalues --   -1.54495  -1.52033  -1.49019  -1.47708  -1.46943
 Alpha  occ. eigenvalues --   -1.44449  -1.42459  -1.40532  -1.38174  -1.37913
 Alpha  occ. eigenvalues --   -1.35310  -1.33656  -1.33070  -1.31996  -1.27844
 Alpha  occ. eigenvalues --   -1.27340  -1.24848  -1.22178  -1.21139  -1.18535
 Alpha  occ. eigenvalues --   -1.17148  -1.16429  -1.15629  -1.14485  -1.14233
 Alpha  occ. eigenvalues --   -1.12401  -1.10760  -1.09547  -1.05373  -1.03691
 Alpha  occ. eigenvalues --   -1.02776  -1.02186  -0.99384  -0.98445  -0.97289
 Alpha  occ. eigenvalues --   -0.96992  -0.94976  -0.94195  -0.93631  -0.92889
 Alpha  occ. eigenvalues --   -0.91688  -0.90107  -0.89967  -0.88586  -0.87979
 Alpha  occ. eigenvalues --   -0.84879  -0.84038  -0.83184  -0.81589  -0.80864
 Alpha  occ. eigenvalues --   -0.80424  -0.78295  -0.76882  -0.76631  -0.75661
 Alpha  occ. eigenvalues --   -0.75435  -0.75117  -0.74987  -0.74164  -0.74061
 Alpha  occ. eigenvalues --   -0.73103  -0.72815  -0.72226  -0.71931  -0.71500
 Alpha  occ. eigenvalues --   -0.71031  -0.70027  -0.69323  -0.68288  -0.68041
 Alpha  occ. eigenvalues --   -0.67666  -0.67599  -0.66929  -0.66599  -0.66014
 Alpha  occ. eigenvalues --   -0.65566  -0.64613  -0.64211  -0.63813  -0.63364
 Alpha  occ. eigenvalues --   -0.62681  -0.62659  -0.62219  -0.61888  -0.61839
 Alpha  occ. eigenvalues --   -0.61350  -0.61135  -0.60645  -0.60496  -0.60064
 Alpha  occ. eigenvalues --   -0.59645  -0.59539  -0.59099  -0.59018  -0.58429
 Alpha  occ. eigenvalues --   -0.58093  -0.57399  -0.57234  -0.56999  -0.55720
 Alpha  occ. eigenvalues --   -0.55516  -0.55260  -0.55222  -0.54962  -0.54846
 Alpha  occ. eigenvalues --   -0.54543  -0.54130  -0.53581  -0.53337  -0.53026
 Alpha  occ. eigenvalues --   -0.52676  -0.52581  -0.52505  -0.52011  -0.51665
 Alpha  occ. eigenvalues --   -0.51532  -0.51168  -0.51083  -0.50823  -0.50717
 Alpha  occ. eigenvalues --   -0.50129  -0.49538  -0.49370  -0.49174  -0.49132
 Alpha  occ. eigenvalues --   -0.48560  -0.48390  -0.48243  -0.47802  -0.47415
 Alpha  occ. eigenvalues --   -0.47259  -0.47041  -0.47009  -0.46959  -0.46825
 Alpha  occ. eigenvalues --   -0.46666  -0.46453  -0.46304  -0.45961  -0.45628
 Alpha  occ. eigenvalues --   -0.45346  -0.45185  -0.44782  -0.44599  -0.44493
 Alpha  occ. eigenvalues --   -0.44222  -0.43949  -0.43051  -0.42236  -0.41970
 Alpha  occ. eigenvalues --   -0.41647  -0.41426  -0.40750  -0.38868  -0.38393
 Alpha  occ. eigenvalues --   -0.38277  -0.36663  -0.35978  -0.34611  -0.33983
 Alpha  occ. eigenvalues --   -0.33840  -0.32692  -0.32101  -0.31608  -0.26613
 Alpha  occ. eigenvalues --   -0.22223
 Alpha virt. eigenvalues --   -0.08797  -0.01795  -0.00079   0.01490   0.02272
 Alpha virt. eigenvalues --    0.02996   0.03123   0.03273   0.04515   0.04922
 Alpha virt. eigenvalues --    0.06340   0.06408   0.06742   0.07970   0.08255

 Mulliken charges:
               1
     1  Mg   0.423162
     2  C   -0.047991
     3  C   -0.110347
     4  C   -0.043987
     5  C   -0.041343
     6  N   -0.301941
     7  C    0.107250
     8  C    0.001436
     9  C    0.006077
    10  C    0.164918
    11  C   -0.045471
    12  C   -0.018845
    13  C    0.004257
    14  C    0.490525
    15  O   -0.537386
    16  O   -0.273631
    17  N   -0.321527
    18  C    0.159974
    19  C    0.013420
    20  C   -0.041105
    21  C    0.122107
    22  C   -0.043061
    23  C    0.327776
    24  O   -0.503500
    25  C   -0.031407
    26  N   -0.255623
    27  C    0.146337
    28  C    0.000786
    29  C    0.001800
    30  C    0.095906
    31  C   -0.053646
    32  C   -0.025935
    33  C   -0.054065
    34  N   -0.320043
    35  C    0.045885
    36  C    0.030400
    37  C   -0.073078
    38  C    0.131860
    39  C   -0.044185
    40  C    0.338440
    41  O   -0.534859
    42  C    0.059098
    43  C    0.494578
    44  O   -0.530987
    45  O   -0.276839
    46  C    0.070367
    47  C    0.112265
    48  C   -0.082320
    49  C    0.000518
    50  C   -0.050642
    51  C   -0.017417
    52  C   -0.033311
    53  C   -0.037259
    54  C   -0.010310
    55  C   -0.060710
    56  C   -0.033803
    57  C   -0.040150
    58  C   -0.040994
    59  C   -0.007454
    60  C   -0.057681
    61  C   -0.033834
    62  C   -0.050368
    63  C   -0.048872
    64  C   -0.000284
    65  C   -0.053473
    66  C   -0.060080
    67  H    0.026899
    68  H    0.042870
    69  H    0.022901
    70  H    0.039803
    71  H    0.026825
    72  H    0.023719
    73  H    0.020097
    74  H    0.033116
    75  H    0.037524
    76  H    0.020201
    77  H    0.036205
    78  H    0.030285
    79  H    0.034868
    80  H    0.025818
    81  H    0.031146
    82  H    0.038325
    83  H    0.038735
    84  H    0.042514
    85  H    0.035698
    86  H    0.023685
    87  H    0.030901
    88  H    0.026871
    89  H    0.025950
    90  H    0.004144
    91  H    0.031952
    92  H    0.020520
    93  H    0.022763
    94  H    0.022393
    95  H    0.030863
    96  H    0.034265
    97  H    0.024020
    98  H    0.056104
    99  H    0.041388
   100  H    0.034347
   101  H    0.047006
   102  H    0.060269
   103  H    0.023163
   104  H    0.024660
   105  H    0.022135
   106  H    0.026289
   107  H    0.029318
   108  H    0.022327
   109  H    0.018577
   110  H    0.023623
   111  H    0.027157
   112  H    0.014119
   113  H    0.011525
   114  H    0.024229
   115  H    0.015113
   116  H    0.017626
   117  H    0.027666
   118  H    0.006959
   119  H    0.026475
   120  H    0.018592
   121  H    0.013439
   122  H    0.013606
   123  H    0.030040
   124  H    0.023397
   125  H    0.014372
   126  H    0.013501
   127  H    0.019434
   128  H    0.015304
   129  H    0.029323
   130  H    0.018286
   131  H    0.021397
   132  H    0.022182
   133  H    0.014918
   134  H    0.033747
   135  H    0.021808
   136  H    0.017830
   137  H    0.006078
   138  H    0.006750
   139  H    0.022633
   140  H    0.018037
 Sum of Mulliken charges =  -0.00000

 Dipole moment (field-independent basis, Debye):
    X=              7.0845    Y=              6.1319    Z=              0.4695  Tot=              9.3814
 N-N= 4.403612629224D+03 E-N= 0.000000000000D+00  KE=-9.481276560559D+03
 Leave Link  601 at Thu Apr 28 08:36:22 2022, MaxMem=  6710886400 cpu:               0.8 elap:               0.0
 (Enter /sw/apps/gaussian-16.0/g16/l9999.exe)
 1\1\GINC-BP1-COMPUTE140\SP\RZINDO CIS\STO-3G\C55H74Mg1N4O6\OF15641\28-
 Apr-2022\0\\#p ZINDO=(nstates=5)\\step_1501_chromophore_27 ZINDO\\0,1\
 Mg,0,-4.398,24.642,26.832\C,0,-3.06,26.632,29.165\C,0,-5.773,22.612,29
 .279\C,0,-5.774,22.601,24.352\C,0,-2.733,26.36,24.239\N,0,-4.208,24.53
 ,28.966\C,0,-3.773,25.595,29.723\C,0,-4.155,25.346,31.226\C,0,-4.528,2
 3.852,31.216\C,0,-4.909,23.621,29.695\C,0,-3.366,22.936,31.576\C,0,-5.
 374,26.246,31.635\C,0,-5.349,26.77,33.125\C,0,-6.394,26.283,33.999\O,0

 Normal termination of Gaussian 16 at Thu Apr 28 08:36:22 2022.
