 Gaussian 16, Revision A.03,
 Gaussian 16:  ES64L-G16RevA.03 25-Dec-2016

 ------------------------------
 #p blyp/Def2SVP td=(nstates=5)
 ------------------------------

 ------------------------------------------------
 step_1_chromophore_21 TDDFT with blyp functional
 ------------------------------------------------
 Symbolic Z-matrix:
 Charge =  0 Multiplicity = 1

                         Standard orientation:
 ---------------------------------------------------------------------
 Center     Atomic      Atomic             Coordinates (Angstroms)
 Number     Number       Type             X           Y           Z
 ---------------------------------------------------------------------
      1         12           0       -4.503034   -0.881099   -0.021054
      2          6           0       -3.965956    2.470970    0.827370
      3          6           0       -1.385076   -1.020882   -1.413679
      4          6           0       -5.214074   -3.929890   -1.088990
      5          6           0       -7.806961   -0.537645    1.298996
      6          7           0       -2.885886    0.609613   -0.293800
      7          6           0       -2.815825    1.902167    0.176400
      8          6           0       -1.401075    2.437051    0.052551
      9          6           0       -0.711568    1.395962   -0.915225
     10          6           0       -1.723638    0.207906   -0.777435
     11          6           0       -0.586880    1.887030   -2.351897
     12          6           0       -0.796471    2.692433    1.481225
     13          6           0        0.718523    3.037374    1.458181
     14          6           0        1.234696    3.751088    0.226060
     15          8           0        0.728105    4.784035   -0.223480
     16          8           0        2.265320    3.136488   -0.360546
     17          7           0       -3.473258   -2.238861   -1.050879
     18          6           0       -2.226759   -2.097540   -1.647615
     19          6           0       -1.844427   -3.302612   -2.404457
     20          6           0       -2.975543   -4.163716   -2.260369
     21          6           0       -3.949917   -3.441414   -1.446716
     22          6           0       -0.526658   -3.463573   -3.064989
     23          6           0       -3.124268   -5.540693   -2.854322
     24          8           0       -4.142522   -6.254835   -2.638762
     25          6           0       -2.023837   -6.162466   -3.670731
     26          7           0       -6.266946   -2.091203    0.145879
     27          6           0       -6.251351   -3.309451   -0.395563
     28          6           0       -7.691759   -3.979381   -0.292890
     29          6           0       -8.570223   -2.835594    0.465396
     30          6           0       -7.504689   -1.752282    0.638018
     31          6           0       -8.187531   -4.331823   -1.755043
     32          6           0       -9.126579   -3.269647    1.888497
     33          6           0      -10.484936   -4.027984    1.882260
     34          7           0       -5.700232    0.602340    0.807595
     35          6           0       -6.984639    0.596806    1.412989
     36          6           0       -7.269288    1.970418    2.019146
     37          6           0       -6.154286    2.759017    1.753837
     38          6           0       -5.193800    1.846740    1.082208
     39          6           0       -8.475702    2.398640    2.794450
     40          6           0       -5.524915    4.045946    1.936563
     41          8           0       -5.913380    5.090377    2.469153
     42          6           0       -3.987115    3.865078    1.499986
     43          6           0       -3.500960    4.975198    0.596598
     44          8           0       -3.626004    4.973740   -0.598240
     45          8           0       -2.681205    5.884569    1.302465
     46          6           0       -1.782702    6.736979    0.509488
     47          6           0        2.887451    3.772691   -1.495920
     48          6           0        4.274227    3.184617   -1.462061
     49          6           0        5.429182    3.849122   -1.729022
     50          6           0        5.680667    5.264558   -2.168399
     51          6           0        6.719029    3.143439   -1.401175
     52          6           0        7.481538    2.709997   -2.668573
     53          6           0        7.907078    1.179744   -2.673384
     54          6           0        9.403178    1.049736   -2.773859
     55          6           0        9.864079    1.263059   -4.241446
     56          6           0       10.010024   -0.247490   -2.231329
     57          6           0        9.820481   -0.535210   -0.702914
     58          6           0        8.893110   -1.647803   -0.361513
     59          6           0        9.571387   -2.796449    0.434606
     60          6           0        8.976352   -4.099770    0.072086
     61          6           0        9.423748   -2.653498    1.946628
     62          6           0       10.683320   -3.000190    2.729548
     63          6           0       10.371072   -3.846279    3.993214
     64          6           0        9.586117   -3.176753    5.170423
     65          6           0       10.410418   -3.019734    6.443931
     66          6           0        8.257878   -3.956770    5.364166
     67          1           0       -0.393511   -0.891062   -1.853141
     68          1           0       -5.448287   -4.930882   -1.457671
     69          1           0       -8.828991   -0.331141    1.623745
     70          1           0       -1.462268    3.412544   -0.428233
     71          1           0        0.259871    1.022312   -0.589898
     72          1           0        0.474944    1.827742   -2.590407
     73          1           0       -1.042918    2.874487   -2.419217
     74          1           0       -0.989551    1.179477   -3.076298
     75          1           0       -1.196451    1.843812    2.035292
     76          1           0       -1.345224    3.547575    1.874386
     77          1           0        1.192685    2.063486    1.580213
     78          1           0        0.931320    3.673387    2.317309
     79          1           0       -0.800544   -3.522638   -4.118224
     80          1           0        0.033808   -4.325325   -2.703534
     81          1           0        0.199391   -2.650862   -3.019200
     82          1           0       -1.149704   -6.302369   -3.036272
     83          1           0       -1.945216   -5.393773   -4.440525
     84          1           0       -2.267024   -7.091495   -4.185610
     85          1           0       -7.458323   -4.824766    0.355530
     86          1           0       -9.291602   -2.276094   -0.131664
     87          1           0       -7.498125   -4.043541   -2.548402
     88          1           0       -9.130049   -3.822806   -1.958475
     89          1           0       -8.232634   -5.419914   -1.790430
     90          1           0       -9.069429   -2.463156    2.618970
     91          1           0       -8.406892   -3.990397    2.275302
     92          1           0      -10.319044   -4.968297    2.406800
     93          1           0      -10.820898   -4.125977    0.849886
     94          1           0      -11.258755   -3.485934    2.426365
     95          1           0       -8.155043    2.475402    3.833613
     96          1           0       -9.281610    1.674481    2.669263
     97          1           0       -8.904812    3.374918    2.569917
     98          1           0       -3.415782    3.826904    2.427015
     99          1           0       -2.423781    7.526892    0.119042
    100          1           0       -1.223202    6.142551   -0.213094
    101          1           0       -1.036697    7.118883    1.205915
    102          1           0        2.913427    4.862510   -1.474822
    103          1           0        2.414848    3.519628   -2.445393
    104          1           0        4.321311    2.181281   -1.039172
    105          1           0        6.060405    5.188392   -3.187163
    106          1           0        6.368184    5.836668   -1.545150
    107          1           0        4.719818    5.779530   -2.187566
    108          1           0        6.601875    2.240934   -0.801601
    109          1           0        7.405887    3.795931   -0.861522
    110          1           0        8.374800    3.331799   -2.609432
    111          1           0        6.870410    2.962241   -3.534779
    112          1           0        7.389842    0.779298   -3.545384
    113          1           0        7.523416    0.617883   -1.821642
    114          1           0        9.766334    1.886466   -2.176898
    115          1           0        9.796816    2.341603   -4.378870
    116          1           0        9.186829    0.975237   -5.045614
    117          1           0       10.856744    0.862365   -4.446166
    118          1           0       11.056682   -0.168621   -2.523880
    119          1           0        9.526739   -1.015972   -2.833493
    120          1           0        9.524869    0.341874   -0.128347
    121          1           0       10.767947   -0.772624   -0.218864
    122          1           0        8.549095   -2.043324   -1.316703
    123          1           0        8.102679   -1.227389    0.261012
    124          1           0       10.619836   -2.728556    0.143581
    125          1           0        8.845214   -4.851237    0.850436
    126          1           0        9.617817   -4.520946   -0.701680
    127          1           0        7.969702   -4.004284   -0.335209
    128          1           0        8.603624   -3.306776    2.245717
    129          1           0        9.135756   -1.645791    2.244683
    130          1           0       11.234726   -2.101168    3.005275
    131          1           0       11.415514   -3.465106    2.067550
    132          1           0       11.352810   -4.191442    4.320658
    133          1           0        9.891247   -4.791268    3.739351
    134          1           0        9.455662   -2.140037    4.859323
    135          1           0       10.101046   -3.744131    7.197428
    136          1           0       10.318578   -2.021228    6.872389
    137          1           0       11.472623   -3.105358    6.212154
    138          1           0        8.329799   -5.031066    5.198364
    139          1           0        7.464126   -3.430709    4.833626
    140          1           0        8.050596   -3.919442    6.434110
 ---------------------------------------------------------------------

 SCF Done:  E(RB-LYP) =  -3007.40191110     A.U. after   22 cycles

 Excitation energies and oscillator strengths:

 Excited State   1:      Singlet-A      1.7977 eV  689.68 nm  f=0.2974  <S**2>=0.000
     245 -> 248       -0.20932
     246 -> 247        0.68483
     246 <- 247       -0.14287
 This state for optimization and/or second-order correction.
 Total Energy, E(TD-HF/TD-DFT) =  -3007.33584643
 Copying the excited state density for this state as the 1-particle RhoCI density.

 Excited State   2:      Singlet-A      1.9581 eV  633.17 nm  f=0.0001  <S**2>=0.000
     244 -> 247        0.70587

 Excited State   3:      Singlet-A      2.0140 eV  615.60 nm  f=0.0465  <S**2>=0.000
     243 -> 247       -0.23655
     245 -> 247        0.60357
     246 -> 248        0.26563

 Excited State   4:      Singlet-A      2.1399 eV  579.40 nm  f=0.0035  <S**2>=0.000
     243 -> 247        0.66101
     245 -> 247        0.18491
     246 -> 248        0.15830

 Excited State   5:      Singlet-A      2.6413 eV  469.40 nm  f=0.0059  <S**2>=0.000
     242 -> 247       -0.12366
     246 -> 248        0.16944
     246 -> 249        0.64942

 The electronic state is 1-A.
 Alpha  occ. eigenvalues --  -46.26476 -18.84185 -18.79959 -18.77644 -18.76249
 Alpha  occ. eigenvalues --  -18.75633 -18.74990 -14.03084 -14.02719 -14.01289
 Alpha  occ. eigenvalues --  -14.01261 -10.05464 -10.03037  -9.99787  -9.99767
 Alpha  occ. eigenvalues --   -9.98863  -9.96382  -9.96285  -9.96157  -9.95820
 Alpha  occ. eigenvalues --   -9.95803  -9.95785  -9.95689  -9.95566  -9.94985
 Alpha  occ. eigenvalues --   -9.94626  -9.94407  -9.94248  -9.94200  -9.94181
 Alpha  occ. eigenvalues --   -9.93683  -9.93677  -9.93648  -9.93590  -9.93526
 Alpha  occ. eigenvalues --   -9.93502  -9.93499  -9.93188  -9.92975  -9.92655
 Alpha  occ. eigenvalues --   -9.92547  -9.92530  -9.92407  -9.92376  -9.92187
 Alpha  occ. eigenvalues --   -9.92092  -9.92011  -9.91973  -9.91957  -9.91848
 Alpha  occ. eigenvalues --   -9.91751  -9.91711  -9.91622  -9.91547  -9.91500
 Alpha  occ. eigenvalues --   -9.91253  -9.91184  -9.91171  -9.91119  -9.91108
 Alpha  occ. eigenvalues --   -9.91052  -9.90800  -9.90774  -9.90687  -9.90529
 Alpha  occ. eigenvalues --   -9.90417  -2.91246  -1.71676  -1.71115  -1.70971
 Alpha  occ. eigenvalues --   -1.00559  -0.95885  -0.90904  -0.90378  -0.89296
 Alpha  occ. eigenvalues --   -0.88823  -0.86451  -0.85713  -0.85105  -0.83774
 Alpha  occ. eigenvalues --   -0.74574  -0.74277  -0.73988  -0.73000  -0.72532
 Alpha  occ. eigenvalues --   -0.71939  -0.71392  -0.71095  -0.70772  -0.70125
 Alpha  occ. eigenvalues --   -0.69898  -0.69682  -0.68462  -0.67733  -0.66614
 Alpha  occ. eigenvalues --   -0.66448  -0.65789  -0.65723  -0.64941  -0.64658
 Alpha  occ. eigenvalues --   -0.63796  -0.63040  -0.62583  -0.61630  -0.60978
 Alpha  occ. eigenvalues --   -0.60413  -0.60049  -0.59859  -0.59164  -0.59109
 Alpha  occ. eigenvalues --   -0.58928  -0.56968  -0.56565  -0.56030  -0.54066
 Alpha  occ. eigenvalues --   -0.53835  -0.53595  -0.52847  -0.52463  -0.52015
 Alpha  occ. eigenvalues --   -0.51518  -0.51386  -0.50979  -0.50115  -0.49927
 Alpha  occ. eigenvalues --   -0.49652  -0.49564  -0.49003  -0.47129  -0.46929
 Alpha  occ. eigenvalues --   -0.46736  -0.46071  -0.45396  -0.44549  -0.43997
 Alpha  occ. eigenvalues --   -0.43757  -0.43505  -0.43235  -0.42821  -0.42446
 Alpha  occ. eigenvalues --   -0.42070  -0.41835  -0.41422  -0.41112  -0.41001
 Alpha  occ. eigenvalues --   -0.40888  -0.40822  -0.40412  -0.40181  -0.39997
 Alpha  occ. eigenvalues --   -0.39921  -0.39609  -0.39404  -0.39239  -0.39141
 Alpha  occ. eigenvalues --   -0.39071  -0.39004  -0.38777  -0.38602  -0.38249
 Alpha  occ. eigenvalues --   -0.38075  -0.37894  -0.37636  -0.37485  -0.37406
 Alpha  occ. eigenvalues --   -0.37136  -0.37017  -0.36798  -0.36761  -0.36639
 Alpha  occ. eigenvalues --   -0.36610  -0.36289  -0.36151  -0.35850  -0.35692
 Alpha  occ. eigenvalues --   -0.35588  -0.35446  -0.35047  -0.35005  -0.34891
 Alpha  occ. eigenvalues --   -0.34632  -0.34449  -0.33975  -0.33941  -0.33825
 Alpha  occ. eigenvalues --   -0.33701  -0.33585  -0.33537  -0.33261  -0.33230
 Alpha  occ. eigenvalues --   -0.33063  -0.32878  -0.32598  -0.32568  -0.32418
 Alpha  occ. eigenvalues --   -0.32310  -0.32166  -0.32059  -0.31765  -0.31464
 Alpha  occ. eigenvalues --   -0.31416  -0.31119  -0.30914  -0.30868  -0.30485
 Alpha  occ. eigenvalues --   -0.30360  -0.30087  -0.29920  -0.29633  -0.29436
 Alpha  occ. eigenvalues --   -0.29409  -0.29244  -0.29014  -0.28759  -0.28568
 Alpha  occ. eigenvalues --   -0.28435  -0.28266  -0.28104  -0.27999  -0.27902
 Alpha  occ. eigenvalues --   -0.27752  -0.27364  -0.27339  -0.26871  -0.26665
 Alpha  occ. eigenvalues --   -0.26451  -0.26382  -0.26044  -0.26003  -0.25563
 Alpha  occ. eigenvalues --   -0.25158  -0.24948  -0.24145  -0.23745  -0.23489
 Alpha  occ. eigenvalues --   -0.23120  -0.22764  -0.21713  -0.21270  -0.21147
 Alpha  occ. eigenvalues --   -0.20838  -0.20607  -0.18533  -0.17973  -0.17013
 Alpha  occ. eigenvalues --   -0.15200
 Alpha virt. eigenvalues --   -0.10874  -0.06933  -0.06443  -0.04568  -0.04206
 Alpha virt. eigenvalues --   -0.02473  -0.02239  -0.01442  -0.01004   0.00459
 Alpha virt. eigenvalues --    0.01285   0.01803   0.02350   0.02581   0.02840

 Mulliken charges:
               1
     1  Mg   0.706960
     2  C    0.001024
     3  C   -0.079422
     4  C   -0.053504
     5  C   -0.067768
     6  N   -0.182196
     7  C   -0.074269
     8  C    0.007468
     9  C   -0.047554
    10  C   -0.029832
    11  C    0.149981
    12  C    0.073665
    13  C    0.183277
    14  C    0.064503
    15  O   -0.209221
    16  O   -0.231967
    17  N   -0.320142
    18  C    0.195558
    19  C   -0.142362
    20  C    0.036556
    21  C    0.125926
    22  C    0.183449
    23  C   -0.088742
    24  O   -0.200561
    25  C    0.160945
    26  N   -0.199461
    27  C   -0.007837
    28  C    0.018240
    29  C    0.060562
    30  C   -0.013033
    31  C    0.121118
    32  C    0.056269
    33  C    0.084745
    34  N   -0.285025
    35  C    0.109565
    36  C   -0.179386
    37  C    0.111923
    38  C    0.080048
    39  C    0.160358
    40  C   -0.032878
    41  O   -0.140794
    42  C    0.005227
    43  C    0.141157
    44  O   -0.158414
    45  O   -0.315083
    46  C    0.214672
    47  C    0.310204
    48  C   -0.111683
    49  C   -0.139671
    50  C    0.169673
    51  C    0.125315
    52  C    0.029829
    53  C    0.106722
    54  C   -0.076473
    55  C    0.106686
    56  C    0.112747
    57  C    0.088162
    58  C    0.107064
    59  C   -0.090173
    60  C    0.127306
    61  C    0.125841
    62  C    0.067247
    63  C    0.094188
    64  C   -0.092697
    65  C    0.111475
    66  C    0.124992
    67  H   -0.070550
    68  H   -0.049703
    69  H   -0.057738
    70  H    0.004297
    71  H   -0.027585
    72  H   -0.018460
    73  H    0.018600
    74  H   -0.014107
    75  H   -0.014930
    76  H   -0.005802
    77  H   -0.006946
    78  H    0.007055
    79  H    0.005396
    80  H    0.008667
    81  H   -0.019877
    82  H    0.017990
    83  H   -0.005412
    84  H   -0.008914
    85  H   -0.009069
    86  H   -0.015238
    87  H    0.005827
    88  H   -0.007650
    89  H    0.004023
    90  H   -0.018655
    91  H   -0.033506
    92  H   -0.003190
    93  H   -0.003223
    94  H   -0.008652
    95  H    0.011845
    96  H   -0.018495
    97  H    0.010595
    98  H    0.019259
    99  H    0.012370
   100  H    0.034148
   101  H    0.002151
   102  H    0.002211
   103  H    0.009927
   104  H   -0.031881
   105  H    0.002563
   106  H    0.008035
   107  H   -0.026292
   108  H   -0.037531
   109  H   -0.033126
   110  H   -0.020806
   111  H   -0.016586
   112  H   -0.038790
   113  H   -0.028892
   114  H   -0.039169
   115  H   -0.030863
   116  H   -0.023123
   117  H   -0.011048
   118  H   -0.035283
   119  H   -0.029642
   120  H   -0.044603
   121  H   -0.043304
   122  H   -0.037706
   123  H   -0.033868
   124  H   -0.037491
   125  H   -0.019089
   126  H   -0.024453
   127  H   -0.023297
   128  H   -0.036654
   129  H   -0.045346
   130  H   -0.038375
   131  H   -0.037877
   132  H   -0.051996
   133  H   -0.039797
   134  H   -0.036816
   135  H   -0.016728
   136  H   -0.020278
   137  H   -0.022589
   138  H   -0.007855
   139  H    0.000159
   140  H   -0.036755
 Sum of Mulliken charges =  -0.00000

 Dipole moment (field-independent basis, Debye):
    X=              6.0790    Y=             -2.3533    Z=             -0.2766  Tot=              6.5245
 Quadrupole moment (field-independent basis, Debye-Ang):
   XX=           -387.9260   YY=           -443.4823   ZZ=           -400.6616
   XY=             33.3111   XZ=            -11.5703   YZ=            -11.5513

 Normal termination of Gaussian 16 at Fri Apr 29 07:10:38 2022.
