 Gaussian 16, Revision A.03,
 Gaussian 16:  ES64L-G16RevA.03 25-Dec-2016

 -----------------------------------
 #p cam-b3lyp/Def2SVP td=(nstates=5)
 -----------------------------------

 -----------------------------------------------------
 step_1_chromophore_21 TDDFT with cam-b3lyp functional
 -----------------------------------------------------
 Symbolic Z-matrix:
 Charge =  0 Multiplicity = 1

                         Standard orientation:
 ---------------------------------------------------------------------
 Center     Atomic      Atomic             Coordinates (Angstroms)
 Number     Number       Type             X           Y           Z
 ---------------------------------------------------------------------
      1         12           0       -4.503034   -0.881099   -0.021054
      2          6           0       -3.965956    2.470970    0.827370
      3          6           0       -1.385076   -1.020882   -1.413679
      4          6           0       -5.214074   -3.929890   -1.088990
      5          6           0       -7.806961   -0.537645    1.298996
      6          7           0       -2.885886    0.609613   -0.293800
      7          6           0       -2.815825    1.902167    0.176400
      8          6           0       -1.401075    2.437051    0.052551
      9          6           0       -0.711568    1.395962   -0.915225
     10          6           0       -1.723638    0.207906   -0.777435
     11          6           0       -0.586880    1.887030   -2.351897
     12          6           0       -0.796471    2.692433    1.481225
     13          6           0        0.718523    3.037374    1.458181
     14          6           0        1.234696    3.751088    0.226060
     15          8           0        0.728105    4.784035   -0.223480
     16          8           0        2.265320    3.136488   -0.360546
     17          7           0       -3.473258   -2.238861   -1.050879
     18          6           0       -2.226759   -2.097540   -1.647615
     19          6           0       -1.844427   -3.302612   -2.404457
     20          6           0       -2.975543   -4.163716   -2.260369
     21          6           0       -3.949917   -3.441414   -1.446716
     22          6           0       -0.526658   -3.463573   -3.064989
     23          6           0       -3.124268   -5.540693   -2.854322
     24          8           0       -4.142522   -6.254835   -2.638762
     25          6           0       -2.023837   -6.162466   -3.670731
     26          7           0       -6.266946   -2.091203    0.145879
     27          6           0       -6.251351   -3.309451   -0.395563
     28          6           0       -7.691759   -3.979381   -0.292890
     29          6           0       -8.570223   -2.835594    0.465396
     30          6           0       -7.504689   -1.752282    0.638018
     31          6           0       -8.187531   -4.331823   -1.755043
     32          6           0       -9.126579   -3.269647    1.888497
     33          6           0      -10.484936   -4.027984    1.882260
     34          7           0       -5.700232    0.602340    0.807595
     35          6           0       -6.984639    0.596806    1.412989
     36          6           0       -7.269288    1.970418    2.019146
     37          6           0       -6.154286    2.759017    1.753837
     38          6           0       -5.193800    1.846740    1.082208
     39          6           0       -8.475702    2.398640    2.794450
     40          6           0       -5.524915    4.045946    1.936563
     41          8           0       -5.913380    5.090377    2.469153
     42          6           0       -3.987115    3.865078    1.499986
     43          6           0       -3.500960    4.975198    0.596598
     44          8           0       -3.626004    4.973740   -0.598240
     45          8           0       -2.681205    5.884569    1.302465
     46          6           0       -1.782702    6.736979    0.509488
     47          6           0        2.887451    3.772691   -1.495920
     48          6           0        4.274227    3.184617   -1.462061
     49          6           0        5.429182    3.849122   -1.729022
     50          6           0        5.680667    5.264558   -2.168399
     51          6           0        6.719029    3.143439   -1.401175
     52          6           0        7.481538    2.709997   -2.668573
     53          6           0        7.907078    1.179744   -2.673384
     54          6           0        9.403178    1.049736   -2.773859
     55          6           0        9.864079    1.263059   -4.241446
     56          6           0       10.010024   -0.247490   -2.231329
     57          6           0        9.820481   -0.535210   -0.702914
     58          6           0        8.893110   -1.647803   -0.361513
     59          6           0        9.571387   -2.796449    0.434606
     60          6           0        8.976352   -4.099770    0.072086
     61          6           0        9.423748   -2.653498    1.946628
     62          6           0       10.683320   -3.000190    2.729548
     63          6           0       10.371072   -3.846279    3.993214
     64          6           0        9.586117   -3.176753    5.170423
     65          6           0       10.410418   -3.019734    6.443931
     66          6           0        8.257878   -3.956770    5.364166
     67          1           0       -0.393511   -0.891062   -1.853141
     68          1           0       -5.448287   -4.930882   -1.457671
     69          1           0       -8.828991   -0.331141    1.623745
     70          1           0       -1.462268    3.412544   -0.428233
     71          1           0        0.259871    1.022312   -0.589898
     72          1           0        0.474944    1.827742   -2.590407
     73          1           0       -1.042918    2.874487   -2.419217
     74          1           0       -0.989551    1.179477   -3.076298
     75          1           0       -1.196451    1.843812    2.035292
     76          1           0       -1.345224    3.547575    1.874386
     77          1           0        1.192685    2.063486    1.580213
     78          1           0        0.931320    3.673387    2.317309
     79          1           0       -0.800544   -3.522638   -4.118224
     80          1           0        0.033808   -4.325325   -2.703534
     81          1           0        0.199391   -2.650862   -3.019200
     82          1           0       -1.149704   -6.302369   -3.036272
     83          1           0       -1.945216   -5.393773   -4.440525
     84          1           0       -2.267024   -7.091495   -4.185610
     85          1           0       -7.458323   -4.824766    0.355530
     86          1           0       -9.291602   -2.276094   -0.131664
     87          1           0       -7.498125   -4.043541   -2.548402
     88          1           0       -9.130049   -3.822806   -1.958475
     89          1           0       -8.232634   -5.419914   -1.790430
     90          1           0       -9.069429   -2.463156    2.618970
     91          1           0       -8.406892   -3.990397    2.275302
     92          1           0      -10.319044   -4.968297    2.406800
     93          1           0      -10.820898   -4.125977    0.849886
     94          1           0      -11.258755   -3.485934    2.426365
     95          1           0       -8.155043    2.475402    3.833613
     96          1           0       -9.281610    1.674481    2.669263
     97          1           0       -8.904812    3.374918    2.569917
     98          1           0       -3.415782    3.826904    2.427015
     99          1           0       -2.423781    7.526892    0.119042
    100          1           0       -1.223202    6.142551   -0.213094
    101          1           0       -1.036697    7.118883    1.205915
    102          1           0        2.913427    4.862510   -1.474822
    103          1           0        2.414848    3.519628   -2.445393
    104          1           0        4.321311    2.181281   -1.039172
    105          1           0        6.060405    5.188392   -3.187163
    106          1           0        6.368184    5.836668   -1.545150
    107          1           0        4.719818    5.779530   -2.187566
    108          1           0        6.601875    2.240934   -0.801601
    109          1           0        7.405887    3.795931   -0.861522
    110          1           0        8.374800    3.331799   -2.609432
    111          1           0        6.870410    2.962241   -3.534779
    112          1           0        7.389842    0.779298   -3.545384
    113          1           0        7.523416    0.617883   -1.821642
    114          1           0        9.766334    1.886466   -2.176898
    115          1           0        9.796816    2.341603   -4.378870
    116          1           0        9.186829    0.975237   -5.045614
    117          1           0       10.856744    0.862365   -4.446166
    118          1           0       11.056682   -0.168621   -2.523880
    119          1           0        9.526739   -1.015972   -2.833493
    120          1           0        9.524869    0.341874   -0.128347
    121          1           0       10.767947   -0.772624   -0.218864
    122          1           0        8.549095   -2.043324   -1.316703
    123          1           0        8.102679   -1.227389    0.261012
    124          1           0       10.619836   -2.728556    0.143581
    125          1           0        8.845214   -4.851237    0.850436
    126          1           0        9.617817   -4.520946   -0.701680
    127          1           0        7.969702   -4.004284   -0.335209
    128          1           0        8.603624   -3.306776    2.245717
    129          1           0        9.135756   -1.645791    2.244683
    130          1           0       11.234726   -2.101168    3.005275
    131          1           0       11.415514   -3.465106    2.067550
    132          1           0       11.352810   -4.191442    4.320658
    133          1           0        9.891247   -4.791268    3.739351
    134          1           0        9.455662   -2.140037    4.859323
    135          1           0       10.101046   -3.744131    7.197428
    136          1           0       10.318578   -2.021228    6.872389
    137          1           0       11.472623   -3.105358    6.212154
    138          1           0        8.329799   -5.031066    5.198364
    139          1           0        7.464126   -3.430709    4.833626
    140          1           0        8.050596   -3.919442    6.434110
 ---------------------------------------------------------------------

 SCF Done:  E(RCAM-B3LYP) =  -3007.19639568     A.U. after   17 cycles

 Excitation energies and oscillator strengths:

 Excited State   1:      Singlet-A      1.7140 eV  723.37 nm  f=0.3751  <S**2>=0.000
     245 -> 248        0.19961
     246 -> 247        0.68034
     245 <- 248        0.11167
 This state for optimization and/or second-order correction.
 Total Energy, E(TD-HF/TD-DFT) =  -3007.13340834
 Copying the excited state density for this state as the 1-particle RhoCI density.

 Excited State   2:      Singlet-A      2.2892 eV  541.60 nm  f=0.0361  <S**2>=0.000
     245 -> 247        0.58819
     246 -> 248       -0.38583

 Excited State   3:      Singlet-A      3.3661 eV  368.33 nm  f=0.7844  <S**2>=0.000
     240 -> 247       -0.13037
     245 -> 247        0.37161
     246 -> 248        0.57435
     245 <- 247       -0.10857

 Excited State   4:      Singlet-A      3.5242 eV  351.81 nm  f=0.0002  <S**2>=0.000
     240 -> 247       -0.10876
     242 -> 247        0.49110
     242 -> 248        0.11510
     242 -> 249       -0.31558
     242 -> 250       -0.29413

 Excited State   5:      Singlet-A      3.5299 eV  351.24 nm  f=0.0322  <S**2>=0.000
     239 -> 247        0.22535
     239 -> 249        0.16542
     239 -> 250       -0.10079
     240 -> 247        0.19270
     240 -> 249        0.20921
     243 -> 247        0.39482
     243 -> 249        0.25536
     243 -> 250       -0.14058
     244 -> 247       -0.14117
     246 -> 248        0.10665

 The electronic state is 1-A.
 Alpha  occ. eigenvalues --  -46.87955 -19.27083 -19.22845 -19.20582 -19.19467
 Alpha  occ. eigenvalues --  -19.18931 -19.18290 -14.42047 -14.41441 -14.39811
 Alpha  occ. eigenvalues --  -14.39761 -10.40737 -10.38606 -10.35259 -10.35148
 Alpha  occ. eigenvalues --  -10.32897 -10.30837 -10.30649 -10.30493 -10.30263
 Alpha  occ. eigenvalues --  -10.30238 -10.30184 -10.29979 -10.29727 -10.29319
 Alpha  occ. eigenvalues --  -10.29098 -10.28963 -10.28571 -10.28195 -10.28160
 Alpha  occ. eigenvalues --  -10.28093 -10.27965 -10.27708 -10.27661 -10.27633
 Alpha  occ. eigenvalues --  -10.27541 -10.27529 -10.27451 -10.26860 -10.26798
 Alpha  occ. eigenvalues --  -10.26502 -10.26384 -10.26359 -10.26354 -10.26086
 Alpha  occ. eigenvalues --  -10.25824 -10.25795 -10.25696 -10.25660 -10.25638
 Alpha  occ. eigenvalues --  -10.25473 -10.25413 -10.25320 -10.25229 -10.25182
 Alpha  occ. eigenvalues --  -10.25029 -10.24915 -10.24830 -10.24782 -10.24725
 Alpha  occ. eigenvalues --  -10.24694 -10.24490 -10.24362 -10.24332 -10.24167
 Alpha  occ. eigenvalues --  -10.23971  -3.16637  -1.91542  -1.91078  -1.90967
 Alpha  occ. eigenvalues --   -1.19014  -1.14510  -1.08846  -1.08773  -1.07707
 Alpha  occ. eigenvalues --   -1.06724  -1.04225  -1.03354  -1.02676  -1.01237
 Alpha  occ. eigenvalues --   -0.91493  -0.91386  -0.90852  -0.89755  -0.89273
 Alpha  occ. eigenvalues --   -0.88776  -0.88012  -0.87719  -0.87469  -0.86632
 Alpha  occ. eigenvalues --   -0.86297  -0.86096  -0.84751  -0.83882  -0.82721
 Alpha  occ. eigenvalues --   -0.82629  -0.81944  -0.81704  -0.80858  -0.80560
 Alpha  occ. eigenvalues --   -0.79555  -0.78903  -0.78244  -0.77082  -0.76343
 Alpha  occ. eigenvalues --   -0.75779  -0.75397  -0.75162  -0.74422  -0.74346
 Alpha  occ. eigenvalues --   -0.74009  -0.71962  -0.71467  -0.70872  -0.68628
 Alpha  occ. eigenvalues --   -0.68404  -0.68263  -0.67242  -0.66916  -0.66220
 Alpha  occ. eigenvalues --   -0.65688  -0.65393  -0.65079  -0.64190  -0.63974
 Alpha  occ. eigenvalues --   -0.63605  -0.63452  -0.62908  -0.60651  -0.60594
 Alpha  occ. eigenvalues --   -0.60433  -0.59666  -0.58904  -0.57947  -0.57423
 Alpha  occ. eigenvalues --   -0.57175  -0.56914  -0.56630  -0.56014  -0.55553
 Alpha  occ. eigenvalues --   -0.55377  -0.54751  -0.54377  -0.53978  -0.53815
 Alpha  occ. eigenvalues --   -0.53721  -0.53589  -0.53178  -0.52938  -0.52671
 Alpha  occ. eigenvalues --   -0.52472  -0.52277  -0.52105  -0.51873  -0.51815
 Alpha  occ. eigenvalues --   -0.51618  -0.51513  -0.51482  -0.51028  -0.50893
 Alpha  occ. eigenvalues --   -0.50710  -0.50263  -0.50113  -0.50012  -0.49747
 Alpha  occ. eigenvalues --   -0.49546  -0.49192  -0.49069  -0.48939  -0.48866
 Alpha  occ. eigenvalues --   -0.48720  -0.48656  -0.48494  -0.48190  -0.47955
 Alpha  occ. eigenvalues --   -0.47830  -0.47488  -0.47216  -0.46939  -0.46780
 Alpha  occ. eigenvalues --   -0.46533  -0.46401  -0.45924  -0.45790  -0.45565
 Alpha  occ. eigenvalues --   -0.45436  -0.45380  -0.45230  -0.45056  -0.44945
 Alpha  occ. eigenvalues --   -0.44759  -0.44638  -0.44368  -0.44288  -0.44162
 Alpha  occ. eigenvalues --   -0.44060  -0.44003  -0.43816  -0.43226  -0.43068
 Alpha  occ. eigenvalues --   -0.42841  -0.42709  -0.42533  -0.42271  -0.41977
 Alpha  occ. eigenvalues --   -0.41608  -0.41420  -0.41263  -0.40889  -0.40771
 Alpha  occ. eigenvalues --   -0.40737  -0.40282  -0.40111  -0.40044  -0.39967
 Alpha  occ. eigenvalues --   -0.39573  -0.39429  -0.39392  -0.39055  -0.38964
 Alpha  occ. eigenvalues --   -0.38706  -0.38207  -0.38120  -0.37911  -0.37652
 Alpha  occ. eigenvalues --   -0.37603  -0.37089  -0.36720  -0.36566  -0.36170
 Alpha  occ. eigenvalues --   -0.35973  -0.35741  -0.35120  -0.34914  -0.34574
 Alpha  occ. eigenvalues --   -0.34048  -0.33752  -0.32980  -0.31128  -0.30765
 Alpha  occ. eigenvalues --   -0.30415  -0.30412  -0.30278  -0.29887  -0.23847
 Alpha  occ. eigenvalues --   -0.20302
 Alpha virt. eigenvalues --   -0.07752  -0.02007  -0.00035   0.02311   0.03292
 Alpha virt. eigenvalues --    0.03680   0.05193   0.05351   0.05940   0.06725
 Alpha virt. eigenvalues --    0.08115   0.08365   0.08861   0.09085   0.09307

 Mulliken charges:
               1
     1  Mg   0.842063
     2  C   -0.023685
     3  C   -0.090533
     4  C   -0.079792
     5  C   -0.078654
     6  N   -0.249801
     7  C   -0.029799
     8  C   -0.049666
     9  C   -0.101494
    10  C   -0.009313
    11  C    0.092309
    12  C    0.033999
    13  C    0.108012
    14  C    0.143217
    15  O   -0.252880
    16  O   -0.295672
    17  N   -0.411411
    18  C    0.200727
    19  C   -0.144412
    20  C   -0.034218
    21  C    0.152905
    22  C    0.122432
    23  C   -0.007381
    24  O   -0.242255
    25  C    0.080583
    26  N   -0.275368
    27  C    0.019324
    28  C   -0.035716
    29  C    0.002812
    30  C    0.012220
    31  C    0.060943
    32  C    0.002683
    33  C    0.023806
    34  N   -0.368012
    35  C    0.112089
    36  C   -0.177566
    37  C    0.033363
    38  C    0.111485
    39  C    0.111057
    40  C    0.071978
    41  O   -0.178429
    42  C   -0.071464
    43  C    0.227350
    44  O   -0.192277
    45  O   -0.379136
    46  C    0.177469
    47  C    0.277601
    48  C   -0.128279
    49  C   -0.167518
    50  C    0.109123
    51  C    0.067442
    52  C   -0.022409
    53  C    0.053919
    54  C   -0.131226
    55  C    0.047594
    56  C    0.060139
    57  C    0.029208
    58  C    0.053581
    59  C   -0.144157
    60  C    0.063858
    61  C    0.070091
    62  C    0.015434
    63  C    0.039962
    64  C   -0.155273
    65  C    0.053772
    66  C    0.061771
    67  H   -0.035451
    68  H   -0.006210
    69  H   -0.024077
    70  H    0.035257
    71  H    0.006658
    72  H    0.003353
    73  H    0.044250
    74  H    0.013483
    75  H    0.016395
    76  H    0.020522
    77  H    0.027062
    78  H    0.040546
    79  H    0.031813
    80  H    0.035193
    81  H    0.011458
    82  H    0.044327
    83  H    0.019839
    84  H    0.027774
    85  H    0.024441
    86  H    0.018525
    87  H    0.031733
    88  H    0.016116
    89  H    0.027403
    90  H    0.011342
    91  H   -0.005090
    92  H    0.019780
    93  H    0.018604
    94  H    0.014586
    95  H    0.037738
    96  H    0.005290
    97  H    0.037761
    98  H    0.060912
    99  H    0.035746
   100  H    0.054780
   101  H    0.025611
   102  H    0.032137
   103  H    0.034706
   104  H    0.003499
   105  H    0.026780
   106  H    0.033166
   107  H   -0.001769
   108  H   -0.007653
   109  H   -0.002749
   110  H    0.005586
   111  H    0.010692
   112  H   -0.009024
   113  H   -0.003143
   114  H   -0.009037
   115  H   -0.005343
   116  H    0.001682
   117  H    0.013568
   118  H   -0.005261
   119  H   -0.003124
   120  H   -0.015068
   121  H   -0.013273
   122  H   -0.008457
   123  H   -0.005673
   124  H   -0.005910
   125  H    0.005341
   126  H    0.001042
   127  H    0.002279
   128  H   -0.008823
   129  H   -0.016891
   130  H   -0.010484
   131  H   -0.008193
   132  H   -0.020884
   133  H   -0.012628
   134  H   -0.004748
   135  H    0.006641
   136  H    0.004509
   137  H    0.002029
   138  H    0.016083
   139  H    0.023299
   140  H   -0.010899
 Sum of Mulliken charges =  -0.00000

 Dipole moment (field-independent basis, Debye):
    X=              6.5252    Y=             -2.7193    Z=             -0.4845  Tot=              7.0857
 Quadrupole moment (field-independent basis, Debye-Ang):
   XX=           -388.5045   YY=           -441.7698   ZZ=           -398.9303
   XY=             33.7128   XZ=            -11.9981   YZ=             -9.6927

 Normal termination of Gaussian 16 at Fri Apr 29 06:00:49 2022.
