 Gaussian 16, Revision A.03,
 Gaussian 16:  ES64L-G16RevA.03 25-Dec-2016

 ---------------------------------
 #p PBE1PBE/Def2SVP td=(nstates=5)
 ---------------------------------

 ---------------------------------------------------
 step_1_chromophore_21 TDDFT with PBE1PBE functional
 ---------------------------------------------------
 Symbolic Z-matrix:
 Charge =  0 Multiplicity = 1

                         Standard orientation:
 ---------------------------------------------------------------------
 Center     Atomic      Atomic             Coordinates (Angstroms)
 Number     Number       Type             X           Y           Z
 ---------------------------------------------------------------------
      1         12           0       -4.503034   -0.881099   -0.021054
      2          6           0       -3.965956    2.470970    0.827370
      3          6           0       -1.385076   -1.020882   -1.413679
      4          6           0       -5.214074   -3.929890   -1.088990
      5          6           0       -7.806961   -0.537645    1.298996
      6          7           0       -2.885886    0.609613   -0.293800
      7          6           0       -2.815825    1.902167    0.176400
      8          6           0       -1.401075    2.437051    0.052551
      9          6           0       -0.711568    1.395962   -0.915225
     10          6           0       -1.723638    0.207906   -0.777435
     11          6           0       -0.586880    1.887030   -2.351897
     12          6           0       -0.796471    2.692433    1.481225
     13          6           0        0.718523    3.037374    1.458181
     14          6           0        1.234696    3.751088    0.226060
     15          8           0        0.728105    4.784035   -0.223480
     16          8           0        2.265320    3.136488   -0.360546
     17          7           0       -3.473258   -2.238861   -1.050879
     18          6           0       -2.226759   -2.097540   -1.647615
     19          6           0       -1.844427   -3.302612   -2.404457
     20          6           0       -2.975543   -4.163716   -2.260369
     21          6           0       -3.949917   -3.441414   -1.446716
     22          6           0       -0.526658   -3.463573   -3.064989
     23          6           0       -3.124268   -5.540693   -2.854322
     24          8           0       -4.142522   -6.254835   -2.638762
     25          6           0       -2.023837   -6.162466   -3.670731
     26          7           0       -6.266946   -2.091203    0.145879
     27          6           0       -6.251351   -3.309451   -0.395563
     28          6           0       -7.691759   -3.979381   -0.292890
     29          6           0       -8.570223   -2.835594    0.465396
     30          6           0       -7.504689   -1.752282    0.638018
     31          6           0       -8.187531   -4.331823   -1.755043
     32          6           0       -9.126579   -3.269647    1.888497
     33          6           0      -10.484936   -4.027984    1.882260
     34          7           0       -5.700232    0.602340    0.807595
     35          6           0       -6.984639    0.596806    1.412989
     36          6           0       -7.269288    1.970418    2.019146
     37          6           0       -6.154286    2.759017    1.753837
     38          6           0       -5.193800    1.846740    1.082208
     39          6           0       -8.475702    2.398640    2.794450
     40          6           0       -5.524915    4.045946    1.936563
     41          8           0       -5.913380    5.090377    2.469153
     42          6           0       -3.987115    3.865078    1.499986
     43          6           0       -3.500960    4.975198    0.596598
     44          8           0       -3.626004    4.973740   -0.598240
     45          8           0       -2.681205    5.884569    1.302465
     46          6           0       -1.782702    6.736979    0.509488
     47          6           0        2.887451    3.772691   -1.495920
     48          6           0        4.274227    3.184617   -1.462061
     49          6           0        5.429182    3.849122   -1.729022
     50          6           0        5.680667    5.264558   -2.168399
     51          6           0        6.719029    3.143439   -1.401175
     52          6           0        7.481538    2.709997   -2.668573
     53          6           0        7.907078    1.179744   -2.673384
     54          6           0        9.403178    1.049736   -2.773859
     55          6           0        9.864079    1.263059   -4.241446
     56          6           0       10.010024   -0.247490   -2.231329
     57          6           0        9.820481   -0.535210   -0.702914
     58          6           0        8.893110   -1.647803   -0.361513
     59          6           0        9.571387   -2.796449    0.434606
     60          6           0        8.976352   -4.099770    0.072086
     61          6           0        9.423748   -2.653498    1.946628
     62          6           0       10.683320   -3.000190    2.729548
     63          6           0       10.371072   -3.846279    3.993214
     64          6           0        9.586117   -3.176753    5.170423
     65          6           0       10.410418   -3.019734    6.443931
     66          6           0        8.257878   -3.956770    5.364166
     67          1           0       -0.393511   -0.891062   -1.853141
     68          1           0       -5.448287   -4.930882   -1.457671
     69          1           0       -8.828991   -0.331141    1.623745
     70          1           0       -1.462268    3.412544   -0.428233
     71          1           0        0.259871    1.022312   -0.589898
     72          1           0        0.474944    1.827742   -2.590407
     73          1           0       -1.042918    2.874487   -2.419217
     74          1           0       -0.989551    1.179477   -3.076298
     75          1           0       -1.196451    1.843812    2.035292
     76          1           0       -1.345224    3.547575    1.874386
     77          1           0        1.192685    2.063486    1.580213
     78          1           0        0.931320    3.673387    2.317309
     79          1           0       -0.800544   -3.522638   -4.118224
     80          1           0        0.033808   -4.325325   -2.703534
     81          1           0        0.199391   -2.650862   -3.019200
     82          1           0       -1.149704   -6.302369   -3.036272
     83          1           0       -1.945216   -5.393773   -4.440525
     84          1           0       -2.267024   -7.091495   -4.185610
     85          1           0       -7.458323   -4.824766    0.355530
     86          1           0       -9.291602   -2.276094   -0.131664
     87          1           0       -7.498125   -4.043541   -2.548402
     88          1           0       -9.130049   -3.822806   -1.958475
     89          1           0       -8.232634   -5.419914   -1.790430
     90          1           0       -9.069429   -2.463156    2.618970
     91          1           0       -8.406892   -3.990397    2.275302
     92          1           0      -10.319044   -4.968297    2.406800
     93          1           0      -10.820898   -4.125977    0.849886
     94          1           0      -11.258755   -3.485934    2.426365
     95          1           0       -8.155043    2.475402    3.833613
     96          1           0       -9.281610    1.674481    2.669263
     97          1           0       -8.904812    3.374918    2.569917
     98          1           0       -3.415782    3.826904    2.427015
     99          1           0       -2.423781    7.526892    0.119042
    100          1           0       -1.223202    6.142551   -0.213094
    101          1           0       -1.036697    7.118883    1.205915
    102          1           0        2.913427    4.862510   -1.474822
    103          1           0        2.414848    3.519628   -2.445393
    104          1           0        4.321311    2.181281   -1.039172
    105          1           0        6.060405    5.188392   -3.187163
    106          1           0        6.368184    5.836668   -1.545150
    107          1           0        4.719818    5.779530   -2.187566
    108          1           0        6.601875    2.240934   -0.801601
    109          1           0        7.405887    3.795931   -0.861522
    110          1           0        8.374800    3.331799   -2.609432
    111          1           0        6.870410    2.962241   -3.534779
    112          1           0        7.389842    0.779298   -3.545384
    113          1           0        7.523416    0.617883   -1.821642
    114          1           0        9.766334    1.886466   -2.176898
    115          1           0        9.796816    2.341603   -4.378870
    116          1           0        9.186829    0.975237   -5.045614
    117          1           0       10.856744    0.862365   -4.446166
    118          1           0       11.056682   -0.168621   -2.523880
    119          1           0        9.526739   -1.015972   -2.833493
    120          1           0        9.524869    0.341874   -0.128347
    121          1           0       10.767947   -0.772624   -0.218864
    122          1           0        8.549095   -2.043324   -1.316703
    123          1           0        8.102679   -1.227389    0.261012
    124          1           0       10.619836   -2.728556    0.143581
    125          1           0        8.845214   -4.851237    0.850436
    126          1           0        9.617817   -4.520946   -0.701680
    127          1           0        7.969702   -4.004284   -0.335209
    128          1           0        8.603624   -3.306776    2.245717
    129          1           0        9.135756   -1.645791    2.244683
    130          1           0       11.234726   -2.101168    3.005275
    131          1           0       11.415514   -3.465106    2.067550
    132          1           0       11.352810   -4.191442    4.320658
    133          1           0        9.891247   -4.791268    3.739351
    134          1           0        9.455662   -2.140037    4.859323
    135          1           0       10.101046   -3.744131    7.197428
    136          1           0       10.318578   -2.021228    6.872389
    137          1           0       11.472623   -3.105358    6.212154
    138          1           0        8.329799   -5.031066    5.198364
    139          1           0        7.464126   -3.430709    4.833626
    140          1           0        8.050596   -3.919442    6.434110
 ---------------------------------------------------------------------

 SCF Done:  E(RPBE1PBE) =  -3005.38459841     A.U. after   15 cycles

 Excitation energies and oscillator strengths:

 Excited State   1:      Singlet-A      1.8623 eV  665.75 nm  f=0.3678  <S**2>=0.000
     245 -> 248        0.19083
     246 -> 247        0.68823
 This state for optimization and/or second-order correction.
 Total Energy, E(TD-HF/TD-DFT) =  -3005.31615967
 Copying the excited state density for this state as the 1-particle RhoCI density.

 Excited State   2:      Singlet-A      2.2818 eV  543.36 nm  f=0.0488  <S**2>=0.000
     245 -> 247        0.61495
     246 -> 248       -0.34300

 Excited State   3:      Singlet-A      3.0650 eV  404.51 nm  f=0.0000  <S**2>=0.000
     244 -> 247        0.65330
     244 -> 249       -0.19569
     244 -> 250       -0.15441

 Excited State   4:      Singlet-A      3.1116 eV  398.46 nm  f=0.0613  <S**2>=0.000
     240 -> 247       -0.12450
     242 -> 247        0.12275
     243 -> 247        0.58047
     243 -> 249        0.21062
     245 -> 247       -0.10053
     246 -> 248       -0.21007

 Excited State   5:      Singlet-A      3.2156 eV  385.57 nm  f=0.4805  <S**2>=0.000
     243 -> 247        0.22790
     245 -> 247        0.30158
     245 -> 250       -0.12107
     246 -> 248        0.55475
     246 -> 250       -0.12770

 The electronic state is 1-A.
 Alpha  occ. eigenvalues --  -46.91386 -19.27741 -19.23531 -19.20851 -19.19650
 Alpha  occ. eigenvalues --  -19.19164 -19.18500 -14.41502 -14.41023 -14.39509
 Alpha  occ. eigenvalues --  -14.39411 -10.37757 -10.35611 -10.32415 -10.32247
 Alpha  occ. eigenvalues --  -10.30291 -10.28693 -10.28477 -10.28328 -10.27999
 Alpha  occ. eigenvalues --  -10.27956 -10.27796 -10.27636 -10.27126 -10.26978
 Alpha  occ. eigenvalues --  -10.26709 -10.26653 -10.26079 -10.26075 -10.26015
 Alpha  occ. eigenvalues --  -10.25802 -10.25775 -10.25516 -10.25407 -10.25332
 Alpha  occ. eigenvalues --  -10.25281 -10.25124 -10.24885 -10.24371 -10.24253
 Alpha  occ. eigenvalues --  -10.24235 -10.24049 -10.23948 -10.23598 -10.23580
 Alpha  occ. eigenvalues --  -10.23542 -10.23448 -10.23385 -10.23261 -10.23100
 Alpha  occ. eigenvalues --  -10.22989 -10.22986 -10.22803 -10.22774 -10.22772
 Alpha  occ. eigenvalues --  -10.22751 -10.22594 -10.22348 -10.22230 -10.22173
 Alpha  occ. eigenvalues --  -10.22147 -10.22058 -10.21884 -10.21734 -10.21698
 Alpha  occ. eigenvalues --  -10.21339  -3.13644  -1.86491  -1.86005  -1.85898
 Alpha  occ. eigenvalues --   -1.13835  -1.09243  -1.03597  -1.03586  -1.02364
 Alpha  occ. eigenvalues --   -1.01574  -0.98829  -0.97994  -0.97335  -0.95936
 Alpha  occ. eigenvalues --   -0.85752  -0.85611  -0.84970  -0.83943  -0.83423
 Alpha  occ. eigenvalues --   -0.83033  -0.82114  -0.82002  -0.81773  -0.80947
 Alpha  occ. eigenvalues --   -0.80614  -0.80394  -0.78951  -0.78094  -0.77056
 Alpha  occ. eigenvalues --   -0.76848  -0.76101  -0.75917  -0.75071  -0.74784
 Alpha  occ. eigenvalues --   -0.73907  -0.73146  -0.72539  -0.71443  -0.70540
 Alpha  occ. eigenvalues --   -0.69865  -0.69741  -0.69300  -0.68705  -0.68572
 Alpha  occ. eigenvalues --   -0.68309  -0.66426  -0.65839  -0.65270  -0.63003
 Alpha  occ. eigenvalues --   -0.62748  -0.62596  -0.61667  -0.61215  -0.60545
 Alpha  occ. eigenvalues --   -0.59999  -0.59827  -0.59572  -0.58681  -0.58094
 Alpha  occ. eigenvalues --   -0.58073  -0.57768  -0.57072  -0.55174  -0.55078
 Alpha  occ. eigenvalues --   -0.54955  -0.54156  -0.53474  -0.52541  -0.51905
 Alpha  occ. eigenvalues --   -0.51593  -0.51440  -0.51204  -0.50619  -0.50087
 Alpha  occ. eigenvalues --   -0.49807  -0.49163  -0.48993  -0.48508  -0.48439
 Alpha  occ. eigenvalues --   -0.48038  -0.47996  -0.47650  -0.47417  -0.47129
 Alpha  occ. eigenvalues --   -0.47081  -0.46932  -0.46645  -0.46408  -0.46373
 Alpha  occ. eigenvalues --   -0.46186  -0.46073  -0.46014  -0.45568  -0.45503
 Alpha  occ. eigenvalues --   -0.45244  -0.44801  -0.44650  -0.44556  -0.44333
 Alpha  occ. eigenvalues --   -0.44116  -0.43778  -0.43670  -0.43563  -0.43464
 Alpha  occ. eigenvalues --   -0.43327  -0.43278  -0.43146  -0.42791  -0.42577
 Alpha  occ. eigenvalues --   -0.42473  -0.42155  -0.41888  -0.41632  -0.41337
 Alpha  occ. eigenvalues --   -0.41209  -0.41034  -0.40700  -0.40503  -0.40245
 Alpha  occ. eigenvalues --   -0.40174  -0.40045  -0.39945  -0.39841  -0.39676
 Alpha  occ. eigenvalues --   -0.39584  -0.39336  -0.39120  -0.39026  -0.38911
 Alpha  occ. eigenvalues --   -0.38794  -0.38724  -0.38654  -0.38092  -0.37835
 Alpha  occ. eigenvalues --   -0.37571  -0.37520  -0.37453  -0.37114  -0.36901
 Alpha  occ. eigenvalues --   -0.36386  -0.36213  -0.35992  -0.35744  -0.35654
 Alpha  occ. eigenvalues --   -0.35506  -0.35228  -0.34966  -0.34862  -0.34829
 Alpha  occ. eigenvalues --   -0.34352  -0.34290  -0.34217  -0.33972  -0.33833
 Alpha  occ. eigenvalues --   -0.33444  -0.33161  -0.33056  -0.32879  -0.32540
 Alpha  occ. eigenvalues --   -0.32449  -0.31902  -0.31672  -0.31595  -0.31042
 Alpha  occ. eigenvalues --   -0.31021  -0.30572  -0.30034  -0.29701  -0.29506
 Alpha  occ. eigenvalues --   -0.29290  -0.28880  -0.28230  -0.26696  -0.26249
 Alpha  occ. eigenvalues --   -0.25731  -0.25601  -0.25358  -0.25108  -0.20760
 Alpha  occ. eigenvalues --   -0.18040
 Alpha virt. eigenvalues --   -0.10352  -0.05419  -0.04239  -0.02063  -0.00994
 Alpha virt. eigenvalues --    0.00461   0.00792   0.00880   0.01828   0.03153
 Alpha virt. eigenvalues --    0.04055   0.04713   0.05470   0.05614   0.05830

 Mulliken charges:
               1
     1  Mg   0.996742
     2  C   -0.029771
     3  C   -0.083051
     4  C   -0.065539
     5  C   -0.075326
     6  N   -0.357820
     7  C    0.053204
     8  C   -0.131146
     9  C   -0.178417
    10  C    0.035879
    11  C    0.037555
    12  C   -0.014393
    13  C    0.028470
    14  C    0.212628
    15  O   -0.288121
    16  O   -0.329725
    17  N   -0.532315
    18  C    0.218882
    19  C   -0.169620
    20  C   -0.080728
    21  C    0.180549
    22  C    0.062855
    23  C    0.041227
    24  O   -0.279014
    25  C    0.006967
    26  N   -0.381175
    27  C    0.054614
    28  C   -0.109096
    29  C   -0.073559
    30  C    0.051676
    31  C    0.001738
    32  C   -0.054639
    33  C   -0.048052
    34  N   -0.485487
    35  C    0.130951
    36  C   -0.197603
    37  C   -0.011093
    38  C    0.150737
    39  C    0.060304
    40  C    0.169819
    41  O   -0.223503
    42  C   -0.186765
    43  C    0.315077
    44  O   -0.227228
    45  O   -0.411001
    46  C    0.120918
    47  C    0.239361
    48  C   -0.140853
    49  C   -0.215908
    50  C    0.046062
    51  C    0.006342
    52  C   -0.081592
    53  C    0.003811
    54  C   -0.224652
    55  C   -0.009238
    56  C    0.001700
    57  C   -0.030222
    58  C   -0.000215
    59  C   -0.235193
    60  C    0.004580
    61  C    0.018204
    62  C   -0.047784
    63  C   -0.016520
    64  C   -0.244641
    65  C   -0.006048
    66  C   -0.002805
    67  H   -0.003651
    68  H    0.026973
    69  H    0.008697
    70  H    0.077798
    71  H    0.043460
    72  H    0.032341
    73  H    0.070252
    74  H    0.042104
    75  H    0.049608
    76  H    0.058533
    77  H    0.058902
    78  H    0.073126
    79  H    0.059509
    80  H    0.061704
    81  H    0.038069
    82  H    0.070488
    83  H    0.047644
    84  H    0.055113
    85  H    0.059822
    86  H    0.054499
    87  H    0.059609
    88  H    0.043685
    89  H    0.054614
    90  H    0.042946
    91  H    0.028521
    92  H    0.046980
    93  H    0.046584
    94  H    0.042525
    95  H    0.065777
    96  H    0.032572
    97  H    0.064417
    98  H    0.096485
    99  H    0.058479
   100  H    0.079074
   101  H    0.047812
   102  H    0.057764
   103  H    0.061456
   104  H    0.032880
   105  H    0.054843
   106  H    0.058970
   107  H    0.027317
   108  H    0.023968
   109  H    0.030917
   110  H    0.036473
   111  H    0.043231
   112  H    0.024239
   113  H    0.031163
   114  H    0.030607
   115  H    0.023403
   116  H    0.028842
   117  H    0.040150
   118  H    0.027704
   119  H    0.029811
   120  H    0.017319
   121  H    0.019648
   122  H    0.024241
   123  H    0.026214
   124  H    0.030816
   125  H    0.032797
   126  H    0.029745
   127  H    0.029850
   128  H    0.025730
   129  H    0.015264
   130  H    0.022742
   131  H    0.023855
   132  H    0.012111
   133  H    0.020354
   134  H    0.033749
   135  H    0.033595
   136  H    0.032228
   137  H    0.029215
   138  H    0.042432
   139  H    0.050479
   140  H    0.017810
 Sum of Mulliken charges =  -0.00000

 Dipole moment (field-independent basis, Debye):
    X=              6.4309    Y=             -2.6705    Z=             -0.3933  Tot=              6.9745
 Quadrupole moment (field-independent basis, Debye-Ang):
   XX=           -382.1228   YY=           -439.0597   ZZ=           -396.2923
   XY=             34.8754   XZ=            -13.0700   YZ=            -10.1021

 Normal termination of Gaussian 16 at Fri Apr 29 06:23:34 2022.
