 Gaussian 16, Revision A.03,
 Gaussian 16:  ES64L-G16RevA.03 25-Dec-2016

 --------------------------------
 #p wB97XD/Def2SVP td=(nstates=5)
 --------------------------------

 --------------------------------------------------
 step_1_chromophore_21 TDDFT with wB97XD functional
 --------------------------------------------------
 Symbolic Z-matrix:
 Charge =  0 Multiplicity = 1

                         Standard orientation:
 ---------------------------------------------------------------------
 Center     Atomic      Atomic             Coordinates (Angstroms)
 Number     Number       Type             X           Y           Z
 ---------------------------------------------------------------------
      1         12           0       -4.503034   -0.881099   -0.021054
      2          6           0       -3.965956    2.470970    0.827370
      3          6           0       -1.385076   -1.020882   -1.413679
      4          6           0       -5.214074   -3.929890   -1.088990
      5          6           0       -7.806961   -0.537645    1.298996
      6          7           0       -2.885886    0.609613   -0.293800
      7          6           0       -2.815825    1.902167    0.176400
      8          6           0       -1.401075    2.437051    0.052551
      9          6           0       -0.711568    1.395962   -0.915225
     10          6           0       -1.723638    0.207906   -0.777435
     11          6           0       -0.586880    1.887030   -2.351897
     12          6           0       -0.796471    2.692433    1.481225
     13          6           0        0.718523    3.037374    1.458181
     14          6           0        1.234696    3.751088    0.226060
     15          8           0        0.728105    4.784035   -0.223480
     16          8           0        2.265320    3.136488   -0.360546
     17          7           0       -3.473258   -2.238861   -1.050879
     18          6           0       -2.226759   -2.097540   -1.647615
     19          6           0       -1.844427   -3.302612   -2.404457
     20          6           0       -2.975543   -4.163716   -2.260369
     21          6           0       -3.949917   -3.441414   -1.446716
     22          6           0       -0.526658   -3.463573   -3.064989
     23          6           0       -3.124268   -5.540693   -2.854322
     24          8           0       -4.142522   -6.254835   -2.638762
     25          6           0       -2.023837   -6.162466   -3.670731
     26          7           0       -6.266946   -2.091203    0.145879
     27          6           0       -6.251351   -3.309451   -0.395563
     28          6           0       -7.691759   -3.979381   -0.292890
     29          6           0       -8.570223   -2.835594    0.465396
     30          6           0       -7.504689   -1.752282    0.638018
     31          6           0       -8.187531   -4.331823   -1.755043
     32          6           0       -9.126579   -3.269647    1.888497
     33          6           0      -10.484936   -4.027984    1.882260
     34          7           0       -5.700232    0.602340    0.807595
     35          6           0       -6.984639    0.596806    1.412989
     36          6           0       -7.269288    1.970418    2.019146
     37          6           0       -6.154286    2.759017    1.753837
     38          6           0       -5.193800    1.846740    1.082208
     39          6           0       -8.475702    2.398640    2.794450
     40          6           0       -5.524915    4.045946    1.936563
     41          8           0       -5.913380    5.090377    2.469153
     42          6           0       -3.987115    3.865078    1.499986
     43          6           0       -3.500960    4.975198    0.596598
     44          8           0       -3.626004    4.973740   -0.598240
     45          8           0       -2.681205    5.884569    1.302465
     46          6           0       -1.782702    6.736979    0.509488
     47          6           0        2.887451    3.772691   -1.495920
     48          6           0        4.274227    3.184617   -1.462061
     49          6           0        5.429182    3.849122   -1.729022
     50          6           0        5.680667    5.264558   -2.168399
     51          6           0        6.719029    3.143439   -1.401175
     52          6           0        7.481538    2.709997   -2.668573
     53          6           0        7.907078    1.179744   -2.673384
     54          6           0        9.403178    1.049736   -2.773859
     55          6           0        9.864079    1.263059   -4.241446
     56          6           0       10.010024   -0.247490   -2.231329
     57          6           0        9.820481   -0.535210   -0.702914
     58          6           0        8.893110   -1.647803   -0.361513
     59          6           0        9.571387   -2.796449    0.434606
     60          6           0        8.976352   -4.099770    0.072086
     61          6           0        9.423748   -2.653498    1.946628
     62          6           0       10.683320   -3.000190    2.729548
     63          6           0       10.371072   -3.846279    3.993214
     64          6           0        9.586117   -3.176753    5.170423
     65          6           0       10.410418   -3.019734    6.443931
     66          6           0        8.257878   -3.956770    5.364166
     67          1           0       -0.393511   -0.891062   -1.853141
     68          1           0       -5.448287   -4.930882   -1.457671
     69          1           0       -8.828991   -0.331141    1.623745
     70          1           0       -1.462268    3.412544   -0.428233
     71          1           0        0.259871    1.022312   -0.589898
     72          1           0        0.474944    1.827742   -2.590407
     73          1           0       -1.042918    2.874487   -2.419217
     74          1           0       -0.989551    1.179477   -3.076298
     75          1           0       -1.196451    1.843812    2.035292
     76          1           0       -1.345224    3.547575    1.874386
     77          1           0        1.192685    2.063486    1.580213
     78          1           0        0.931320    3.673387    2.317309
     79          1           0       -0.800544   -3.522638   -4.118224
     80          1           0        0.033808   -4.325325   -2.703534
     81          1           0        0.199391   -2.650862   -3.019200
     82          1           0       -1.149704   -6.302369   -3.036272
     83          1           0       -1.945216   -5.393773   -4.440525
     84          1           0       -2.267024   -7.091495   -4.185610
     85          1           0       -7.458323   -4.824766    0.355530
     86          1           0       -9.291602   -2.276094   -0.131664
     87          1           0       -7.498125   -4.043541   -2.548402
     88          1           0       -9.130049   -3.822806   -1.958475
     89          1           0       -8.232634   -5.419914   -1.790430
     90          1           0       -9.069429   -2.463156    2.618970
     91          1           0       -8.406892   -3.990397    2.275302
     92          1           0      -10.319044   -4.968297    2.406800
     93          1           0      -10.820898   -4.125977    0.849886
     94          1           0      -11.258755   -3.485934    2.426365
     95          1           0       -8.155043    2.475402    3.833613
     96          1           0       -9.281610    1.674481    2.669263
     97          1           0       -8.904812    3.374918    2.569917
     98          1           0       -3.415782    3.826904    2.427015
     99          1           0       -2.423781    7.526892    0.119042
    100          1           0       -1.223202    6.142551   -0.213094
    101          1           0       -1.036697    7.118883    1.205915
    102          1           0        2.913427    4.862510   -1.474822
    103          1           0        2.414848    3.519628   -2.445393
    104          1           0        4.321311    2.181281   -1.039172
    105          1           0        6.060405    5.188392   -3.187163
    106          1           0        6.368184    5.836668   -1.545150
    107          1           0        4.719818    5.779530   -2.187566
    108          1           0        6.601875    2.240934   -0.801601
    109          1           0        7.405887    3.795931   -0.861522
    110          1           0        8.374800    3.331799   -2.609432
    111          1           0        6.870410    2.962241   -3.534779
    112          1           0        7.389842    0.779298   -3.545384
    113          1           0        7.523416    0.617883   -1.821642
    114          1           0        9.766334    1.886466   -2.176898
    115          1           0        9.796816    2.341603   -4.378870
    116          1           0        9.186829    0.975237   -5.045614
    117          1           0       10.856744    0.862365   -4.446166
    118          1           0       11.056682   -0.168621   -2.523880
    119          1           0        9.526739   -1.015972   -2.833493
    120          1           0        9.524869    0.341874   -0.128347
    121          1           0       10.767947   -0.772624   -0.218864
    122          1           0        8.549095   -2.043324   -1.316703
    123          1           0        8.102679   -1.227389    0.261012
    124          1           0       10.619836   -2.728556    0.143581
    125          1           0        8.845214   -4.851237    0.850436
    126          1           0        9.617817   -4.520946   -0.701680
    127          1           0        7.969702   -4.004284   -0.335209
    128          1           0        8.603624   -3.306776    2.245717
    129          1           0        9.135756   -1.645791    2.244683
    130          1           0       11.234726   -2.101168    3.005275
    131          1           0       11.415514   -3.465106    2.067550
    132          1           0       11.352810   -4.191442    4.320658
    133          1           0        9.891247   -4.791268    3.739351
    134          1           0        9.455662   -2.140037    4.859323
    135          1           0       10.101046   -3.744131    7.197428
    136          1           0       10.318578   -2.021228    6.872389
    137          1           0       11.472623   -3.105358    6.212154
    138          1           0        8.329799   -5.031066    5.198364
    139          1           0        7.464126   -3.430709    4.833626
    140          1           0        8.050596   -3.919442    6.434110
 ---------------------------------------------------------------------

 SCF Done:  E(RwB97XD) =  -3007.89547148     A.U. after   18 cycles

 Excitation energies and oscillator strengths:

 Excited State   1:      Singlet-A      1.6546 eV  749.31 nm  f=0.3719  <S**2>=0.000
     245 -> 248        0.20559
     246 -> 247        0.67801
     245 <- 248        0.12144
 This state for optimization and/or second-order correction.
 Total Energy, E(TD-HF/TD-DFT) =  -3007.83466427
 Copying the excited state density for this state as the 1-particle RhoCI density.

 Excited State   2:      Singlet-A      2.2336 eV  555.09 nm  f=0.0350  <S**2>=0.000
     245 -> 247        0.58767
     246 -> 248       -0.38581

 Excited State   3:      Singlet-A      3.3750 eV  367.36 nm  f=0.8082  <S**2>=0.000
     240 -> 247       -0.13277
     245 -> 247        0.37146
     246 -> 248        0.57697
     245 <- 247       -0.11365

 Excited State   4:      Singlet-A      3.5312 eV  351.11 nm  f=0.0002  <S**2>=0.000
     242 -> 247       -0.16483
     242 -> 250        0.10272
     243 -> 247        0.46226
     243 -> 248        0.11322
     243 -> 249       -0.32734
     243 -> 250       -0.29848

 Excited State   5:      Singlet-A      3.5516 eV  349.09 nm  f=0.0259  <S**2>=0.000
     239 -> 247        0.16228
     239 -> 249        0.13121
     240 -> 247        0.15326
     240 -> 249        0.18820
     242 -> 247        0.38717
     242 -> 249        0.29311
     242 -> 250       -0.15063
     243 -> 247        0.15754
     244 -> 247       -0.16249

 The electronic state is 1-A.
 Alpha  occ. eigenvalues --  -46.94310 -19.32283 -19.28102 -19.25509 -19.24401
 Alpha  occ. eigenvalues --  -19.24023 -19.23357 -14.46643 -14.46014 -14.44447
 Alpha  occ. eigenvalues --  -14.44394 -10.44535 -10.42475 -10.39314 -10.39142
 Alpha  occ. eigenvalues --  -10.36782 -10.34872 -10.34664 -10.34555 -10.34281
 Alpha  occ. eigenvalues --  -10.34268 -10.34240 -10.34042 -10.33486 -10.33343
 Alpha  occ. eigenvalues --  -10.33284 -10.33108 -10.32480 -10.32253 -10.32244
 Alpha  occ. eigenvalues --  -10.32154 -10.32127 -10.31761 -10.31672 -10.31623
 Alpha  occ. eigenvalues --  -10.31618 -10.31578 -10.31487 -10.30886 -10.30707
 Alpha  occ. eigenvalues --  -10.30528 -10.30330 -10.30299 -10.30235 -10.29959
 Alpha  occ. eigenvalues --  -10.29900 -10.29733 -10.29667 -10.29613 -10.29492
 Alpha  occ. eigenvalues --  -10.29351 -10.29339 -10.29168 -10.29127 -10.29124
 Alpha  occ. eigenvalues --  -10.29080 -10.28882 -10.28733 -10.28611 -10.28600
 Alpha  occ. eigenvalues --  -10.28580 -10.28418 -10.28258 -10.28164 -10.28080
 Alpha  occ. eigenvalues --  -10.27784  -3.20408  -1.94009  -1.93522  -1.93412
 Alpha  occ. eigenvalues --   -1.21188  -1.16665  -1.11116  -1.10930  -1.09930
 Alpha  occ. eigenvalues --   -1.08947  -1.06229  -1.05371  -1.04710  -1.03274
 Alpha  occ. eigenvalues --   -0.93385  -0.93276  -0.92628  -0.91582  -0.91077
 Alpha  occ. eigenvalues --   -0.90726  -0.89774  -0.89641  -0.89397  -0.88545
 Alpha  occ. eigenvalues --   -0.88216  -0.87999  -0.86601  -0.85741  -0.84649
 Alpha  occ. eigenvalues --   -0.84535  -0.83848  -0.83562  -0.82730  -0.82443
 Alpha  occ. eigenvalues --   -0.81524  -0.80879  -0.80166  -0.79008  -0.78205
 Alpha  occ. eigenvalues --   -0.77564  -0.77352  -0.76984  -0.76295  -0.76237
 Alpha  occ. eigenvalues --   -0.75919  -0.73967  -0.73405  -0.72835  -0.70574
 Alpha  occ. eigenvalues --   -0.70306  -0.70208  -0.69230  -0.68830  -0.68116
 Alpha  occ. eigenvalues --   -0.67591  -0.67299  -0.67040  -0.66170  -0.65777
 Alpha  occ. eigenvalues --   -0.65474  -0.65430  -0.64720  -0.62633  -0.62574
 Alpha  occ. eigenvalues --   -0.62427  -0.61618  -0.60895  -0.59935  -0.59355
 Alpha  occ. eigenvalues --   -0.59122  -0.58839  -0.58623  -0.57998  -0.57484
 Alpha  occ. eigenvalues --   -0.57284  -0.56609  -0.56362  -0.55899  -0.55769
 Alpha  occ. eigenvalues --   -0.55643  -0.55453  -0.55097  -0.54824  -0.54524
 Alpha  occ. eigenvalues --   -0.54388  -0.54247  -0.54020  -0.53772  -0.53741
 Alpha  occ. eigenvalues --   -0.53510  -0.53416  -0.53386  -0.52924  -0.52849
 Alpha  occ. eigenvalues --   -0.52671  -0.52166  -0.52041  -0.51951  -0.51666
 Alpha  occ. eigenvalues --   -0.51436  -0.51083  -0.50988  -0.50866  -0.50775
 Alpha  occ. eigenvalues --   -0.50622  -0.50551  -0.50429  -0.50104  -0.49874
 Alpha  occ. eigenvalues --   -0.49763  -0.49393  -0.49189  -0.48840  -0.48606
 Alpha  occ. eigenvalues --   -0.48447  -0.48278  -0.47859  -0.47734  -0.47435
 Alpha  occ. eigenvalues --   -0.47365  -0.47251  -0.47134  -0.46985  -0.46855
 Alpha  occ. eigenvalues --   -0.46682  -0.46556  -0.46308  -0.46190  -0.46079
 Alpha  occ. eigenvalues --   -0.45965  -0.45890  -0.45747  -0.45168  -0.44988
 Alpha  occ. eigenvalues --   -0.44722  -0.44667  -0.44455  -0.44166  -0.43993
 Alpha  occ. eigenvalues --   -0.43474  -0.43427  -0.43109  -0.42824  -0.42709
 Alpha  occ. eigenvalues --   -0.42607  -0.42210  -0.42051  -0.41914  -0.41903
 Alpha  occ. eigenvalues --   -0.41419  -0.41303  -0.41263  -0.40925  -0.40849
 Alpha  occ. eigenvalues --   -0.40540  -0.40102  -0.40007  -0.39821  -0.39546
 Alpha  occ. eigenvalues --   -0.39485  -0.38935  -0.38761  -0.38568  -0.38016
 Alpha  occ. eigenvalues --   -0.37886  -0.37571  -0.37107  -0.36807  -0.36404
 Alpha  occ. eigenvalues --   -0.36043  -0.35782  -0.35162  -0.33318  -0.32911
 Alpha  occ. eigenvalues --   -0.32446  -0.32376  -0.32354  -0.32097  -0.25783
 Alpha  occ. eigenvalues --   -0.22104
 Alpha virt. eigenvalues --   -0.06112  -0.00121   0.02001   0.04390   0.05812
 Alpha virt. eigenvalues --    0.06489   0.07355   0.07598   0.08551   0.09358
 Alpha virt. eigenvalues --    0.10735   0.11464   0.12301   0.12418   0.12588

 Mulliken charges:
               1
     1  Mg   0.984673
     2  C   -0.032640
     3  C   -0.098040
     4  C   -0.088205
     5  C   -0.091991
     6  N   -0.320502
     7  C    0.014710
     8  C   -0.088246
     9  C   -0.153736
    10  C    0.017223
    11  C    0.045868
    12  C   -0.000412
    13  C    0.044966
    14  C    0.196633
    15  O   -0.282774
    16  O   -0.325353
    17  N   -0.499577
    18  C    0.214325
    19  C   -0.158995
    20  C   -0.076966
    21  C    0.174991
    22  C    0.074078
    23  C    0.037615
    24  O   -0.272848
    25  C    0.020427
    26  N   -0.348869
    27  C    0.045429
    28  C   -0.087825
    29  C   -0.049412
    30  C    0.040818
    31  C    0.013618
    32  C   -0.039815
    33  C   -0.032180
    34  N   -0.451763
    35  C    0.125278
    36  C   -0.194319
    37  C   -0.008326
    38  C    0.139095
    39  C    0.070764
    40  C    0.151237
    41  O   -0.214000
    42  C   -0.143762
    43  C    0.291593
    44  O   -0.220827
    45  O   -0.408960
    46  C    0.137477
    47  C    0.250663
    48  C   -0.148368
    49  C   -0.199179
    50  C    0.059372
    51  C    0.025267
    52  C   -0.066334
    53  C    0.017104
    54  C   -0.187842
    55  C    0.000588
    56  C    0.021338
    57  C   -0.016850
    58  C    0.015475
    59  C   -0.198611
    60  C    0.014809
    61  C    0.032836
    62  C   -0.031488
    63  C    0.001255
    64  C   -0.219494
    65  C    0.006171
    66  C    0.010770
    67  H   -0.011686
    68  H    0.020873
    69  H    0.001114
    70  H    0.052125
    71  H    0.032037
    72  H    0.024428
    73  H    0.067275
    74  H    0.035636
    75  H    0.041596
    76  H    0.042358
    77  H    0.053458
    78  H    0.068925
    79  H    0.053711
    80  H    0.057304
    81  H    0.035606
    82  H    0.065417
    83  H    0.039205
    84  H    0.054884
    85  H    0.050376
    86  H    0.044459
    87  H    0.052680
    88  H    0.038128
    89  H    0.049329
    90  H    0.034780
    91  H    0.019051
    92  H    0.041566
    93  H    0.039409
    94  H    0.036746
    95  H    0.060460
    96  H    0.026800
    97  H    0.060762
    98  H    0.089691
    99  H    0.055224
   100  H    0.071712
   101  H    0.044951
   102  H    0.051613
   103  H    0.056349
   104  H    0.030293
   105  H    0.048668
   106  H    0.054900
   107  H    0.020420
   108  H    0.014345
   109  H    0.023129
   110  H    0.025926
   111  H    0.033754
   112  H    0.015491
   113  H    0.017444
   114  H    0.015294
   115  H    0.016097
   116  H    0.022859
   117  H    0.035072
   118  H    0.019624
   119  H    0.018240
   120  H    0.009271
   121  H    0.010120
   122  H    0.012006
   123  H    0.017667
   124  H    0.015980
   125  H    0.026297
   126  H    0.024440
   127  H    0.023674
   128  H    0.011318
   129  H    0.006318
   130  H    0.014499
   131  H    0.015710
   132  H    0.003639
   133  H    0.009011
   134  H    0.022117
   135  H    0.027352
   136  H    0.027020
   137  H    0.022644
   138  H    0.036676
   139  H    0.045433
   140  H    0.010944
 Sum of Mulliken charges =  -0.00000

 Dipole moment (field-independent basis, Debye):
    X=              6.6281    Y=             -2.7743    Z=             -0.5043  Tot=              7.2030
 Quadrupole moment (field-independent basis, Debye-Ang):
   XX=           -384.0190   YY=           -437.7748   ZZ=           -395.3797
   XY=             34.2726   XZ=            -12.7255   YZ=             -9.2038

 Normal termination of Gaussian 16 at Fri Apr 29 06:57:32 2022.
