 Gaussian 16, Revision A.03,
 Gaussian 16:  ES64L-G16RevA.03 25-Dec-2016

 --------------------
 #p ZINDO=(nstates=5)
 --------------------

 ---------------------------
 step_1_chromophore_21 ZINDO
 ---------------------------
 Symbolic Z-matrix:
 Charge =  0 Multiplicity = 1

                         Standard orientation:
 ---------------------------------------------------------------------
 Center     Atomic      Atomic             Coordinates (Angstroms)
 Number     Number       Type             X           Y           Z
 ---------------------------------------------------------------------
      1         12           0       -4.503034   -0.881099   -0.021054
      2          6           0       -3.965956    2.470970    0.827370
      3          6           0       -1.385076   -1.020882   -1.413679
      4          6           0       -5.214074   -3.929890   -1.088990
      5          6           0       -7.806961   -0.537645    1.298996
      6          7           0       -2.885886    0.609613   -0.293800
      7          6           0       -2.815825    1.902167    0.176400
      8          6           0       -1.401075    2.437051    0.052551
      9          6           0       -0.711568    1.395962   -0.915225
     10          6           0       -1.723638    0.207906   -0.777435
     11          6           0       -0.586880    1.887030   -2.351897
     12          6           0       -0.796471    2.692433    1.481225
     13          6           0        0.718523    3.037374    1.458181
     14          6           0        1.234696    3.751088    0.226060
     15          8           0        0.728105    4.784035   -0.223480
     16          8           0        2.265320    3.136488   -0.360546
     17          7           0       -3.473258   -2.238861   -1.050879
     18          6           0       -2.226759   -2.097540   -1.647615
     19          6           0       -1.844427   -3.302612   -2.404457
     20          6           0       -2.975543   -4.163716   -2.260369
     21          6           0       -3.949917   -3.441414   -1.446716
     22          6           0       -0.526658   -3.463573   -3.064989
     23          6           0       -3.124268   -5.540693   -2.854322
     24          8           0       -4.142522   -6.254835   -2.638762
     25          6           0       -2.023837   -6.162466   -3.670731
     26          7           0       -6.266946   -2.091203    0.145879
     27          6           0       -6.251351   -3.309451   -0.395563
     28          6           0       -7.691759   -3.979381   -0.292890
     29          6           0       -8.570223   -2.835594    0.465396
     30          6           0       -7.504689   -1.752282    0.638018
     31          6           0       -8.187531   -4.331823   -1.755043
     32          6           0       -9.126579   -3.269647    1.888497
     33          6           0      -10.484936   -4.027984    1.882260
     34          7           0       -5.700232    0.602340    0.807595
     35          6           0       -6.984639    0.596806    1.412989
     36          6           0       -7.269288    1.970418    2.019146
     37          6           0       -6.154286    2.759017    1.753837
     38          6           0       -5.193800    1.846740    1.082208
     39          6           0       -8.475702    2.398640    2.794450
     40          6           0       -5.524915    4.045946    1.936563
     41          8           0       -5.913380    5.090377    2.469153
     42          6           0       -3.987115    3.865078    1.499986
     43          6           0       -3.500960    4.975198    0.596598
     44          8           0       -3.626004    4.973740   -0.598240
     45          8           0       -2.681205    5.884569    1.302465
     46          6           0       -1.782702    6.736979    0.509488
     47          6           0        2.887451    3.772691   -1.495920
     48          6           0        4.274227    3.184617   -1.462061
     49          6           0        5.429182    3.849122   -1.729022
     50          6           0        5.680667    5.264558   -2.168399
     51          6           0        6.719029    3.143439   -1.401175
     52          6           0        7.481538    2.709997   -2.668573
     53          6           0        7.907078    1.179744   -2.673384
     54          6           0        9.403178    1.049736   -2.773859
     55          6           0        9.864079    1.263059   -4.241446
     56          6           0       10.010024   -0.247490   -2.231329
     57          6           0        9.820481   -0.535210   -0.702914
     58          6           0        8.893110   -1.647803   -0.361513
     59          6           0        9.571387   -2.796449    0.434606
     60          6           0        8.976352   -4.099770    0.072086
     61          6           0        9.423748   -2.653498    1.946628
     62          6           0       10.683320   -3.000190    2.729548
     63          6           0       10.371072   -3.846279    3.993214
     64          6           0        9.586117   -3.176753    5.170423
     65          6           0       10.410418   -3.019734    6.443931
     66          6           0        8.257878   -3.956770    5.364166
     67          1           0       -0.393511   -0.891062   -1.853141
     68          1           0       -5.448287   -4.930882   -1.457671
     69          1           0       -8.828991   -0.331141    1.623745
     70          1           0       -1.462268    3.412544   -0.428233
     71          1           0        0.259871    1.022312   -0.589898
     72          1           0        0.474944    1.827742   -2.590407
     73          1           0       -1.042918    2.874487   -2.419217
     74          1           0       -0.989551    1.179477   -3.076298
     75          1           0       -1.196451    1.843812    2.035292
     76          1           0       -1.345224    3.547575    1.874386
     77          1           0        1.192685    2.063486    1.580213
     78          1           0        0.931320    3.673387    2.317309
     79          1           0       -0.800544   -3.522638   -4.118224
     80          1           0        0.033808   -4.325325   -2.703534
     81          1           0        0.199391   -2.650862   -3.019200
     82          1           0       -1.149704   -6.302369   -3.036272
     83          1           0       -1.945216   -5.393773   -4.440525
     84          1           0       -2.267024   -7.091495   -4.185610
     85          1           0       -7.458323   -4.824766    0.355530
     86          1           0       -9.291602   -2.276094   -0.131664
     87          1           0       -7.498125   -4.043541   -2.548402
     88          1           0       -9.130049   -3.822806   -1.958475
     89          1           0       -8.232634   -5.419914   -1.790430
     90          1           0       -9.069429   -2.463156    2.618970
     91          1           0       -8.406892   -3.990397    2.275302
     92          1           0      -10.319044   -4.968297    2.406800
     93          1           0      -10.820898   -4.125977    0.849886
     94          1           0      -11.258755   -3.485934    2.426365
     95          1           0       -8.155043    2.475402    3.833613
     96          1           0       -9.281610    1.674481    2.669263
     97          1           0       -8.904812    3.374918    2.569917
     98          1           0       -3.415782    3.826904    2.427015
     99          1           0       -2.423781    7.526892    0.119042
    100          1           0       -1.223202    6.142551   -0.213094
    101          1           0       -1.036697    7.118883    1.205915
    102          1           0        2.913427    4.862510   -1.474822
    103          1           0        2.414848    3.519628   -2.445393
    104          1           0        4.321311    2.181281   -1.039172
    105          1           0        6.060405    5.188392   -3.187163
    106          1           0        6.368184    5.836668   -1.545150
    107          1           0        4.719818    5.779530   -2.187566
    108          1           0        6.601875    2.240934   -0.801601
    109          1           0        7.405887    3.795931   -0.861522
    110          1           0        8.374800    3.331799   -2.609432
    111          1           0        6.870410    2.962241   -3.534779
    112          1           0        7.389842    0.779298   -3.545384
    113          1           0        7.523416    0.617883   -1.821642
    114          1           0        9.766334    1.886466   -2.176898
    115          1           0        9.796816    2.341603   -4.378870
    116          1           0        9.186829    0.975237   -5.045614
    117          1           0       10.856744    0.862365   -4.446166
    118          1           0       11.056682   -0.168621   -2.523880
    119          1           0        9.526739   -1.015972   -2.833493
    120          1           0        9.524869    0.341874   -0.128347
    121          1           0       10.767947   -0.772624   -0.218864
    122          1           0        8.549095   -2.043324   -1.316703
    123          1           0        8.102679   -1.227389    0.261012
    124          1           0       10.619836   -2.728556    0.143581
    125          1           0        8.845214   -4.851237    0.850436
    126          1           0        9.617817   -4.520946   -0.701680
    127          1           0        7.969702   -4.004284   -0.335209
    128          1           0        8.603624   -3.306776    2.245717
    129          1           0        9.135756   -1.645791    2.244683
    130          1           0       11.234726   -2.101168    3.005275
    131          1           0       11.415514   -3.465106    2.067550
    132          1           0       11.352810   -4.191442    4.320658
    133          1           0        9.891247   -4.791268    3.739351
    134          1           0        9.455662   -2.140037    4.859323
    135          1           0       10.101046   -3.744131    7.197428
    136          1           0       10.318578   -2.021228    6.872389
    137          1           0       11.472623   -3.105358    6.212154
    138          1           0        8.329799   -5.031066    5.198364
    139          1           0        7.464126   -3.430709    4.833626
    140          1           0        8.050596   -3.919442    6.434110
 ---------------------------------------------------------------------

 SCF Done:  E(RZINDO/S) =  -474.269569610     A.U. after   19 cycles

 Excitation energies and oscillator strengths:

 Excited State   1:      Singlet-A      1.2449 eV  995.96 nm  f=0.5823  <S**2>=0.000
     175 ->178         0.20866
     176 ->177         0.65769
 This state for optimization and/or second-order correction.
 Total Energy, E(CIS/TDA) =  -474.223821430
 Copying the excited state density for this state as the 1-particle RhoCI density.

 Excited State   2:      Singlet-A      1.8863 eV  657.28 nm  f=0.0029  <S**2>=0.000
     175 ->177        -0.45081
     176 ->178         0.52617

 Excited State   3:      Singlet-A      2.7831 eV  445.48 nm  f=0.1372  <S**2>=0.000
     175 ->177         0.20388
     176 ->178         0.22744
     176 ->179         0.60506

 Excited State   4:      Singlet-A      2.9042 eV  426.92 nm  f=0.0020  <S**2>=0.000
     170 ->177         0.29437
     170 ->179        -0.36716
     170 ->180        -0.38432
     170 ->181         0.12637
     170 ->186        -0.20922
     170 ->187         0.16043

 Excited State   5:      Singlet-A      2.9789 eV  416.21 nm  f=0.2869  <S**2>=0.000
     168 ->177         0.28550
     168 ->178         0.13992
     168 ->179         0.35595
     168 ->180        -0.25153
     168 ->181         0.10253
     168 ->186         0.17114
     175 ->177        -0.21190
     176 ->178        -0.17978
     176 ->179         0.11553

 The electronic state is 1-A.
 Alpha  occ. eigenvalues --   -1.82322  -1.80025  -1.78531  -1.75483  -1.69781
 Alpha  occ. eigenvalues --   -1.68572  -1.67979  -1.63076  -1.56618  -1.56408
 Alpha  occ. eigenvalues --   -1.56180  -1.53404  -1.50149  -1.47883  -1.45531
 Alpha  occ. eigenvalues --   -1.43275  -1.41927  -1.40127  -1.39673  -1.38630
 Alpha  occ. eigenvalues --   -1.35642  -1.33251  -1.33019  -1.31835  -1.29096
 Alpha  occ. eigenvalues --   -1.27536  -1.24319  -1.22853  -1.21345  -1.18623
 Alpha  occ. eigenvalues --   -1.16328  -1.16091  -1.14750  -1.14292  -1.13259
 Alpha  occ. eigenvalues --   -1.13018  -1.11462  -1.11010  -1.04480  -1.03678
 Alpha  occ. eigenvalues --   -1.02690  -1.00496  -0.98563  -0.97598  -0.96816
 Alpha  occ. eigenvalues --   -0.95000  -0.94351  -0.93673  -0.92770  -0.92332
 Alpha  occ. eigenvalues --   -0.91248  -0.90040  -0.89357  -0.88948  -0.87480
 Alpha  occ. eigenvalues --   -0.86894  -0.85509  -0.82536  -0.82029  -0.80983
 Alpha  occ. eigenvalues --   -0.80080  -0.78139  -0.78030  -0.76443  -0.75465
 Alpha  occ. eigenvalues --   -0.75081  -0.75022  -0.74004  -0.73782  -0.73450
 Alpha  occ. eigenvalues --   -0.72644  -0.72301  -0.71830  -0.71012  -0.70908
 Alpha  occ. eigenvalues --   -0.70338  -0.69224  -0.68495  -0.68396  -0.68200
 Alpha  occ. eigenvalues --   -0.67974  -0.67066  -0.66222  -0.66088  -0.65540
 Alpha  occ. eigenvalues --   -0.65242  -0.64693  -0.64276  -0.64088  -0.63472
 Alpha  occ. eigenvalues --   -0.63308  -0.63195  -0.62398  -0.62246  -0.61758
 Alpha  occ. eigenvalues --   -0.61471  -0.61224  -0.60984  -0.60688  -0.60408
 Alpha  occ. eigenvalues --   -0.60209  -0.59641  -0.59291  -0.58093  -0.57953
 Alpha  occ. eigenvalues --   -0.57880  -0.57141  -0.56842  -0.56619  -0.56373
 Alpha  occ. eigenvalues --   -0.56094  -0.55752  -0.55523  -0.55346  -0.55044
 Alpha  occ. eigenvalues --   -0.54946  -0.54317  -0.53538  -0.53440  -0.52961
 Alpha  occ. eigenvalues --   -0.52694  -0.52370  -0.51952  -0.51539  -0.51126
 Alpha  occ. eigenvalues --   -0.50763  -0.50557  -0.50370  -0.50151  -0.49980
 Alpha  occ. eigenvalues --   -0.49522  -0.49445  -0.49250  -0.48996  -0.48618
 Alpha  occ. eigenvalues --   -0.48500  -0.48161  -0.48132  -0.47862  -0.47761
 Alpha  occ. eigenvalues --   -0.47493  -0.46902  -0.46507  -0.46402  -0.46335
 Alpha  occ. eigenvalues --   -0.46303  -0.45933  -0.45727  -0.45384  -0.45025
 Alpha  occ. eigenvalues --   -0.44838  -0.44742  -0.44541  -0.44204  -0.43701
 Alpha  occ. eigenvalues --   -0.43503  -0.43453  -0.43083  -0.42447  -0.42053
 Alpha  occ. eigenvalues --   -0.41891  -0.41590  -0.40992  -0.38967  -0.38484
 Alpha  occ. eigenvalues --   -0.38179  -0.37010  -0.35386  -0.34719  -0.34560
 Alpha  occ. eigenvalues --   -0.33369  -0.32790  -0.32328  -0.31694  -0.26391
 Alpha  occ. eigenvalues --   -0.20785
 Alpha virt. eigenvalues --   -0.07477  -0.02382  -0.00514   0.01329   0.01421
 Alpha virt. eigenvalues --    0.02746   0.03032   0.03257   0.04073   0.04987
 Alpha virt. eigenvalues --    0.06407   0.07076   0.07723   0.08004   0.08107

 Mulliken charges:
               1
     1  Mg   0.425923
     2  C   -0.044088
     3  C   -0.079785
     4  C   -0.079489
     5  C   -0.077058
     6  N   -0.257889
     7  C    0.111818
     8  C    0.004055
     9  C   -0.001614
    10  C    0.114250
    11  C   -0.048457
    12  C   -0.028025
    13  C    0.012096
    14  C    0.478204
    15  O   -0.538352
    16  O   -0.251533
    17  N   -0.319263
    18  C    0.092824
    19  C    0.010847
    20  C   -0.055038
    21  C    0.150918
    22  C   -0.035907
    23  C    0.322368
    24  O   -0.552469
    25  C   -0.028113
    26  N   -0.267807
    27  C    0.135394
    28  C   -0.006512
    29  C   -0.003766
    30  C    0.125702
    31  C   -0.050122
    32  C   -0.034275
    33  C   -0.058688
    34  N   -0.323877
    35  C    0.088398
    36  C    0.041891
    37  C   -0.050348
    38  C    0.105816
    39  C   -0.034811
    40  C    0.336386
    41  O   -0.515449
    42  C    0.050145
    43  C    0.486638
    44  O   -0.500258
    45  O   -0.291227
    46  C    0.073221
    47  C    0.108227
    48  C   -0.100944
    49  C   -0.001030
    50  C   -0.037325
    51  C   -0.029401
    52  C   -0.042784
    53  C   -0.031734
    54  C   -0.003920
    55  C   -0.064729
    56  C   -0.034494
    57  C   -0.037845
    58  C   -0.034578
    59  C   -0.007258
    60  C   -0.049989
    61  C   -0.029316
    62  C   -0.033368
    63  C   -0.037540
    64  C   -0.008772
    65  C   -0.054143
    66  C   -0.055819
    67  H    0.027708
    68  H    0.047049
    69  H    0.024585
    70  H    0.046727
    71  H    0.024824
    72  H    0.015244
    73  H    0.041852
    74  H    0.022278
    75  H    0.033710
    76  H    0.025548
    77  H    0.029300
    78  H    0.046009
    79  H    0.031634
    80  H    0.032535
    81  H    0.023458
    82  H    0.043293
    83  H    0.034293
    84  H    0.039693
    85  H    0.045180
    86  H    0.046349
    87  H    0.031094
    88  H    0.022528
    89  H    0.025547
    90  H    0.029178
    91  H    0.014491
    92  H    0.024411
    93  H    0.024600
    94  H    0.018576
    95  H    0.035674
    96  H    0.019177
    97  H    0.039268
    98  H    0.057144
    99  H    0.048804
   100  H    0.057742
   101  H    0.029321
   102  H    0.055217
   103  H    0.045124
   104  H    0.035409
   105  H    0.032295
   106  H    0.035183
   107  H    0.017883
   108  H    0.017475
   109  H    0.018886
   110  H    0.020586
   111  H    0.024685
   112  H    0.013378
   113  H    0.021116
   114  H    0.017674
   115  H    0.009796
   116  H    0.021343
   117  H    0.023219
   118  H    0.018402
   119  H    0.020626
   120  H    0.013979
   121  H    0.013471
   122  H    0.020102
   123  H    0.019974
   124  H    0.023655
   125  H    0.016587
   126  H    0.007808
   127  H    0.013892
   128  H    0.019088
   129  H    0.010737
   130  H    0.014663
   131  H    0.015724
   132  H    0.004844
   133  H    0.016730
   134  H    0.020571
   135  H    0.021162
   136  H    0.014242
   137  H    0.017033
   138  H    0.029864
   139  H    0.024811
   140  H    0.008029
 Sum of Mulliken charges =  -0.00000

 Dipole moment (field-independent basis, Debye):
    X=              8.0122    Y=             -3.2423    Z=              0.1219  Tot=              8.6442
 N-N= 4.378457021665D+03 E-N= 0.000000000000D+00  KE=-9.431484727171D+03
 Leave Link  601 at Fri Apr 29 07:10:44 2022, MaxMem=  6710886400 cpu:               1.0 elap:               0.1
 (Enter /sw/apps/gaussian-16.0/g16/l9999.exe)
 1\1\GINC-BP1-COMPUTE070\SP\RZINDO CIS\STO-3G\C55H74Mg1N4O6\OF15641\29-
 Apr-2022\0\\#p ZINDO=(nstates=5)\\step_1_chromophore_21 ZINDO\\0,1\Mg,
 0,16.411,52.367,25.566\C,0,18.018,50.888,28.3\C,0,13.924,53.471,27.634
 \C,0,14.785,53.438,22.892\C,0,18.977,50.989,23.494\N,0,16.017,52.139,2
 7.735\C,0,16.814,51.566,28.701\C,0,16.316,51.932,30.087\C,0,14.871,52.
 505,29.805\C,0,15.006,52.799,28.272\C,0,13.752,51.517,30.109\C,0,17.38
 ,52.827,30.821\C,0,16.866,53.425,32.16\C,0,15.838,52.611,32.918\O,0,15

 Normal termination of Gaussian 16 at Fri Apr 29 07:10:45 2022.
