 Gaussian 16, Revision A.03,
 Gaussian 16:  ES64L-G16RevA.03 25-Dec-2016

 ------------------------------
 #p blyp/Def2SVP td=(nstates=5)
 ------------------------------

 ---------------------------------------------------
 step_1401_chromophore_19 TDDFT with blyp functional
 ---------------------------------------------------
 Symbolic Z-matrix:
 Charge =  0 Multiplicity = 1

                         Standard orientation:
 ---------------------------------------------------------------------
 Center     Atomic      Atomic             Coordinates (Angstroms)
 Number     Number       Type             X           Y           Z
 ---------------------------------------------------------------------
      1         12           0       -5.969171    0.308376    0.024112
      2          6           0       -3.466937   -2.161363   -0.310022
      3          6           0       -3.562509    2.587820    0.648338
      4          6           0       -8.369368    2.551609    0.816793
      5          6           0       -8.317258   -2.130918   -0.493872
      6          7           0       -3.731235    0.179000    0.420497
      7          6           0       -2.944795   -0.930953    0.151077
      8          6           0       -1.460356   -0.566254    0.306085
      9          6           0       -1.477083    1.044736    0.611536
     10          6           0       -3.023471    1.273396    0.642528
     11          6           0       -0.651801    1.543973    1.824388
     12          6           0       -0.576371   -1.078522   -0.897836
     13          6           0        0.833520   -0.442802   -0.881361
     14          6           0        1.998486   -1.213804   -0.215191
     15          8           0        1.850939   -2.111561    0.642452
     16          8           0        3.261635   -0.749783   -0.642863
     17          7           0       -5.953599    2.296746    0.485738
     18          6           0       -4.851089    3.084361    0.596794
     19          6           0       -5.241363    4.472813    0.657530
     20          6           0       -6.662048    4.452612    0.757390
     21          6           0       -7.072419    3.044674    0.727351
     22          6           0       -4.197841    5.600376    0.772141
     23          6           0       -7.580827    5.520446    0.772604
     24          8           0       -8.831281    5.485202    0.895026
     25          6           0       -7.017344    6.916141    0.723278
     26          7           0       -8.072102    0.160020    0.316539
     27          6           0       -8.807903    1.225941    0.545948
     28          6           0      -10.304984    0.898039    0.560635
     29          6           0      -10.281544   -0.566882    0.009654
     30          6           0       -8.817782   -0.877301   -0.143458
     31          6           0      -11.034147    1.079298    1.938789
     32          6           0      -11.061583   -0.661389   -1.291679
     33          6           0      -10.478669   -0.043250   -2.633775
     34          7           0       -5.946792   -1.691033   -0.297703
     35          6           0       -7.000779   -2.575038   -0.556134
     36          6           0       -6.558787   -3.854895   -0.989641
     37          6           0       -5.147211   -3.716588   -1.047956
     38          6           0       -4.838516   -2.418414   -0.455903
     39          6           0       -7.413185   -4.967494   -1.457355
     40          6           0       -3.931467   -4.441877   -1.183364
     41          8           0       -3.784875   -5.590883   -1.597786
     42          6           0       -2.753374   -3.459375   -0.825969
     43          6           0       -1.963748   -4.146744    0.188122
     44          8           0       -2.023089   -3.818055    1.347119
     45          8           0       -1.261026   -5.225640   -0.275317
     46          6           0       -0.346884   -5.738893    0.702599
     47          6           0        4.376998   -1.311736    0.204489
     48          6           0        5.622239   -0.767623   -0.363933
     49          6           0        6.802518   -0.409701    0.220412
     50          6           0        7.152915   -0.568348    1.711455
     51          6           0        7.867650    0.367455   -0.667673
     52          6           0        7.641101    1.883308   -0.954669
     53          6           0        7.932037    2.308727   -2.390480
     54          6           0        9.303872    2.934290   -2.619837
     55          6           0        9.262733    4.078474   -3.647976
     56          6           0       10.410024    1.819416   -2.994263
     57          6           0       11.768651    2.057911   -2.317592
     58          6           0       12.478598    0.756901   -1.722709
     59          6           0       13.633192    0.979659   -0.712251
     60          6           0       15.047212    0.747649   -1.332875
     61          6           0       13.504184    0.011758    0.443147
     62          6           0       12.789493    0.544960    1.707430
     63          6           0       11.652589   -0.370456    2.179763
     64          6           0       12.086743   -1.269137    3.376004
     65          6           0       12.197420   -2.754304    2.952015
     66          6           0       11.132355   -1.147251    4.598728
     67          1           0       -2.738990    3.291426    0.784970
     68          1           0       -9.217515    3.225550    0.951144
     69          1           0       -9.114447   -2.850480   -0.686941
     70          1           0       -1.268151   -1.167352    1.194673
     71          1           0       -1.221893    1.564098   -0.312075
     72          1           0       -0.117708    0.662800    2.179547
     73          1           0       -1.319640    1.831858    2.636800
     74          1           0       -0.021775    2.391345    1.557210
     75          1           0       -1.051862   -0.892847   -1.860234
     76          1           0       -0.410891   -2.150553   -0.783770
     77          1           0        0.914014    0.510637   -0.358449
     78          1           0        0.989538   -0.106415   -1.905823
     79          1           0       -4.318321    6.207937   -0.125157
     80          1           0       -3.181315    5.224571    0.658157
     81          1           0       -4.520567    6.131955    1.667525
     82          1           0       -6.441239    7.096890    1.630953
     83          1           0       -7.882988    7.565869    0.599599
     84          1           0       -6.467930    7.014008   -0.213615
     85          1           0      -10.829962    1.615498   -0.071343
     86          1           0      -10.869246   -1.172285    0.700290
     87          1           0      -10.352070    1.509446    2.671877
     88          1           0      -11.383131    0.178285    2.443045
     89          1           0      -11.861839    1.786230    1.875471
     90          1           0      -12.080160   -0.302221   -1.141488
     91          1           0      -11.222586   -1.718942   -1.501986
     92          1           0      -10.035081   -0.881886   -3.171684
     93          1           0       -9.783225    0.719511   -2.284607
     94          1           0      -11.302000    0.467586   -3.132843
     95          1           0       -6.910190   -5.825828   -1.903346
     96          1           0       -8.026702   -4.639620   -2.296558
     97          1           0       -8.181284   -5.266592   -0.744737
     98          1           0       -2.168814   -3.230650   -1.716430
     99          1           0       -0.852792   -6.134833    1.583156
    100          1           0        0.406513   -5.073387    1.124924
    101          1           0        0.236072   -6.538992    0.247132
    102          1           0        4.311725   -2.398667    0.267593
    103          1           0        4.239445   -0.887164    1.199066
    104          1           0        5.487261   -0.496303   -1.411358
    105          1           0        6.395571   -1.137607    2.250779
    106          1           0        7.166042    0.463886    2.062987
    107          1           0        8.155732   -0.991373    1.748055
    108          1           0        8.011614   -0.218218   -1.576167
    109          1           0        8.824365    0.274794   -0.153781
    110          1           0        8.185486    2.522955   -0.260054
    111          1           0        6.607386    2.070976   -0.667389
    112          1           0        7.155250    3.067823   -2.474670
    113          1           0        7.720049    1.469200   -3.052218
    114          1           0        9.639086    3.391336   -1.688781
    115          1           0       10.219833    4.129309   -4.167284
    116          1           0        9.184720    5.006037   -3.082356
    117          1           0        8.395128    4.131261   -4.304727
    118          1           0       10.450211    1.913021   -4.079893
    119          1           0       10.060506    0.802211   -2.823090
    120          1           0       11.720303    2.800862   -1.520656
    121          1           0       12.420303    2.543384   -3.044189
    122          1           0       12.891285    0.245713   -2.592359
    123          1           0       11.693026    0.112137   -1.326616
    124          1           0       13.607221    2.039182   -0.458880
    125          1           0       15.197940    1.503956   -2.102106
    126          1           0       15.071690   -0.249072   -1.772622
    127          1           0       15.929664    0.721001   -0.693598
    128          1           0       14.518786   -0.187714    0.789498
    129          1           0       13.200890   -0.979916    0.108617
    130          1           0       12.330255    1.512315    1.507026
    131          1           0       13.476452    0.767114    2.524688
    132          1           0       11.225383   -1.021698    1.417026
    133          1           0       10.786834    0.222904    2.473286
    134          1           0       13.047874   -0.996556    3.810896
    135          1           0       11.162308   -3.095474    2.921211
    136          1           0       12.723795   -3.258122    3.762386
    137          1           0       12.743793   -2.967675    2.033232
    138          1           0       10.164985   -0.699700    4.368654
    139          1           0       11.621688   -0.527117    5.349862
    140          1           0       11.035502   -2.042108    5.213170
 ---------------------------------------------------------------------

 SCF Done:  E(RB-LYP) =  -3007.40478464     A.U. after   21 cycles

 Excitation energies and oscillator strengths:

 Excited State   1:      Singlet-A      1.6799 eV  738.05 nm  f=0.0009  <S**2>=0.000
     244 -> 247        0.67785
     245 -> 247       -0.19753
 This state for optimization and/or second-order correction.
 Total Energy, E(TD-HF/TD-DFT) =  -3007.34304962
 Copying the excited state density for this state as the 1-particle RhoCI density.

 Excited State   2:      Singlet-A      1.7975 eV  689.75 nm  f=0.2928  <S**2>=0.000
     245 -> 248       -0.18791
     246 -> 247        0.68391
     246 <- 247       -0.14380

 Excited State   3:      Singlet-A      1.8692 eV  663.31 nm  f=0.0086  <S**2>=0.000
     243 -> 247        0.67978
     245 -> 247        0.16506

 Excited State   4:      Singlet-A      2.0152 eV  615.23 nm  f=0.0631  <S**2>=0.000
     243 -> 247       -0.17989
     244 -> 247        0.17720
     245 -> 247        0.59811
     246 -> 248        0.24959

 Excited State   5:      Singlet-A      2.3889 eV  519.00 nm  f=0.0002  <S**2>=0.000
     242 -> 247        0.70709

 The electronic state is 1-A.
 Alpha  occ. eigenvalues --  -46.26645 -18.82589 -18.81473 -18.78006 -18.75901
 Alpha  occ. eigenvalues --  -18.75134 -18.74453 -14.03197 -14.02861 -14.01010
 Alpha  occ. eigenvalues --  -14.00924 -10.05335 -10.02933  -9.99106  -9.98289
 Alpha  occ. eigenvalues --   -9.98145  -9.96762  -9.96709  -9.96161  -9.96050
 Alpha  occ. eigenvalues --   -9.96028  -9.95704  -9.95633  -9.95151  -9.94971
 Alpha  occ. eigenvalues --   -9.94658  -9.94613  -9.94558  -9.94234  -9.94085
 Alpha  occ. eigenvalues --   -9.94047  -9.93889  -9.93818  -9.93705  -9.93619
 Alpha  occ. eigenvalues --   -9.93308  -9.93189  -9.93091  -9.92932  -9.92734
 Alpha  occ. eigenvalues --   -9.92400  -9.92332  -9.92289  -9.92280  -9.92239
 Alpha  occ. eigenvalues --   -9.92156  -9.92091  -9.91997  -9.91938  -9.91933
 Alpha  occ. eigenvalues --   -9.91743  -9.91714  -9.91705  -9.91631  -9.91514
 Alpha  occ. eigenvalues --   -9.91503  -9.91349  -9.91305  -9.91119  -9.91099
 Alpha  occ. eigenvalues --   -9.91071  -9.90905  -9.90894  -9.90827  -9.90822
 Alpha  occ. eigenvalues --   -9.90813  -2.91429  -1.71841  -1.71318  -1.71144
 Alpha  occ. eigenvalues --   -0.98018  -0.96478  -0.90467  -0.90045  -0.89249
 Alpha  occ. eigenvalues --   -0.89227  -0.87304  -0.86302  -0.85925  -0.85235
 Alpha  occ. eigenvalues --   -0.75001  -0.73304  -0.72897  -0.72523  -0.72421
 Alpha  occ. eigenvalues --   -0.71756  -0.71730  -0.71084  -0.70997  -0.70725
 Alpha  occ. eigenvalues --   -0.70533  -0.69002  -0.68202  -0.67430  -0.67021
 Alpha  occ. eigenvalues --   -0.66444  -0.65675  -0.65403  -0.64994  -0.64535
 Alpha  occ. eigenvalues --   -0.64325  -0.62859  -0.62719  -0.61744  -0.60765
 Alpha  occ. eigenvalues --   -0.60482  -0.60043  -0.59982  -0.59445  -0.59218
 Alpha  occ. eigenvalues --   -0.58305  -0.57785  -0.57166  -0.56082  -0.55302
 Alpha  occ. eigenvalues --   -0.54556  -0.54137  -0.53244  -0.52598  -0.51783
 Alpha  occ. eigenvalues --   -0.51200  -0.51148  -0.50744  -0.50101  -0.50019
 Alpha  occ. eigenvalues --   -0.49362  -0.49305  -0.49252  -0.48262  -0.46450
 Alpha  occ. eigenvalues --   -0.46365  -0.46184  -0.45607  -0.44728  -0.44593
 Alpha  occ. eigenvalues --   -0.44124  -0.43923  -0.43206  -0.42785  -0.42621
 Alpha  occ. eigenvalues --   -0.42187  -0.41936  -0.41304  -0.41224  -0.40666
 Alpha  occ. eigenvalues --   -0.40419  -0.40328  -0.40266  -0.40051  -0.39952
 Alpha  occ. eigenvalues --   -0.39904  -0.39706  -0.39587  -0.39242  -0.39096
 Alpha  occ. eigenvalues --   -0.38890  -0.38813  -0.38720  -0.38238  -0.38146
 Alpha  occ. eigenvalues --   -0.37954  -0.37658  -0.37571  -0.37481  -0.37371
 Alpha  occ. eigenvalues --   -0.36945  -0.36855  -0.36782  -0.36433  -0.36352
 Alpha  occ. eigenvalues --   -0.36289  -0.36143  -0.36095  -0.35739  -0.35626
 Alpha  occ. eigenvalues --   -0.35524  -0.35478  -0.35039  -0.34919  -0.34635
 Alpha  occ. eigenvalues --   -0.34206  -0.34076  -0.34016  -0.33924  -0.33831
 Alpha  occ. eigenvalues --   -0.33617  -0.33490  -0.33413  -0.33149  -0.32986
 Alpha  occ. eigenvalues --   -0.32865  -0.32789  -0.32666  -0.32543  -0.32516
 Alpha  occ. eigenvalues --   -0.32084  -0.32067  -0.31835  -0.31572  -0.31432
 Alpha  occ. eigenvalues --   -0.31257  -0.31173  -0.31145  -0.30987  -0.30901
 Alpha  occ. eigenvalues --   -0.30776  -0.30231  -0.30186  -0.29996  -0.29821
 Alpha  occ. eigenvalues --   -0.29696  -0.29635  -0.29488  -0.29428  -0.29233
 Alpha  occ. eigenvalues --   -0.28976  -0.28598  -0.28539  -0.28514  -0.27976
 Alpha  occ. eigenvalues --   -0.27421  -0.27163  -0.27097  -0.26984  -0.26523
 Alpha  occ. eigenvalues --   -0.26515  -0.26310  -0.25923  -0.25746  -0.25037
 Alpha  occ. eigenvalues --   -0.24898  -0.24378  -0.24347  -0.24056  -0.24053
 Alpha  occ. eigenvalues --   -0.23342  -0.22771  -0.22003  -0.21319  -0.20891
 Alpha  occ. eigenvalues --   -0.20565  -0.20255  -0.18252  -0.17552  -0.17303
 Alpha  occ. eigenvalues --   -0.15786
 Alpha virt. eigenvalues --   -0.11476  -0.07073  -0.06397  -0.04562  -0.03943
 Alpha virt. eigenvalues --   -0.02407  -0.02238  -0.01750  -0.01345   0.00642
 Alpha virt. eigenvalues --    0.01397   0.01767   0.02114   0.02270   0.02953

 Mulliken charges:
               1
     1  Mg   0.703260
     2  C    0.007643
     3  C   -0.073343
     4  C   -0.051469
     5  C   -0.114898
     6  N   -0.171880
     7  C   -0.102623
     8  C    0.038191
     9  C   -0.036465
    10  C   -0.050366
    11  C    0.153215
    12  C    0.120256
    13  C    0.106140
    14  C    0.119692
    15  O   -0.214778
    16  O   -0.310335
    17  N   -0.299095
    18  C    0.195769
    19  C   -0.171610
    20  C    0.103789
    21  C    0.140220
    22  C    0.222267
    23  C   -0.160756
    24  O   -0.198474
    25  C    0.144345
    26  N   -0.192646
    27  C   -0.009269
    28  C   -0.001860
    29  C    0.094656
    30  C    0.042794
    31  C    0.110347
    32  C    0.001192
    33  C    0.082829
    34  N   -0.269868
    35  C    0.178253
    36  C   -0.133712
    37  C    0.061938
    38  C    0.053387
    39  C    0.190113
    40  C   -0.055245
    41  O   -0.135851
    42  C    0.059835
    43  C    0.101540
    44  O   -0.176602
    45  O   -0.242202
    46  C    0.232078
    47  C    0.329347
    48  C   -0.096541
    49  C   -0.181793
    50  C    0.146720
    51  C    0.087112
    52  C    0.078236
    53  C    0.124882
    54  C   -0.075528
    55  C    0.121484
    56  C    0.105208
    57  C    0.049647
    58  C    0.088265
    59  C   -0.043562
    60  C    0.079856
    61  C    0.120757
    62  C    0.101666
    63  C    0.096075
    64  C   -0.084494
    65  C    0.085961
    66  C    0.084073
    67  H   -0.080390
    68  H   -0.044726
    69  H   -0.071116
    70  H    0.005007
    71  H   -0.018787
    72  H    0.004002
    73  H   -0.003925
    74  H    0.001446
    75  H   -0.021733
    76  H    0.011845
    77  H    0.000961
    78  H   -0.007559
    79  H   -0.006213
    80  H   -0.012632
    81  H    0.021649
    82  H    0.010452
    83  H   -0.016299
    84  H   -0.010591
    85  H   -0.018209
    86  H   -0.029764
    87  H   -0.011054
    88  H   -0.011925
    89  H   -0.005093
    90  H   -0.028326
    91  H   -0.033337
    92  H    0.009635
    93  H   -0.000270
    94  H   -0.003754
    95  H    0.005705
    96  H   -0.016758
    97  H   -0.007188
    98  H    0.011306
    99  H   -0.000434
   100  H    0.008157
   101  H   -0.000812
   102  H    0.019859
   103  H   -0.005422
   104  H   -0.028855
   105  H   -0.005112
   106  H    0.003743
   107  H    0.013455
   108  H   -0.012460
   109  H   -0.037383
   110  H   -0.039131
   111  H   -0.036815
   112  H   -0.044220
   113  H   -0.025142
   114  H   -0.039520
   115  H   -0.018251
   116  H   -0.028310
   117  H   -0.010719
   118  H   -0.036271
   119  H   -0.032556
   120  H   -0.028183
   121  H   -0.031093
   122  H   -0.035373
   123  H   -0.021126
   124  H   -0.036846
   125  H   -0.020741
   126  H   -0.023465
   127  H   -0.012714
   128  H   -0.055212
   129  H   -0.028940
   130  H   -0.042362
   131  H   -0.026578
   132  H   -0.026270
   133  H   -0.044772
   134  H   -0.034469
   135  H   -0.011170
   136  H   -0.020260
   137  H   -0.010047
   138  H   -0.006948
   139  H   -0.029384
   140  H   -0.027977
 Sum of Mulliken charges =  -0.00000

 Dipole moment (field-independent basis, Debye):
    X=              3.8302    Y=              3.9099    Z=             -1.0575  Tot=              5.5745
 Quadrupole moment (field-independent basis, Debye-Ang):
   XX=           -379.8901   YY=           -432.3322   ZZ=           -407.1917
   XY=             18.9437   XZ=             15.7618   YZ=             -5.5837

 Normal termination of Gaussian 16 at Wed May  4 05:58:32 2022.
