 Gaussian 16, Revision A.03,
 Gaussian 16:  ES64L-G16RevA.03 25-Dec-2016

 -----------------------------------
 #p cam-b3lyp/Def2SVP td=(nstates=5)
 -----------------------------------

 --------------------------------------------------------
 step_1401_chromophore_19 TDDFT with cam-b3lyp functional
 --------------------------------------------------------
 Symbolic Z-matrix:
 Charge =  0 Multiplicity = 1

                         Standard orientation:
 ---------------------------------------------------------------------
 Center     Atomic      Atomic             Coordinates (Angstroms)
 Number     Number       Type             X           Y           Z
 ---------------------------------------------------------------------
      1         12           0       -5.969171    0.308376    0.024112
      2          6           0       -3.466937   -2.161363   -0.310022
      3          6           0       -3.562509    2.587820    0.648338
      4          6           0       -8.369368    2.551609    0.816793
      5          6           0       -8.317258   -2.130918   -0.493872
      6          7           0       -3.731235    0.179000    0.420497
      7          6           0       -2.944795   -0.930953    0.151077
      8          6           0       -1.460356   -0.566254    0.306085
      9          6           0       -1.477083    1.044736    0.611536
     10          6           0       -3.023471    1.273396    0.642528
     11          6           0       -0.651801    1.543973    1.824388
     12          6           0       -0.576371   -1.078522   -0.897836
     13          6           0        0.833520   -0.442802   -0.881361
     14          6           0        1.998486   -1.213804   -0.215191
     15          8           0        1.850939   -2.111561    0.642452
     16          8           0        3.261635   -0.749783   -0.642863
     17          7           0       -5.953599    2.296746    0.485738
     18          6           0       -4.851089    3.084361    0.596794
     19          6           0       -5.241363    4.472813    0.657530
     20          6           0       -6.662048    4.452612    0.757390
     21          6           0       -7.072419    3.044674    0.727351
     22          6           0       -4.197841    5.600376    0.772141
     23          6           0       -7.580827    5.520446    0.772604
     24          8           0       -8.831281    5.485202    0.895026
     25          6           0       -7.017344    6.916141    0.723278
     26          7           0       -8.072102    0.160020    0.316539
     27          6           0       -8.807903    1.225941    0.545948
     28          6           0      -10.304984    0.898039    0.560635
     29          6           0      -10.281544   -0.566882    0.009654
     30          6           0       -8.817782   -0.877301   -0.143458
     31          6           0      -11.034147    1.079298    1.938789
     32          6           0      -11.061583   -0.661389   -1.291679
     33          6           0      -10.478669   -0.043250   -2.633775
     34          7           0       -5.946792   -1.691033   -0.297703
     35          6           0       -7.000779   -2.575038   -0.556134
     36          6           0       -6.558787   -3.854895   -0.989641
     37          6           0       -5.147211   -3.716588   -1.047956
     38          6           0       -4.838516   -2.418414   -0.455903
     39          6           0       -7.413185   -4.967494   -1.457355
     40          6           0       -3.931467   -4.441877   -1.183364
     41          8           0       -3.784875   -5.590883   -1.597786
     42          6           0       -2.753374   -3.459375   -0.825969
     43          6           0       -1.963748   -4.146744    0.188122
     44          8           0       -2.023089   -3.818055    1.347119
     45          8           0       -1.261026   -5.225640   -0.275317
     46          6           0       -0.346884   -5.738893    0.702599
     47          6           0        4.376998   -1.311736    0.204489
     48          6           0        5.622239   -0.767623   -0.363933
     49          6           0        6.802518   -0.409701    0.220412
     50          6           0        7.152915   -0.568348    1.711455
     51          6           0        7.867650    0.367455   -0.667673
     52          6           0        7.641101    1.883308   -0.954669
     53          6           0        7.932037    2.308727   -2.390480
     54          6           0        9.303872    2.934290   -2.619837
     55          6           0        9.262733    4.078474   -3.647976
     56          6           0       10.410024    1.819416   -2.994263
     57          6           0       11.768651    2.057911   -2.317592
     58          6           0       12.478598    0.756901   -1.722709
     59          6           0       13.633192    0.979659   -0.712251
     60          6           0       15.047212    0.747649   -1.332875
     61          6           0       13.504184    0.011758    0.443147
     62          6           0       12.789493    0.544960    1.707430
     63          6           0       11.652589   -0.370456    2.179763
     64          6           0       12.086743   -1.269137    3.376004
     65          6           0       12.197420   -2.754304    2.952015
     66          6           0       11.132355   -1.147251    4.598728
     67          1           0       -2.738990    3.291426    0.784970
     68          1           0       -9.217515    3.225550    0.951144
     69          1           0       -9.114447   -2.850480   -0.686941
     70          1           0       -1.268151   -1.167352    1.194673
     71          1           0       -1.221893    1.564098   -0.312075
     72          1           0       -0.117708    0.662800    2.179547
     73          1           0       -1.319640    1.831858    2.636800
     74          1           0       -0.021775    2.391345    1.557210
     75          1           0       -1.051862   -0.892847   -1.860234
     76          1           0       -0.410891   -2.150553   -0.783770
     77          1           0        0.914014    0.510637   -0.358449
     78          1           0        0.989538   -0.106415   -1.905823
     79          1           0       -4.318321    6.207937   -0.125157
     80          1           0       -3.181315    5.224571    0.658157
     81          1           0       -4.520567    6.131955    1.667525
     82          1           0       -6.441239    7.096890    1.630953
     83          1           0       -7.882988    7.565869    0.599599
     84          1           0       -6.467930    7.014008   -0.213615
     85          1           0      -10.829962    1.615498   -0.071343
     86          1           0      -10.869246   -1.172285    0.700290
     87          1           0      -10.352070    1.509446    2.671877
     88          1           0      -11.383131    0.178285    2.443045
     89          1           0      -11.861839    1.786230    1.875471
     90          1           0      -12.080160   -0.302221   -1.141488
     91          1           0      -11.222586   -1.718942   -1.501986
     92          1           0      -10.035081   -0.881886   -3.171684
     93          1           0       -9.783225    0.719511   -2.284607
     94          1           0      -11.302000    0.467586   -3.132843
     95          1           0       -6.910190   -5.825828   -1.903346
     96          1           0       -8.026702   -4.639620   -2.296558
     97          1           0       -8.181284   -5.266592   -0.744737
     98          1           0       -2.168814   -3.230650   -1.716430
     99          1           0       -0.852792   -6.134833    1.583156
    100          1           0        0.406513   -5.073387    1.124924
    101          1           0        0.236072   -6.538992    0.247132
    102          1           0        4.311725   -2.398667    0.267593
    103          1           0        4.239445   -0.887164    1.199066
    104          1           0        5.487261   -0.496303   -1.411358
    105          1           0        6.395571   -1.137607    2.250779
    106          1           0        7.166042    0.463886    2.062987
    107          1           0        8.155732   -0.991373    1.748055
    108          1           0        8.011614   -0.218218   -1.576167
    109          1           0        8.824365    0.274794   -0.153781
    110          1           0        8.185486    2.522955   -0.260054
    111          1           0        6.607386    2.070976   -0.667389
    112          1           0        7.155250    3.067823   -2.474670
    113          1           0        7.720049    1.469200   -3.052218
    114          1           0        9.639086    3.391336   -1.688781
    115          1           0       10.219833    4.129309   -4.167284
    116          1           0        9.184720    5.006037   -3.082356
    117          1           0        8.395128    4.131261   -4.304727
    118          1           0       10.450211    1.913021   -4.079893
    119          1           0       10.060506    0.802211   -2.823090
    120          1           0       11.720303    2.800862   -1.520656
    121          1           0       12.420303    2.543384   -3.044189
    122          1           0       12.891285    0.245713   -2.592359
    123          1           0       11.693026    0.112137   -1.326616
    124          1           0       13.607221    2.039182   -0.458880
    125          1           0       15.197940    1.503956   -2.102106
    126          1           0       15.071690   -0.249072   -1.772622
    127          1           0       15.929664    0.721001   -0.693598
    128          1           0       14.518786   -0.187714    0.789498
    129          1           0       13.200890   -0.979916    0.108617
    130          1           0       12.330255    1.512315    1.507026
    131          1           0       13.476452    0.767114    2.524688
    132          1           0       11.225383   -1.021698    1.417026
    133          1           0       10.786834    0.222904    2.473286
    134          1           0       13.047874   -0.996556    3.810896
    135          1           0       11.162308   -3.095474    2.921211
    136          1           0       12.723795   -3.258122    3.762386
    137          1           0       12.743793   -2.967675    2.033232
    138          1           0       10.164985   -0.699700    4.368654
    139          1           0       11.621688   -0.527117    5.349862
    140          1           0       11.035502   -2.042108    5.213170
 ---------------------------------------------------------------------

 SCF Done:  E(RCAM-B3LYP) =  -3007.19847477     A.U. after   18 cycles

 Excitation energies and oscillator strengths:

 Excited State   1:      Singlet-A      1.7283 eV  717.36 nm  f=0.3754  <S**2>=0.000
     245 -> 248        0.18685
     246 -> 247        0.68346
     245 <- 248        0.10752
 This state for optimization and/or second-order correction.
 Total Energy, E(TD-HF/TD-DFT) =  -3007.13495946
 Copying the excited state density for this state as the 1-particle RhoCI density.

 Excited State   2:      Singlet-A      2.2525 eV  550.43 nm  f=0.0827  <S**2>=0.000
     245 -> 247        0.62761
     246 -> 248       -0.31279

 Excited State   3:      Singlet-A      3.2397 eV  382.71 nm  f=0.0008  <S**2>=0.000
     241 -> 247        0.57172
     241 -> 248       -0.12447
     241 -> 249        0.30319
     241 -> 250        0.13328
     241 -> 251       -0.14004

 Excited State   4:      Singlet-A      3.4223 eV  362.28 nm  f=0.4101  <S**2>=0.000
     240 -> 247        0.24453
     242 -> 247        0.22688
     242 -> 249       -0.11637
     244 -> 247        0.13448
     245 -> 247        0.23029
     246 -> 248        0.51678

 Excited State   5:      Singlet-A      3.4389 eV  360.53 nm  f=0.0924  <S**2>=0.000
     240 -> 247       -0.19314
     242 -> 247        0.33971
     242 -> 249       -0.22648
     242 -> 250        0.17584
     244 -> 247        0.39219
     244 -> 249       -0.11627
     245 -> 247       -0.10853
     246 -> 248       -0.22619

 The electronic state is 1-A.
 Alpha  occ. eigenvalues --  -46.88154 -19.25488 -19.24303 -19.20990 -19.18934
 Alpha  occ. eigenvalues --  -19.17959 -19.17920 -14.42141 -14.41632 -14.39565
 Alpha  occ. eigenvalues --  -14.39185 -10.40813 -10.38234 -10.34121 -10.33818
 Alpha  occ. eigenvalues --  -10.32241 -10.31477 -10.31103 -10.30676 -10.30446
 Alpha  occ. eigenvalues --  -10.30358 -10.30050 -10.29957 -10.29836 -10.29178
 Alpha  occ. eigenvalues --  -10.28884 -10.28715 -10.28641 -10.28298 -10.28287
 Alpha  occ. eigenvalues --  -10.28217 -10.28085 -10.28030 -10.27949 -10.27648
 Alpha  occ. eigenvalues --  -10.27242 -10.27028 -10.27009 -10.26925 -10.26919
 Alpha  occ. eigenvalues --  -10.26622 -10.26316 -10.26100 -10.26044 -10.25811
 Alpha  occ. eigenvalues --  -10.25789 -10.25774 -10.25720 -10.25719 -10.25654
 Alpha  occ. eigenvalues --  -10.25614 -10.25470 -10.25396 -10.25324 -10.25270
 Alpha  occ. eigenvalues --  -10.25217 -10.25214 -10.24980 -10.24941 -10.24791
 Alpha  occ. eigenvalues --  -10.24776 -10.24658 -10.24504 -10.24457 -10.24420
 Alpha  occ. eigenvalues --  -10.24414  -3.16847  -1.91733  -1.91300  -1.91167
 Alpha  occ. eigenvalues --   -1.16507  -1.14870  -1.08487  -1.07919  -1.07888
 Alpha  occ. eigenvalues --   -1.07017  -1.05023  -1.04088  -1.03552  -1.02697
 Alpha  occ. eigenvalues --   -0.91966  -0.90141  -0.89685  -0.89298  -0.89188
 Alpha  occ. eigenvalues --   -0.88456  -0.88451  -0.88103  -0.87585  -0.87243
 Alpha  occ. eigenvalues --   -0.86932  -0.85388  -0.84465  -0.83608  -0.83138
 Alpha  occ. eigenvalues --   -0.82499  -0.81809  -0.81395  -0.80786  -0.80469
 Alpha  occ. eigenvalues --   -0.80225  -0.78941  -0.78295  -0.77176  -0.76070
 Alpha  occ. eigenvalues --   -0.75835  -0.75315  -0.75296  -0.74709  -0.74469
 Alpha  occ. eigenvalues --   -0.73367  -0.72800  -0.72096  -0.70939  -0.69944
 Alpha  occ. eigenvalues --   -0.69406  -0.68740  -0.67752  -0.66987  -0.65957
 Alpha  occ. eigenvalues --   -0.65358  -0.65182  -0.64737  -0.64137  -0.63915
 Alpha  occ. eigenvalues --   -0.63274  -0.63190  -0.63142  -0.61846  -0.60266
 Alpha  occ. eigenvalues --   -0.59945  -0.59703  -0.59058  -0.58307  -0.57882
 Alpha  occ. eigenvalues --   -0.57392  -0.57230  -0.56301  -0.56076  -0.55736
 Alpha  occ. eigenvalues --   -0.55085  -0.54984  -0.54260  -0.54030  -0.53744
 Alpha  occ. eigenvalues --   -0.53517  -0.53509  -0.52971  -0.52921  -0.52652
 Alpha  occ. eigenvalues --   -0.52473  -0.52257  -0.52170  -0.52063  -0.51760
 Alpha  occ. eigenvalues --   -0.51548  -0.51234  -0.51180  -0.50721  -0.50662
 Alpha  occ. eigenvalues --   -0.50435  -0.50126  -0.49765  -0.49706  -0.49547
 Alpha  occ. eigenvalues --   -0.49482  -0.49124  -0.49020  -0.48746  -0.48441
 Alpha  occ. eigenvalues --   -0.48397  -0.48352  -0.48235  -0.48163  -0.47951
 Alpha  occ. eigenvalues --   -0.47799  -0.47609  -0.47271  -0.47060  -0.46602
 Alpha  occ. eigenvalues --   -0.46126  -0.45985  -0.45759  -0.45737  -0.45464
 Alpha  occ. eigenvalues --   -0.45365  -0.45142  -0.45048  -0.44943  -0.44723
 Alpha  occ. eigenvalues --   -0.44471  -0.44395  -0.44278  -0.44182  -0.44009
 Alpha  occ. eigenvalues --   -0.43854  -0.43607  -0.43523  -0.43336  -0.43212
 Alpha  occ. eigenvalues --   -0.43088  -0.42826  -0.42529  -0.42451  -0.42150
 Alpha  occ. eigenvalues --   -0.42090  -0.41690  -0.41602  -0.41442  -0.41308
 Alpha  occ. eigenvalues --   -0.41108  -0.40853  -0.40814  -0.40614  -0.40524
 Alpha  occ. eigenvalues --   -0.40024  -0.39666  -0.39503  -0.39482  -0.38928
 Alpha  occ. eigenvalues --   -0.38240  -0.38011  -0.37924  -0.37878  -0.37737
 Alpha  occ. eigenvalues --   -0.37336  -0.37238  -0.36833  -0.36528  -0.36058
 Alpha  occ. eigenvalues --   -0.35786  -0.35492  -0.34942  -0.34785  -0.34496
 Alpha  occ. eigenvalues --   -0.34252  -0.33614  -0.33442  -0.31352  -0.30392
 Alpha  occ. eigenvalues --   -0.30230  -0.30011  -0.29908  -0.29548  -0.24131
 Alpha  occ. eigenvalues --   -0.21034
 Alpha virt. eigenvalues --   -0.08495  -0.01985  -0.00155   0.02274   0.02592
 Alpha virt. eigenvalues --    0.03957   0.05298   0.05829   0.06039   0.06821
 Alpha virt. eigenvalues --    0.07317   0.08277   0.08706   0.09058   0.09140

 Mulliken charges:
               1
     1  Mg   0.838696
     2  C   -0.013372
     3  C   -0.095012
     4  C   -0.069552
     5  C   -0.112490
     6  N   -0.242610
     7  C   -0.054601
     8  C   -0.008565
     9  C   -0.095148
    10  C   -0.013092
    11  C    0.089773
    12  C    0.065173
    13  C    0.036451
    14  C    0.202372
    15  O   -0.257412
    16  O   -0.375507
    17  N   -0.392769
    18  C    0.202912
    19  C   -0.163464
    20  C    0.023722
    21  C    0.167536
    22  C    0.164979
    23  C   -0.076238
    24  O   -0.239183
    25  C    0.059302
    26  N   -0.264578
    27  C    0.014877
    28  C   -0.058181
    29  C    0.033991
    30  C    0.049199
    31  C    0.052147
    32  C   -0.043810
    33  C    0.023678
    34  N   -0.359499
    35  C    0.172741
    36  C   -0.132089
    37  C   -0.003126
    38  C    0.082564
    39  C    0.128423
    40  C    0.037313
    41  O   -0.176018
    42  C   -0.018753
    43  C    0.184998
    44  O   -0.211357
    45  O   -0.302392
    46  C    0.186769
    47  C    0.296515
    48  C   -0.118235
    49  C   -0.203389
    50  C    0.090599
    51  C    0.037094
    52  C    0.026372
    53  C    0.063570
    54  C   -0.127180
    55  C    0.060252
    56  C    0.050558
    57  C    0.001979
    58  C    0.041021
    59  C   -0.104727
    60  C    0.024725
    61  C    0.061078
    62  C    0.048183
    63  C    0.041653
    64  C   -0.142371
    65  C    0.030893
    66  C    0.024905
    67  H   -0.046423
    68  H   -0.001505
    69  H   -0.035203
    70  H    0.041372
    71  H    0.015125
    72  H    0.029582
    73  H    0.023454
    74  H    0.024844
    75  H    0.010898
    76  H    0.037765
    77  H    0.030455
    78  H    0.028623
    79  H    0.022892
    80  H    0.018384
    81  H    0.047224
    82  H    0.037606
    83  H    0.022576
    84  H    0.018484
    85  H    0.016135
    86  H    0.006119
    87  H    0.014982
    88  H    0.013808
    89  H    0.019162
    90  H   -0.000282
    91  H   -0.005407
    92  H    0.032051
    93  H    0.017497
    94  H    0.019782
    95  H    0.034889
    96  H    0.008912
    97  H    0.017784
    98  H    0.051842
    99  H    0.024838
   100  H    0.030703
   101  H    0.024027
   102  H    0.049749
   103  H    0.021514
   104  H    0.005537
   105  H    0.018348
   106  H    0.025734
   107  H    0.032713
   108  H    0.015695
   109  H   -0.012194
   110  H   -0.010502
   111  H   -0.005575
   112  H   -0.012246
   113  H    0.002383
   114  H   -0.008379
   115  H    0.005681
   116  H   -0.003227
   117  H    0.014044
   118  H   -0.006270
   119  H   -0.006401
   120  H   -0.003245
   121  H   -0.004778
   122  H   -0.006627
   123  H    0.002842
   124  H   -0.004910
   125  H    0.003679
   126  H   -0.000329
   127  H    0.012373
   128  H   -0.022636
   129  H   -0.001675
   130  H   -0.013466
   131  H    0.002231
   132  H   -0.001278
   133  H   -0.016226
   134  H   -0.003652
   135  H    0.010804
   136  H    0.003639
   137  H    0.012489
   138  H    0.014379
   139  H   -0.004109
   140  H   -0.001395
 Sum of Mulliken charges =  -0.00000

 Dipole moment (field-independent basis, Debye):
    X=              3.9342    Y=              5.2710    Z=             -0.9071  Tot=              6.6396
 Quadrupole moment (field-independent basis, Debye-Ang):
   XX=           -378.8541   YY=           -427.9295   ZZ=           -407.2646
   XY=             12.1169   XZ=             15.5799   YZ=             -5.5854

 Normal termination of Gaussian 16 at Wed May  4 05:02:04 2022.
