 Gaussian 16, Revision A.03,
 Gaussian 16:  ES64L-G16RevA.03 25-Dec-2016

 ---------------------------------
 #p PBE1PBE/Def2SVP td=(nstates=5)
 ---------------------------------

 ------------------------------------------------------
 step_1401_chromophore_19 TDDFT with PBE1PBE functional
 ------------------------------------------------------
 Symbolic Z-matrix:
 Charge =  0 Multiplicity = 1

                         Standard orientation:
 ---------------------------------------------------------------------
 Center     Atomic      Atomic             Coordinates (Angstroms)
 Number     Number       Type             X           Y           Z
 ---------------------------------------------------------------------
      1         12           0       -5.969171    0.308376    0.024112
      2          6           0       -3.466937   -2.161363   -0.310022
      3          6           0       -3.562509    2.587820    0.648338
      4          6           0       -8.369368    2.551609    0.816793
      5          6           0       -8.317258   -2.130918   -0.493872
      6          7           0       -3.731235    0.179000    0.420497
      7          6           0       -2.944795   -0.930953    0.151077
      8          6           0       -1.460356   -0.566254    0.306085
      9          6           0       -1.477083    1.044736    0.611536
     10          6           0       -3.023471    1.273396    0.642528
     11          6           0       -0.651801    1.543973    1.824388
     12          6           0       -0.576371   -1.078522   -0.897836
     13          6           0        0.833520   -0.442802   -0.881361
     14          6           0        1.998486   -1.213804   -0.215191
     15          8           0        1.850939   -2.111561    0.642452
     16          8           0        3.261635   -0.749783   -0.642863
     17          7           0       -5.953599    2.296746    0.485738
     18          6           0       -4.851089    3.084361    0.596794
     19          6           0       -5.241363    4.472813    0.657530
     20          6           0       -6.662048    4.452612    0.757390
     21          6           0       -7.072419    3.044674    0.727351
     22          6           0       -4.197841    5.600376    0.772141
     23          6           0       -7.580827    5.520446    0.772604
     24          8           0       -8.831281    5.485202    0.895026
     25          6           0       -7.017344    6.916141    0.723278
     26          7           0       -8.072102    0.160020    0.316539
     27          6           0       -8.807903    1.225941    0.545948
     28          6           0      -10.304984    0.898039    0.560635
     29          6           0      -10.281544   -0.566882    0.009654
     30          6           0       -8.817782   -0.877301   -0.143458
     31          6           0      -11.034147    1.079298    1.938789
     32          6           0      -11.061583   -0.661389   -1.291679
     33          6           0      -10.478669   -0.043250   -2.633775
     34          7           0       -5.946792   -1.691033   -0.297703
     35          6           0       -7.000779   -2.575038   -0.556134
     36          6           0       -6.558787   -3.854895   -0.989641
     37          6           0       -5.147211   -3.716588   -1.047956
     38          6           0       -4.838516   -2.418414   -0.455903
     39          6           0       -7.413185   -4.967494   -1.457355
     40          6           0       -3.931467   -4.441877   -1.183364
     41          8           0       -3.784875   -5.590883   -1.597786
     42          6           0       -2.753374   -3.459375   -0.825969
     43          6           0       -1.963748   -4.146744    0.188122
     44          8           0       -2.023089   -3.818055    1.347119
     45          8           0       -1.261026   -5.225640   -0.275317
     46          6           0       -0.346884   -5.738893    0.702599
     47          6           0        4.376998   -1.311736    0.204489
     48          6           0        5.622239   -0.767623   -0.363933
     49          6           0        6.802518   -0.409701    0.220412
     50          6           0        7.152915   -0.568348    1.711455
     51          6           0        7.867650    0.367455   -0.667673
     52          6           0        7.641101    1.883308   -0.954669
     53          6           0        7.932037    2.308727   -2.390480
     54          6           0        9.303872    2.934290   -2.619837
     55          6           0        9.262733    4.078474   -3.647976
     56          6           0       10.410024    1.819416   -2.994263
     57          6           0       11.768651    2.057911   -2.317592
     58          6           0       12.478598    0.756901   -1.722709
     59          6           0       13.633192    0.979659   -0.712251
     60          6           0       15.047212    0.747649   -1.332875
     61          6           0       13.504184    0.011758    0.443147
     62          6           0       12.789493    0.544960    1.707430
     63          6           0       11.652589   -0.370456    2.179763
     64          6           0       12.086743   -1.269137    3.376004
     65          6           0       12.197420   -2.754304    2.952015
     66          6           0       11.132355   -1.147251    4.598728
     67          1           0       -2.738990    3.291426    0.784970
     68          1           0       -9.217515    3.225550    0.951144
     69          1           0       -9.114447   -2.850480   -0.686941
     70          1           0       -1.268151   -1.167352    1.194673
     71          1           0       -1.221893    1.564098   -0.312075
     72          1           0       -0.117708    0.662800    2.179547
     73          1           0       -1.319640    1.831858    2.636800
     74          1           0       -0.021775    2.391345    1.557210
     75          1           0       -1.051862   -0.892847   -1.860234
     76          1           0       -0.410891   -2.150553   -0.783770
     77          1           0        0.914014    0.510637   -0.358449
     78          1           0        0.989538   -0.106415   -1.905823
     79          1           0       -4.318321    6.207937   -0.125157
     80          1           0       -3.181315    5.224571    0.658157
     81          1           0       -4.520567    6.131955    1.667525
     82          1           0       -6.441239    7.096890    1.630953
     83          1           0       -7.882988    7.565869    0.599599
     84          1           0       -6.467930    7.014008   -0.213615
     85          1           0      -10.829962    1.615498   -0.071343
     86          1           0      -10.869246   -1.172285    0.700290
     87          1           0      -10.352070    1.509446    2.671877
     88          1           0      -11.383131    0.178285    2.443045
     89          1           0      -11.861839    1.786230    1.875471
     90          1           0      -12.080160   -0.302221   -1.141488
     91          1           0      -11.222586   -1.718942   -1.501986
     92          1           0      -10.035081   -0.881886   -3.171684
     93          1           0       -9.783225    0.719511   -2.284607
     94          1           0      -11.302000    0.467586   -3.132843
     95          1           0       -6.910190   -5.825828   -1.903346
     96          1           0       -8.026702   -4.639620   -2.296558
     97          1           0       -8.181284   -5.266592   -0.744737
     98          1           0       -2.168814   -3.230650   -1.716430
     99          1           0       -0.852792   -6.134833    1.583156
    100          1           0        0.406513   -5.073387    1.124924
    101          1           0        0.236072   -6.538992    0.247132
    102          1           0        4.311725   -2.398667    0.267593
    103          1           0        4.239445   -0.887164    1.199066
    104          1           0        5.487261   -0.496303   -1.411358
    105          1           0        6.395571   -1.137607    2.250779
    106          1           0        7.166042    0.463886    2.062987
    107          1           0        8.155732   -0.991373    1.748055
    108          1           0        8.011614   -0.218218   -1.576167
    109          1           0        8.824365    0.274794   -0.153781
    110          1           0        8.185486    2.522955   -0.260054
    111          1           0        6.607386    2.070976   -0.667389
    112          1           0        7.155250    3.067823   -2.474670
    113          1           0        7.720049    1.469200   -3.052218
    114          1           0        9.639086    3.391336   -1.688781
    115          1           0       10.219833    4.129309   -4.167284
    116          1           0        9.184720    5.006037   -3.082356
    117          1           0        8.395128    4.131261   -4.304727
    118          1           0       10.450211    1.913021   -4.079893
    119          1           0       10.060506    0.802211   -2.823090
    120          1           0       11.720303    2.800862   -1.520656
    121          1           0       12.420303    2.543384   -3.044189
    122          1           0       12.891285    0.245713   -2.592359
    123          1           0       11.693026    0.112137   -1.326616
    124          1           0       13.607221    2.039182   -0.458880
    125          1           0       15.197940    1.503956   -2.102106
    126          1           0       15.071690   -0.249072   -1.772622
    127          1           0       15.929664    0.721001   -0.693598
    128          1           0       14.518786   -0.187714    0.789498
    129          1           0       13.200890   -0.979916    0.108617
    130          1           0       12.330255    1.512315    1.507026
    131          1           0       13.476452    0.767114    2.524688
    132          1           0       11.225383   -1.021698    1.417026
    133          1           0       10.786834    0.222904    2.473286
    134          1           0       13.047874   -0.996556    3.810896
    135          1           0       11.162308   -3.095474    2.921211
    136          1           0       12.723795   -3.258122    3.762386
    137          1           0       12.743793   -2.967675    2.033232
    138          1           0       10.164985   -0.699700    4.368654
    139          1           0       11.621688   -0.527117    5.349862
    140          1           0       11.035502   -2.042108    5.213170
 ---------------------------------------------------------------------

 SCF Done:  E(RPBE1PBE) =  -3005.38686294     A.U. after   15 cycles

 Excitation energies and oscillator strengths:

 Excited State   1:      Singlet-A      1.8557 eV  668.14 nm  f=0.3631  <S**2>=0.000
     245 -> 248       -0.18004
     246 -> 247        0.69048
     246 <- 247       -0.10130
 This state for optimization and/or second-order correction.
 Total Energy, E(TD-HF/TD-DFT) =  -3005.31866820
 Copying the excited state density for this state as the 1-particle RhoCI density.

 Excited State   2:      Singlet-A      2.2408 eV  553.31 nm  f=0.0870  <S**2>=0.000
     245 -> 247        0.64387
     246 -> 248        0.27905

 Excited State   3:      Singlet-A      2.7430 eV  452.01 nm  f=0.0001  <S**2>=0.000
     244 -> 247        0.66849
     244 -> 249        0.16928
     244 -> 250        0.10081

 Excited State   4:      Singlet-A      2.9089 eV  426.23 nm  f=0.0002  <S**2>=0.000
     243 -> 247        0.66425
     243 -> 249       -0.16769

 Excited State   5:      Singlet-A      3.1903 eV  388.63 nm  f=0.0092  <S**2>=0.000
     240 -> 247       -0.19521
     241 -> 247        0.65866
     243 -> 247        0.10768

 The electronic state is 1-A.
 Alpha  occ. eigenvalues --  -46.91567 -19.26217 -19.24983 -19.21303 -19.19205
 Alpha  occ. eigenvalues --  -19.18419 -19.17997 -14.41600 -14.41165 -14.39149
 Alpha  occ. eigenvalues --  -14.38970 -10.37898 -10.35271 -10.31476 -10.30675
 Alpha  occ. eigenvalues --  -10.29628 -10.29017 -10.28997 -10.28249 -10.28028
 Alpha  occ. eigenvalues --  -10.27891 -10.27724 -10.27222 -10.27130 -10.26948
 Alpha  occ. eigenvalues --  -10.26938 -10.26566 -10.26248 -10.26179 -10.26032
 Alpha  occ. eigenvalues --  -10.25933 -10.25735 -10.25648 -10.25610 -10.25427
 Alpha  occ. eigenvalues --  -10.25073 -10.24831 -10.24547 -10.24427 -10.24319
 Alpha  occ. eigenvalues --  -10.24044 -10.24000 -10.23756 -10.23666 -10.23501
 Alpha  occ. eigenvalues --  -10.23468 -10.23445 -10.23388 -10.23285 -10.23258
 Alpha  occ. eigenvalues --  -10.23112 -10.22947 -10.22936 -10.22861 -10.22825
 Alpha  occ. eigenvalues --  -10.22786 -10.22769 -10.22539 -10.22464 -10.22360
 Alpha  occ. eigenvalues --  -10.22337 -10.22048 -10.22006 -10.21908 -10.21821
 Alpha  occ. eigenvalues --  -10.21789  -3.13836  -1.86664  -1.86207  -1.86080
 Alpha  occ. eigenvalues --   -1.11323  -1.09666  -1.03459  -1.02794  -1.02368
 Alpha  occ. eigenvalues --   -1.01894  -0.99678  -0.98656  -0.98226  -0.97452
 Alpha  occ. eigenvalues --   -0.86429  -0.84229  -0.83790  -0.83489  -0.83447
 Alpha  occ. eigenvalues --   -0.82715  -0.82583  -0.82224  -0.81687  -0.81603
 Alpha  occ. eigenvalues --   -0.81430  -0.79616  -0.78646  -0.77920  -0.77441
 Alpha  occ. eigenvalues --   -0.76670  -0.75957  -0.75555  -0.75145  -0.74699
 Alpha  occ. eigenvalues --   -0.74412  -0.73012  -0.72647  -0.71525  -0.70435
 Alpha  occ. eigenvalues --   -0.70007  -0.69650  -0.69393  -0.68841  -0.68624
 Alpha  occ. eigenvalues --   -0.67748  -0.67222  -0.66529  -0.65244  -0.64318
 Alpha  occ. eigenvalues --   -0.63799  -0.62941  -0.62261  -0.61213  -0.60398
 Alpha  occ. eigenvalues --   -0.59798  -0.59578  -0.59294  -0.58465  -0.58238
 Alpha  occ. eigenvalues --   -0.57665  -0.57421  -0.57359  -0.56486  -0.54692
 Alpha  occ. eigenvalues --   -0.54361  -0.54327  -0.53726  -0.52784  -0.52500
 Alpha  occ. eigenvalues --   -0.51982  -0.51707  -0.50888  -0.50598  -0.50170
 Alpha  occ. eigenvalues --   -0.49611  -0.49438  -0.48876  -0.48492  -0.48275
 Alpha  occ. eigenvalues --   -0.48140  -0.47686  -0.47608  -0.47379  -0.47102
 Alpha  occ. eigenvalues --   -0.46977  -0.46841  -0.46641  -0.46556  -0.46336
 Alpha  occ. eigenvalues --   -0.46074  -0.45800  -0.45694  -0.45357  -0.45175
 Alpha  occ. eigenvalues --   -0.44932  -0.44644  -0.44480  -0.44214  -0.44048
 Alpha  occ. eigenvalues --   -0.43967  -0.43750  -0.43625  -0.43402  -0.43070
 Alpha  occ. eigenvalues --   -0.43047  -0.42901  -0.42835  -0.42701  -0.42598
 Alpha  occ. eigenvalues --   -0.42441  -0.42175  -0.41896  -0.41718  -0.41373
 Alpha  occ. eigenvalues --   -0.40893  -0.40781  -0.40529  -0.40393  -0.40224
 Alpha  occ. eigenvalues --   -0.40128  -0.39789  -0.39719  -0.39700  -0.39564
 Alpha  occ. eigenvalues --   -0.39291  -0.39213  -0.39007  -0.38960  -0.38679
 Alpha  occ. eigenvalues --   -0.38530  -0.38459  -0.38302  -0.38135  -0.38049
 Alpha  occ. eigenvalues --   -0.37778  -0.37644  -0.37386  -0.37170  -0.37055
 Alpha  occ. eigenvalues --   -0.36875  -0.36399  -0.36364  -0.36165  -0.36034
 Alpha  occ. eigenvalues --   -0.35949  -0.35734  -0.35638  -0.35482  -0.35452
 Alpha  occ. eigenvalues --   -0.34837  -0.34638  -0.34517  -0.34281  -0.33649
 Alpha  occ. eigenvalues --   -0.33014  -0.32999  -0.32772  -0.32728  -0.32649
 Alpha  occ. eigenvalues --   -0.32306  -0.32061  -0.31950  -0.31438  -0.31082
 Alpha  occ. eigenvalues --   -0.30745  -0.30303  -0.29807  -0.29737  -0.29450
 Alpha  occ. eigenvalues --   -0.29409  -0.29063  -0.28401  -0.26949  -0.25965
 Alpha  occ. eigenvalues --   -0.25530  -0.25200  -0.24966  -0.24734  -0.21043
 Alpha  occ. eigenvalues --   -0.18697
 Alpha virt. eigenvalues --   -0.11039  -0.05470  -0.04254  -0.02046  -0.00692
 Alpha virt. eigenvalues --   -0.00206   0.00789   0.01339   0.01519   0.03446
 Alpha virt. eigenvalues --    0.04148   0.04717   0.04986   0.05260   0.05804

 Mulliken charges:
               1
     1  Mg   0.988584
     2  C   -0.020139
     3  C   -0.093035
     4  C   -0.048114
     5  C   -0.097392
     6  N   -0.349945
     7  C    0.024427
     8  C   -0.066247
     9  C   -0.177443
    10  C    0.041451
    11  C    0.028600
    12  C   -0.000985
    13  C   -0.031307
    14  C    0.260019
    15  O   -0.287223
    16  O   -0.403360
    17  N   -0.511130
    18  C    0.216708
    19  C   -0.179427
    20  C   -0.034745
    21  C    0.198908
    22  C    0.100935
    23  C   -0.025913
    24  O   -0.279138
    25  C   -0.017643
    26  N   -0.374391
    27  C    0.045459
    28  C   -0.126048
    29  C   -0.054063
    30  C    0.089581
    31  C   -0.002591
    32  C   -0.096938
    33  C   -0.053945
    34  N   -0.488577
    35  C    0.184669
    36  C   -0.150469
    37  C   -0.035779
    38  C    0.130301
    39  C    0.073226
    40  C    0.127601
    41  O   -0.217928
    42  C   -0.134221
    43  C    0.274843
    44  O   -0.243508
    45  O   -0.335666
    46  C    0.128857
    47  C    0.256410
    48  C   -0.128088
    49  C   -0.246631
    50  C    0.020578
    51  C   -0.025586
    52  C   -0.031532
    53  C    0.002213
    54  C   -0.210026
    55  C   -0.001274
    56  C   -0.004189
    57  C   -0.058873
    58  C   -0.008405
    59  C   -0.195197
    60  C   -0.037053
    61  C    0.005336
    62  C   -0.014021
    63  C   -0.013797
    64  C   -0.231070
    65  C   -0.035298
    66  C   -0.033821
    67  H   -0.011671
    68  H    0.029055
    69  H   -0.003245
    70  H    0.079098
    71  H    0.053307
    72  H    0.056894
    73  H    0.051578
    74  H    0.050717
    75  H    0.043343
    76  H    0.077229
    77  H    0.065362
    78  H    0.059438
    79  H    0.050738
    80  H    0.043996
    81  H    0.073807
    82  H    0.063999
    83  H    0.049782
    84  H    0.046145
    85  H    0.052235
    86  H    0.043466
    87  H    0.043201
    88  H    0.039908
    89  H    0.045929
    90  H    0.033799
    91  H    0.028065
    92  H    0.058847
    93  H    0.049547
    94  H    0.048321
    95  H    0.062786
    96  H    0.038049
    97  H    0.046271
    98  H    0.086823
    99  H    0.047991
   100  H    0.053385
   101  H    0.046924
   102  H    0.075325
   103  H    0.048893
   104  H    0.035694
   105  H    0.045358
   106  H    0.054709
   107  H    0.061903
   108  H    0.046066
   109  H    0.024482
   110  H    0.020845
   111  H    0.027703
   112  H    0.022094
   113  H    0.034339
   114  H    0.029211
   115  H    0.033645
   116  H    0.025328
   117  H    0.040658
   118  H    0.027347
   119  H    0.026239
   120  H    0.027828
   121  H    0.027804
   122  H    0.026424
   123  H    0.035821
   124  H    0.032331
   125  H    0.032512
   126  H    0.027763
   127  H    0.039829
   128  H    0.012063
   129  H    0.029023
   130  H    0.019519
   131  H    0.033527
   132  H    0.030784
   133  H    0.016952
   134  H    0.033378
   135  H    0.039307
   136  H    0.032314
   137  H    0.040923
   138  H    0.040559
   139  H    0.024138
   140  H    0.025706
 Sum of Mulliken charges =  -0.00000

 Dipole moment (field-independent basis, Debye):
    X=              3.8045    Y=              4.6865    Z=             -1.0398  Tot=              6.1253
 Quadrupole moment (field-independent basis, Debye-Ang):
   XX=           -371.5443   YY=           -425.9404   ZZ=           -404.5652
   XY=             16.7366   XZ=             16.7258   YZ=             -5.5452

 Normal termination of Gaussian 16 at Wed May  4 05:21:46 2022.
