 Gaussian 16, Revision A.03,
 Gaussian 16:  ES64L-G16RevA.03 25-Dec-2016

 --------------------------------
 #p wB97XD/Def2SVP td=(nstates=5)
 --------------------------------

 -----------------------------------------------------
 step_1401_chromophore_19 TDDFT with wB97XD functional
 -----------------------------------------------------
 Symbolic Z-matrix:
 Charge =  0 Multiplicity = 1

                         Standard orientation:
 ---------------------------------------------------------------------
 Center     Atomic      Atomic             Coordinates (Angstroms)
 Number     Number       Type             X           Y           Z
 ---------------------------------------------------------------------
      1         12           0       -5.969171    0.308376    0.024112
      2          6           0       -3.466937   -2.161363   -0.310022
      3          6           0       -3.562509    2.587820    0.648338
      4          6           0       -8.369368    2.551609    0.816793
      5          6           0       -8.317258   -2.130918   -0.493872
      6          7           0       -3.731235    0.179000    0.420497
      7          6           0       -2.944795   -0.930953    0.151077
      8          6           0       -1.460356   -0.566254    0.306085
      9          6           0       -1.477083    1.044736    0.611536
     10          6           0       -3.023471    1.273396    0.642528
     11          6           0       -0.651801    1.543973    1.824388
     12          6           0       -0.576371   -1.078522   -0.897836
     13          6           0        0.833520   -0.442802   -0.881361
     14          6           0        1.998486   -1.213804   -0.215191
     15          8           0        1.850939   -2.111561    0.642452
     16          8           0        3.261635   -0.749783   -0.642863
     17          7           0       -5.953599    2.296746    0.485738
     18          6           0       -4.851089    3.084361    0.596794
     19          6           0       -5.241363    4.472813    0.657530
     20          6           0       -6.662048    4.452612    0.757390
     21          6           0       -7.072419    3.044674    0.727351
     22          6           0       -4.197841    5.600376    0.772141
     23          6           0       -7.580827    5.520446    0.772604
     24          8           0       -8.831281    5.485202    0.895026
     25          6           0       -7.017344    6.916141    0.723278
     26          7           0       -8.072102    0.160020    0.316539
     27          6           0       -8.807903    1.225941    0.545948
     28          6           0      -10.304984    0.898039    0.560635
     29          6           0      -10.281544   -0.566882    0.009654
     30          6           0       -8.817782   -0.877301   -0.143458
     31          6           0      -11.034147    1.079298    1.938789
     32          6           0      -11.061583   -0.661389   -1.291679
     33          6           0      -10.478669   -0.043250   -2.633775
     34          7           0       -5.946792   -1.691033   -0.297703
     35          6           0       -7.000779   -2.575038   -0.556134
     36          6           0       -6.558787   -3.854895   -0.989641
     37          6           0       -5.147211   -3.716588   -1.047956
     38          6           0       -4.838516   -2.418414   -0.455903
     39          6           0       -7.413185   -4.967494   -1.457355
     40          6           0       -3.931467   -4.441877   -1.183364
     41          8           0       -3.784875   -5.590883   -1.597786
     42          6           0       -2.753374   -3.459375   -0.825969
     43          6           0       -1.963748   -4.146744    0.188122
     44          8           0       -2.023089   -3.818055    1.347119
     45          8           0       -1.261026   -5.225640   -0.275317
     46          6           0       -0.346884   -5.738893    0.702599
     47          6           0        4.376998   -1.311736    0.204489
     48          6           0        5.622239   -0.767623   -0.363933
     49          6           0        6.802518   -0.409701    0.220412
     50          6           0        7.152915   -0.568348    1.711455
     51          6           0        7.867650    0.367455   -0.667673
     52          6           0        7.641101    1.883308   -0.954669
     53          6           0        7.932037    2.308727   -2.390480
     54          6           0        9.303872    2.934290   -2.619837
     55          6           0        9.262733    4.078474   -3.647976
     56          6           0       10.410024    1.819416   -2.994263
     57          6           0       11.768651    2.057911   -2.317592
     58          6           0       12.478598    0.756901   -1.722709
     59          6           0       13.633192    0.979659   -0.712251
     60          6           0       15.047212    0.747649   -1.332875
     61          6           0       13.504184    0.011758    0.443147
     62          6           0       12.789493    0.544960    1.707430
     63          6           0       11.652589   -0.370456    2.179763
     64          6           0       12.086743   -1.269137    3.376004
     65          6           0       12.197420   -2.754304    2.952015
     66          6           0       11.132355   -1.147251    4.598728
     67          1           0       -2.738990    3.291426    0.784970
     68          1           0       -9.217515    3.225550    0.951144
     69          1           0       -9.114447   -2.850480   -0.686941
     70          1           0       -1.268151   -1.167352    1.194673
     71          1           0       -1.221893    1.564098   -0.312075
     72          1           0       -0.117708    0.662800    2.179547
     73          1           0       -1.319640    1.831858    2.636800
     74          1           0       -0.021775    2.391345    1.557210
     75          1           0       -1.051862   -0.892847   -1.860234
     76          1           0       -0.410891   -2.150553   -0.783770
     77          1           0        0.914014    0.510637   -0.358449
     78          1           0        0.989538   -0.106415   -1.905823
     79          1           0       -4.318321    6.207937   -0.125157
     80          1           0       -3.181315    5.224571    0.658157
     81          1           0       -4.520567    6.131955    1.667525
     82          1           0       -6.441239    7.096890    1.630953
     83          1           0       -7.882988    7.565869    0.599599
     84          1           0       -6.467930    7.014008   -0.213615
     85          1           0      -10.829962    1.615498   -0.071343
     86          1           0      -10.869246   -1.172285    0.700290
     87          1           0      -10.352070    1.509446    2.671877
     88          1           0      -11.383131    0.178285    2.443045
     89          1           0      -11.861839    1.786230    1.875471
     90          1           0      -12.080160   -0.302221   -1.141488
     91          1           0      -11.222586   -1.718942   -1.501986
     92          1           0      -10.035081   -0.881886   -3.171684
     93          1           0       -9.783225    0.719511   -2.284607
     94          1           0      -11.302000    0.467586   -3.132843
     95          1           0       -6.910190   -5.825828   -1.903346
     96          1           0       -8.026702   -4.639620   -2.296558
     97          1           0       -8.181284   -5.266592   -0.744737
     98          1           0       -2.168814   -3.230650   -1.716430
     99          1           0       -0.852792   -6.134833    1.583156
    100          1           0        0.406513   -5.073387    1.124924
    101          1           0        0.236072   -6.538992    0.247132
    102          1           0        4.311725   -2.398667    0.267593
    103          1           0        4.239445   -0.887164    1.199066
    104          1           0        5.487261   -0.496303   -1.411358
    105          1           0        6.395571   -1.137607    2.250779
    106          1           0        7.166042    0.463886    2.062987
    107          1           0        8.155732   -0.991373    1.748055
    108          1           0        8.011614   -0.218218   -1.576167
    109          1           0        8.824365    0.274794   -0.153781
    110          1           0        8.185486    2.522955   -0.260054
    111          1           0        6.607386    2.070976   -0.667389
    112          1           0        7.155250    3.067823   -2.474670
    113          1           0        7.720049    1.469200   -3.052218
    114          1           0        9.639086    3.391336   -1.688781
    115          1           0       10.219833    4.129309   -4.167284
    116          1           0        9.184720    5.006037   -3.082356
    117          1           0        8.395128    4.131261   -4.304727
    118          1           0       10.450211    1.913021   -4.079893
    119          1           0       10.060506    0.802211   -2.823090
    120          1           0       11.720303    2.800862   -1.520656
    121          1           0       12.420303    2.543384   -3.044189
    122          1           0       12.891285    0.245713   -2.592359
    123          1           0       11.693026    0.112137   -1.326616
    124          1           0       13.607221    2.039182   -0.458880
    125          1           0       15.197940    1.503956   -2.102106
    126          1           0       15.071690   -0.249072   -1.772622
    127          1           0       15.929664    0.721001   -0.693598
    128          1           0       14.518786   -0.187714    0.789498
    129          1           0       13.200890   -0.979916    0.108617
    130          1           0       12.330255    1.512315    1.507026
    131          1           0       13.476452    0.767114    2.524688
    132          1           0       11.225383   -1.021698    1.417026
    133          1           0       10.786834    0.222904    2.473286
    134          1           0       13.047874   -0.996556    3.810896
    135          1           0       11.162308   -3.095474    2.921211
    136          1           0       12.723795   -3.258122    3.762386
    137          1           0       12.743793   -2.967675    2.033232
    138          1           0       10.164985   -0.699700    4.368654
    139          1           0       11.621688   -0.527117    5.349862
    140          1           0       11.035502   -2.042108    5.213170
 ---------------------------------------------------------------------

 SCF Done:  E(RwB97XD) =  -3007.89650785     A.U. after   19 cycles

 Excitation energies and oscillator strengths:

 Excited State   1:      Singlet-A      1.6831 eV  736.65 nm  f=0.3742  <S**2>=0.000
     245 -> 248        0.19117
     246 -> 247        0.68128
     245 <- 248        0.11593
 This state for optimization and/or second-order correction.
 Total Energy, E(TD-HF/TD-DFT) =  -3007.83465541
 Copying the excited state density for this state as the 1-particle RhoCI density.

 Excited State   2:      Singlet-A      2.1980 eV  564.07 nm  f=0.0808  <S**2>=0.000
     245 -> 247        0.62593
     246 -> 248       -0.31311

 Excited State   3:      Singlet-A      3.2334 eV  383.45 nm  f=0.0006  <S**2>=0.000
     241 -> 247        0.56316
     241 -> 248       -0.12551
     241 -> 249        0.32675
     241 -> 250        0.18505

 Excited State   4:      Singlet-A      3.4273 eV  361.76 nm  f=0.4731  <S**2>=0.000
     239 -> 247        0.11127
     240 -> 247        0.32756
     245 -> 247        0.24201
     246 -> 248        0.55228
     245 <- 247       -0.10170

 Excited State   5:      Singlet-A      3.4811 eV  356.17 nm  f=0.0003  <S**2>=0.000
     240 -> 247       -0.11654
     242 -> 247        0.26372
     242 -> 249       -0.22158
     242 -> 250        0.19350
     244 -> 247        0.48931
     244 -> 249       -0.21433
     244 -> 250        0.13766

 The electronic state is 1-A.
 Alpha  occ. eigenvalues --  -46.94509 -19.30745 -19.29486 -19.25916 -19.23809
 Alpha  occ. eigenvalues --  -19.23071 -19.22924 -14.46731 -14.46198 -14.44205
 Alpha  occ. eigenvalues --  -14.43765 -10.44644 -10.42019 -10.38087 -10.37819
 Alpha  occ. eigenvalues --  -10.36123 -10.35546 -10.35104 -10.34721 -10.34554
 Alpha  occ. eigenvalues --  -10.34467 -10.34097 -10.34001 -10.33652 -10.33261
 Alpha  occ. eigenvalues --  -10.32820 -10.32650 -10.32588 -10.32368 -10.32305
 Alpha  occ. eigenvalues --  -10.32238 -10.32145 -10.32085 -10.31980 -10.31697
 Alpha  occ. eigenvalues --  -10.31292 -10.31176 -10.31099 -10.30939 -10.30796
 Alpha  occ. eigenvalues --  -10.30449 -10.30304 -10.30051 -10.30040 -10.29895
 Alpha  occ. eigenvalues --  -10.29763 -10.29695 -10.29663 -10.29653 -10.29490
 Alpha  occ. eigenvalues --  -10.29487 -10.29315 -10.29281 -10.29247 -10.29186
 Alpha  occ. eigenvalues --  -10.29158 -10.29145 -10.28905 -10.28841 -10.28764
 Alpha  occ. eigenvalues --  -10.28696 -10.28485 -10.28380 -10.28346 -10.28238
 Alpha  occ. eigenvalues --  -10.28225  -3.20619  -1.94199  -1.93745  -1.93611
 Alpha  occ. eigenvalues --   -1.18630  -1.17029  -1.10673  -1.10146  -1.10067
 Alpha  occ. eigenvalues --   -1.09214  -1.07021  -1.06129  -1.05599  -1.04717
 Alpha  occ. eigenvalues --   -0.93902  -0.91912  -0.91462  -0.91145  -0.91099
 Alpha  occ. eigenvalues --   -0.90354  -0.90262  -0.90110  -0.89352  -0.89167
 Alpha  occ. eigenvalues --   -0.88848  -0.87278  -0.86309  -0.85523  -0.85030
 Alpha  occ. eigenvalues --   -0.84336  -0.83738  -0.83254  -0.82697  -0.82410
 Alpha  occ. eigenvalues --   -0.82083  -0.80929  -0.80191  -0.79079  -0.77989
 Alpha  occ. eigenvalues --   -0.77683  -0.77213  -0.77095  -0.76529  -0.76291
 Alpha  occ. eigenvalues --   -0.75306  -0.74765  -0.74065  -0.72870  -0.71864
 Alpha  occ. eigenvalues --   -0.71407  -0.70597  -0.69767  -0.68848  -0.67910
 Alpha  occ. eigenvalues --   -0.67230  -0.67177  -0.66698  -0.65935  -0.65865
 Alpha  occ. eigenvalues --   -0.65125  -0.65076  -0.65011  -0.63806  -0.62309
 Alpha  occ. eigenvalues --   -0.61856  -0.61679  -0.61031  -0.60208  -0.59856
 Alpha  occ. eigenvalues --   -0.59382  -0.59173  -0.58279  -0.57977  -0.57632
 Alpha  occ. eigenvalues --   -0.57005  -0.56907  -0.56212  -0.55903  -0.55663
 Alpha  occ. eigenvalues --   -0.55511  -0.55437  -0.54895  -0.54787  -0.54512
 Alpha  occ. eigenvalues --   -0.54349  -0.54223  -0.54074  -0.53943  -0.53626
 Alpha  occ. eigenvalues --   -0.53432  -0.53120  -0.53068  -0.52644  -0.52600
 Alpha  occ. eigenvalues --   -0.52366  -0.52061  -0.51676  -0.51586  -0.51527
 Alpha  occ. eigenvalues --   -0.51364  -0.51053  -0.50931  -0.50659  -0.50397
 Alpha  occ. eigenvalues --   -0.50322  -0.50205  -0.50162  -0.50089  -0.49836
 Alpha  occ. eigenvalues --   -0.49733  -0.49481  -0.49250  -0.48964  -0.48529
 Alpha  occ. eigenvalues --   -0.48062  -0.47906  -0.47668  -0.47621  -0.47339
 Alpha  occ. eigenvalues --   -0.47286  -0.46971  -0.46913  -0.46857  -0.46628
 Alpha  occ. eigenvalues --   -0.46382  -0.46300  -0.46145  -0.46074  -0.45868
 Alpha  occ. eigenvalues --   -0.45787  -0.45536  -0.45425  -0.45244  -0.45156
 Alpha  occ. eigenvalues --   -0.45035  -0.44750  -0.44428  -0.44312  -0.44060
 Alpha  occ. eigenvalues --   -0.44006  -0.43726  -0.43510  -0.43294  -0.43188
 Alpha  occ. eigenvalues --   -0.43011  -0.42734  -0.42702  -0.42534  -0.42445
 Alpha  occ. eigenvalues --   -0.41882  -0.41558  -0.41427  -0.41322  -0.40765
 Alpha  occ. eigenvalues --   -0.40067  -0.39930  -0.39765  -0.39720  -0.39630
 Alpha  occ. eigenvalues --   -0.39357  -0.39069  -0.39003  -0.38366  -0.37974
 Alpha  occ. eigenvalues --   -0.37722  -0.37326  -0.36843  -0.36630  -0.36324
 Alpha  occ. eigenvalues --   -0.36246  -0.35720  -0.35454  -0.33591  -0.32624
 Alpha  occ. eigenvalues --   -0.32204  -0.31990  -0.31947  -0.31619  -0.26076
 Alpha  occ. eigenvalues --   -0.22849
 Alpha virt. eigenvalues --   -0.06849  -0.00061   0.01913   0.04457   0.05605
 Alpha virt. eigenvalues --    0.06204   0.07524   0.08174   0.08337   0.09752
 Alpha virt. eigenvalues --    0.10838   0.11302   0.11726   0.12049   0.12520

 Mulliken charges:
               1
     1  Mg   0.978875
     2  C   -0.021536
     3  C   -0.108096
     4  C   -0.073842
     5  C   -0.113930
     6  N   -0.312816
     7  C   -0.011152
     8  C   -0.048300
     9  C   -0.150038
    10  C    0.023502
    11  C    0.037811
    12  C    0.019704
    13  C   -0.016763
    14  C    0.252960
    15  O   -0.285699
    16  O   -0.403983
    17  N   -0.479884
    18  C    0.215727
    19  C   -0.172463
    20  C   -0.026618
    21  C    0.192992
    22  C    0.116377
    23  C   -0.028631
    24  O   -0.270555
    25  C   -0.002755
    26  N   -0.337213
    27  C    0.036907
    28  C   -0.107633
    29  C   -0.021081
    30  C    0.070762
    31  C    0.006714
    32  C   -0.085925
    33  C   -0.032111
    34  N   -0.451212
    35  C    0.176836
    36  C   -0.146047
    37  C   -0.037398
    38  C    0.112579
    39  C    0.081159
    40  C    0.108529
    41  O   -0.210859
    42  C   -0.092011
    43  C    0.251034
    44  O   -0.238656
    45  O   -0.334290
    46  C    0.142601
    47  C    0.269136
    48  C   -0.138103
    49  C   -0.232051
    50  C    0.039182
    51  C   -0.005498
    52  C   -0.016485
    53  C    0.018364
    54  C   -0.179562
    55  C    0.009590
    56  C    0.010732
    57  C   -0.039851
    58  C    0.004804
    59  C   -0.165450
    60  C   -0.022415
    61  C    0.020084
    62  C    0.003680
    63  C    0.002776
    64  C   -0.204310
    65  C   -0.019131
    66  C   -0.022668
    67  H   -0.022113
    68  H    0.025509
    69  H   -0.009700
    70  H    0.068909
    71  H    0.041288
    72  H    0.052028
    73  H    0.046249
    74  H    0.046487
    75  H    0.036722
    76  H    0.061408
    77  H    0.054546
    78  H    0.055867
    79  H    0.046051
    80  H    0.042741
    81  H    0.068829
    82  H    0.058767
    83  H    0.049414
    84  H    0.039573
    85  H    0.042088
    86  H    0.033488
    87  H    0.035962
    88  H    0.035308
    89  H    0.041113
    90  H    0.024706
    91  H    0.019249
    92  H    0.053530
    93  H    0.036504
    94  H    0.043079
    95  H    0.060037
    96  H    0.030818
    97  H    0.040430
    98  H    0.080091
    99  H    0.043288
   100  H    0.050713
   101  H    0.043462
   102  H    0.071745
   103  H    0.042231
   104  H    0.031999
   105  H    0.040457
   106  H    0.047267
   107  H    0.054568
   108  H    0.037131
   109  H    0.012495
   110  H    0.013239
   111  H    0.018534
   112  H    0.014123
   113  H    0.025543
   114  H    0.013959
   115  H    0.027114
   116  H    0.019496
   117  H    0.035704
   118  H    0.018724
   119  H    0.014151
   120  H    0.016506
   121  H    0.019573
   122  H    0.017450
   123  H    0.023438
   124  H    0.020660
   125  H    0.026504
   126  H    0.019696
   127  H    0.034243
   128  H    0.002522
   129  H    0.019043
   130  H    0.010637
   131  H    0.026167
   132  H    0.018910
   133  H    0.006941
   134  H    0.021945
   135  H    0.031174
   136  H    0.025925
   137  H    0.034852
   138  H    0.034224
   139  H    0.018144
   140  H    0.020128
 Sum of Mulliken charges =  -0.00000

 Dipole moment (field-independent basis, Debye):
    X=              3.9393    Y=              5.5407    Z=             -0.9106  Tot=              6.8591
 Quadrupole moment (field-independent basis, Debye-Ang):
   XX=           -373.3195   YY=           -423.4579   ZZ=           -404.2572
   XY=             11.3547   XZ=             15.9188   YZ=             -5.5443

 Normal termination of Gaussian 16 at Wed May  4 05:46:23 2022.
