 Gaussian 16, Revision A.03,
 Gaussian 16:  ES64L-G16RevA.03 25-Dec-2016

 --------------------
 #p ZINDO=(nstates=5)
 --------------------

 ------------------------------
 step_1401_chromophore_19 ZINDO
 ------------------------------
 Symbolic Z-matrix:
 Charge =  0 Multiplicity = 1

                         Standard orientation:
 ---------------------------------------------------------------------
 Center     Atomic      Atomic             Coordinates (Angstroms)
 Number     Number       Type             X           Y           Z
 ---------------------------------------------------------------------
      1         12           0       -5.969171    0.308376    0.024112
      2          6           0       -3.466937   -2.161363   -0.310022
      3          6           0       -3.562509    2.587820    0.648338
      4          6           0       -8.369368    2.551609    0.816793
      5          6           0       -8.317258   -2.130918   -0.493872
      6          7           0       -3.731235    0.179000    0.420497
      7          6           0       -2.944795   -0.930953    0.151077
      8          6           0       -1.460356   -0.566254    0.306085
      9          6           0       -1.477083    1.044736    0.611536
     10          6           0       -3.023471    1.273396    0.642528
     11          6           0       -0.651801    1.543973    1.824388
     12          6           0       -0.576371   -1.078522   -0.897836
     13          6           0        0.833520   -0.442802   -0.881361
     14          6           0        1.998486   -1.213804   -0.215191
     15          8           0        1.850939   -2.111561    0.642452
     16          8           0        3.261635   -0.749783   -0.642863
     17          7           0       -5.953599    2.296746    0.485738
     18          6           0       -4.851089    3.084361    0.596794
     19          6           0       -5.241363    4.472813    0.657530
     20          6           0       -6.662048    4.452612    0.757390
     21          6           0       -7.072419    3.044674    0.727351
     22          6           0       -4.197841    5.600376    0.772141
     23          6           0       -7.580827    5.520446    0.772604
     24          8           0       -8.831281    5.485202    0.895026
     25          6           0       -7.017344    6.916141    0.723278
     26          7           0       -8.072102    0.160020    0.316539
     27          6           0       -8.807903    1.225941    0.545948
     28          6           0      -10.304984    0.898039    0.560635
     29          6           0      -10.281544   -0.566882    0.009654
     30          6           0       -8.817782   -0.877301   -0.143458
     31          6           0      -11.034147    1.079298    1.938789
     32          6           0      -11.061583   -0.661389   -1.291679
     33          6           0      -10.478669   -0.043250   -2.633775
     34          7           0       -5.946792   -1.691033   -0.297703
     35          6           0       -7.000779   -2.575038   -0.556134
     36          6           0       -6.558787   -3.854895   -0.989641
     37          6           0       -5.147211   -3.716588   -1.047956
     38          6           0       -4.838516   -2.418414   -0.455903
     39          6           0       -7.413185   -4.967494   -1.457355
     40          6           0       -3.931467   -4.441877   -1.183364
     41          8           0       -3.784875   -5.590883   -1.597786
     42          6           0       -2.753374   -3.459375   -0.825969
     43          6           0       -1.963748   -4.146744    0.188122
     44          8           0       -2.023089   -3.818055    1.347119
     45          8           0       -1.261026   -5.225640   -0.275317
     46          6           0       -0.346884   -5.738893    0.702599
     47          6           0        4.376998   -1.311736    0.204489
     48          6           0        5.622239   -0.767623   -0.363933
     49          6           0        6.802518   -0.409701    0.220412
     50          6           0        7.152915   -0.568348    1.711455
     51          6           0        7.867650    0.367455   -0.667673
     52          6           0        7.641101    1.883308   -0.954669
     53          6           0        7.932037    2.308727   -2.390480
     54          6           0        9.303872    2.934290   -2.619837
     55          6           0        9.262733    4.078474   -3.647976
     56          6           0       10.410024    1.819416   -2.994263
     57          6           0       11.768651    2.057911   -2.317592
     58          6           0       12.478598    0.756901   -1.722709
     59          6           0       13.633192    0.979659   -0.712251
     60          6           0       15.047212    0.747649   -1.332875
     61          6           0       13.504184    0.011758    0.443147
     62          6           0       12.789493    0.544960    1.707430
     63          6           0       11.652589   -0.370456    2.179763
     64          6           0       12.086743   -1.269137    3.376004
     65          6           0       12.197420   -2.754304    2.952015
     66          6           0       11.132355   -1.147251    4.598728
     67          1           0       -2.738990    3.291426    0.784970
     68          1           0       -9.217515    3.225550    0.951144
     69          1           0       -9.114447   -2.850480   -0.686941
     70          1           0       -1.268151   -1.167352    1.194673
     71          1           0       -1.221893    1.564098   -0.312075
     72          1           0       -0.117708    0.662800    2.179547
     73          1           0       -1.319640    1.831858    2.636800
     74          1           0       -0.021775    2.391345    1.557210
     75          1           0       -1.051862   -0.892847   -1.860234
     76          1           0       -0.410891   -2.150553   -0.783770
     77          1           0        0.914014    0.510637   -0.358449
     78          1           0        0.989538   -0.106415   -1.905823
     79          1           0       -4.318321    6.207937   -0.125157
     80          1           0       -3.181315    5.224571    0.658157
     81          1           0       -4.520567    6.131955    1.667525
     82          1           0       -6.441239    7.096890    1.630953
     83          1           0       -7.882988    7.565869    0.599599
     84          1           0       -6.467930    7.014008   -0.213615
     85          1           0      -10.829962    1.615498   -0.071343
     86          1           0      -10.869246   -1.172285    0.700290
     87          1           0      -10.352070    1.509446    2.671877
     88          1           0      -11.383131    0.178285    2.443045
     89          1           0      -11.861839    1.786230    1.875471
     90          1           0      -12.080160   -0.302221   -1.141488
     91          1           0      -11.222586   -1.718942   -1.501986
     92          1           0      -10.035081   -0.881886   -3.171684
     93          1           0       -9.783225    0.719511   -2.284607
     94          1           0      -11.302000    0.467586   -3.132843
     95          1           0       -6.910190   -5.825828   -1.903346
     96          1           0       -8.026702   -4.639620   -2.296558
     97          1           0       -8.181284   -5.266592   -0.744737
     98          1           0       -2.168814   -3.230650   -1.716430
     99          1           0       -0.852792   -6.134833    1.583156
    100          1           0        0.406513   -5.073387    1.124924
    101          1           0        0.236072   -6.538992    0.247132
    102          1           0        4.311725   -2.398667    0.267593
    103          1           0        4.239445   -0.887164    1.199066
    104          1           0        5.487261   -0.496303   -1.411358
    105          1           0        6.395571   -1.137607    2.250779
    106          1           0        7.166042    0.463886    2.062987
    107          1           0        8.155732   -0.991373    1.748055
    108          1           0        8.011614   -0.218218   -1.576167
    109          1           0        8.824365    0.274794   -0.153781
    110          1           0        8.185486    2.522955   -0.260054
    111          1           0        6.607386    2.070976   -0.667389
    112          1           0        7.155250    3.067823   -2.474670
    113          1           0        7.720049    1.469200   -3.052218
    114          1           0        9.639086    3.391336   -1.688781
    115          1           0       10.219833    4.129309   -4.167284
    116          1           0        9.184720    5.006037   -3.082356
    117          1           0        8.395128    4.131261   -4.304727
    118          1           0       10.450211    1.913021   -4.079893
    119          1           0       10.060506    0.802211   -2.823090
    120          1           0       11.720303    2.800862   -1.520656
    121          1           0       12.420303    2.543384   -3.044189
    122          1           0       12.891285    0.245713   -2.592359
    123          1           0       11.693026    0.112137   -1.326616
    124          1           0       13.607221    2.039182   -0.458880
    125          1           0       15.197940    1.503956   -2.102106
    126          1           0       15.071690   -0.249072   -1.772622
    127          1           0       15.929664    0.721001   -0.693598
    128          1           0       14.518786   -0.187714    0.789498
    129          1           0       13.200890   -0.979916    0.108617
    130          1           0       12.330255    1.512315    1.507026
    131          1           0       13.476452    0.767114    2.524688
    132          1           0       11.225383   -1.021698    1.417026
    133          1           0       10.786834    0.222904    2.473286
    134          1           0       13.047874   -0.996556    3.810896
    135          1           0       11.162308   -3.095474    2.921211
    136          1           0       12.723795   -3.258122    3.762386
    137          1           0       12.743793   -2.967675    2.033232
    138          1           0       10.164985   -0.699700    4.368654
    139          1           0       11.621688   -0.527117    5.349862
    140          1           0       11.035502   -2.042108    5.213170
 ---------------------------------------------------------------------

 SCF Done:  E(RZINDO/S) =  -474.337487513     A.U. after   19 cycles

 Excitation energies and oscillator strengths:

 Excited State   1:      Singlet-A      1.2788 eV  969.54 nm  f=0.5676  <S**2>=0.000
     175 ->178         0.18333
     176 ->177         0.66631
 This state for optimization and/or second-order correction.
 Total Energy, E(CIS/TDA) =  -474.290492468
 Copying the excited state density for this state as the 1-particle RhoCI density.

 Excited State   2:      Singlet-A      1.9242 eV  644.33 nm  f=0.0253  <S**2>=0.000
     175 ->177         0.52658
     176 ->178        -0.44536

 Excited State   3:      Singlet-A      2.6938 eV  460.25 nm  f=0.0004  <S**2>=0.000
     168 ->177         0.22289
     168 ->179        -0.22853
     168 ->181         0.12762
     168 ->186        -0.10822
     169 ->177         0.32894
     169 ->179        -0.33114
     169 ->181         0.18382
     169 ->186        -0.15725

 Excited State   4:      Singlet-A      2.8988 eV  427.71 nm  f=0.2638  <S**2>=0.000
     175 ->177        -0.21221
     176 ->178        -0.28678
     176 ->179         0.50115
     176 ->181         0.21967

 Excited State   5:      Singlet-A      2.9683 eV  417.70 nm  f=0.8469  <S**2>=0.000
     171 ->177         0.13269
     175 ->177         0.34073
     176 ->178         0.40498
     176 ->179         0.40210

 The electronic state is 1-A.
 Alpha  occ. eigenvalues --   -1.84211  -1.83009  -1.80701  -1.73821  -1.71513
 Alpha  occ. eigenvalues --   -1.69389  -1.64020  -1.60499  -1.59387  -1.57411
 Alpha  occ. eigenvalues --   -1.54449  -1.51363  -1.49652  -1.47623  -1.46608
 Alpha  occ. eigenvalues --   -1.43126  -1.41655  -1.40730  -1.38791  -1.38232
 Alpha  occ. eigenvalues --   -1.35739  -1.33481  -1.33050  -1.32173  -1.28903
 Alpha  occ. eigenvalues --   -1.28116  -1.25283  -1.22855  -1.21114  -1.18292
 Alpha  occ. eigenvalues --   -1.17216  -1.15093  -1.14920  -1.13572  -1.13094
 Alpha  occ. eigenvalues --   -1.12687  -1.12083  -1.11405  -1.05199  -1.03684
 Alpha  occ. eigenvalues --   -1.02627  -1.01621  -1.00003  -0.98500  -0.97916
 Alpha  occ. eigenvalues --   -0.95842  -0.94884  -0.93523  -0.93079  -0.92942
 Alpha  occ. eigenvalues --   -0.90260  -0.89467  -0.89285  -0.88820  -0.88181
 Alpha  occ. eigenvalues --   -0.85314  -0.84278  -0.83320  -0.81321  -0.80363
 Alpha  occ. eigenvalues --   -0.78950  -0.78113  -0.77024  -0.76888  -0.76311
 Alpha  occ. eigenvalues --   -0.75447  -0.74921  -0.74134  -0.74096  -0.73859
 Alpha  occ. eigenvalues --   -0.73495  -0.72247  -0.72208  -0.71677  -0.71093
 Alpha  occ. eigenvalues --   -0.70455  -0.69464  -0.69180  -0.68654  -0.67903
 Alpha  occ. eigenvalues --   -0.67610  -0.66754  -0.66670  -0.65517  -0.65100
 Alpha  occ. eigenvalues --   -0.64919  -0.64483  -0.63922  -0.63700  -0.63656
 Alpha  occ. eigenvalues --   -0.62867  -0.62743  -0.62534  -0.62188  -0.61384
 Alpha  occ. eigenvalues --   -0.61145  -0.60846  -0.60429  -0.60322  -0.59960
 Alpha  occ. eigenvalues --   -0.59587  -0.59272  -0.59130  -0.58657  -0.58561
 Alpha  occ. eigenvalues --   -0.57890  -0.57851  -0.57218  -0.56543  -0.56172
 Alpha  occ. eigenvalues --   -0.55709  -0.55497  -0.55443  -0.54981  -0.54840
 Alpha  occ. eigenvalues --   -0.54218  -0.53983  -0.53875  -0.53489  -0.52610
 Alpha  occ. eigenvalues --   -0.52313  -0.52153  -0.51984  -0.51841  -0.51752
 Alpha  occ. eigenvalues --   -0.51675  -0.50965  -0.50944  -0.50646  -0.50181
 Alpha  occ. eigenvalues --   -0.49989  -0.49678  -0.49590  -0.49091  -0.48925
 Alpha  occ. eigenvalues --   -0.48813  -0.48773  -0.48413  -0.48091  -0.47873
 Alpha  occ. eigenvalues --   -0.47446  -0.47023  -0.46956  -0.46823  -0.46741
 Alpha  occ. eigenvalues --   -0.46442  -0.46399  -0.46032  -0.45967  -0.45375
 Alpha  occ. eigenvalues --   -0.45319  -0.44865  -0.44733  -0.44277  -0.44141
 Alpha  occ. eigenvalues --   -0.43429  -0.42810  -0.42651  -0.42568  -0.42183
 Alpha  occ. eigenvalues --   -0.42095  -0.41614  -0.40990  -0.39527  -0.38953
 Alpha  occ. eigenvalues --   -0.37401  -0.36826  -0.35016  -0.34878  -0.33942
 Alpha  occ. eigenvalues --   -0.33756  -0.32241  -0.32186  -0.31851  -0.26696
 Alpha  occ. eigenvalues --   -0.21657
 Alpha virt. eigenvalues --   -0.08294  -0.02140  -0.00962   0.00997   0.01202
 Alpha virt. eigenvalues --    0.02521   0.02925   0.03636   0.04283   0.05412
 Alpha virt. eigenvalues --    0.06510   0.07030   0.07688   0.07845   0.08097

 Mulliken charges:
               1
     1  Mg   0.424335
     2  C   -0.038444
     3  C   -0.092163
     4  C   -0.079764
     5  C   -0.055147
     6  N   -0.270813
     7  C    0.103061
     8  C   -0.007048
     9  C   -0.002428
    10  C    0.161114
    11  C   -0.046028
    12  C   -0.019560
    13  C    0.001830
    14  C    0.460154
    15  O   -0.516445
    16  O   -0.279680
    17  N   -0.337176
    18  C    0.138867
    19  C    0.026398
    20  C   -0.031334
    21  C    0.150532
    22  C   -0.045676
    23  C    0.324117
    24  O   -0.550103
    25  C   -0.039378
    26  N   -0.252747
    27  C    0.173212
    28  C   -0.002727
    29  C    0.012358
    30  C    0.089118
    31  C   -0.053901
    32  C   -0.037632
    33  C   -0.061893
    34  N   -0.314426
    35  C    0.070600
    36  C    0.034104
    37  C   -0.078841
    38  C    0.112144
    39  C   -0.034928
    40  C    0.329937
    41  O   -0.538942
    42  C    0.058213
    43  C    0.495611
    44  O   -0.528607
    45  O   -0.248734
    46  C    0.078369
    47  C    0.113704
    48  C   -0.083829
    49  C   -0.024935
    50  C   -0.042370
    51  C   -0.028888
    52  C   -0.029450
    53  C   -0.027402
    54  C   -0.010975
    55  C   -0.058224
    56  C   -0.038576
    57  C   -0.038342
    58  C   -0.038322
    59  C   -0.002535
    60  C   -0.060730
    61  C   -0.027911
    62  C   -0.030804
    63  C   -0.030484
    64  C   -0.012947
    65  C   -0.058190
    66  C   -0.063933
    67  H    0.013600
    68  H    0.051729
    69  H    0.020633
    70  H    0.057218
    71  H    0.029595
    72  H    0.032583
    73  H    0.024900
    74  H    0.026885
    75  H    0.027247
    76  H    0.039735
    77  H    0.041994
    78  H    0.034995
    79  H    0.029699
    80  H    0.037968
    81  H    0.047769
    82  H    0.044522
    83  H    0.036499
    84  H    0.029933
    85  H    0.033596
    86  H    0.032136
    87  H    0.017564
    88  H    0.023968
    89  H    0.022652
    90  H    0.010837
    91  H    0.005030
    92  H    0.033796
    93  H    0.024591
    94  H    0.023988
    95  H    0.034969
    96  H    0.017797
    97  H    0.029963
    98  H    0.057645
    99  H    0.041682
   100  H    0.042306
   101  H    0.022542
   102  H    0.064098
   103  H    0.043206
   104  H    0.026293
   105  H    0.029584
   106  H    0.030338
   107  H    0.033482
   108  H    0.025132
   109  H    0.009760
   110  H    0.018923
   111  H    0.013502
   112  H    0.011063
   113  H    0.027277
   114  H    0.020672
   115  H    0.020671
   116  H    0.007724
   117  H    0.026291
   118  H    0.017100
   119  H    0.021854
   120  H    0.018225
   121  H    0.015390
   122  H    0.015590
   123  H    0.021545
   124  H    0.024593
   125  H    0.011165
   126  H    0.013810
   127  H    0.022459
   128  H    0.004077
   129  H    0.027820
   130  H    0.010484
   131  H    0.024536
   132  H    0.020617
   133  H    0.010920
   134  H    0.020740
   135  H    0.020770
   136  H    0.011922
   137  H    0.021608
   138  H    0.023870
   139  H    0.007104
   140  H    0.018855
 Sum of Mulliken charges =  -0.00000

 Dipole moment (field-independent basis, Debye):
    X=              5.0496    Y=             10.1404    Z=             -1.8302  Tot=             11.4750
 N-N= 4.278936160916D+03 E-N= 0.000000000000D+00  KE=-9.232355408998D+03
 Leave Link  601 at Wed May  4 05:58:38 2022, MaxMem=  6710886400 cpu:               0.8 elap:               0.0
 (Enter /sw/apps/gaussian-16.0/g16/l9999.exe)
 1\1\GINC-BP1-COMPUTE096\SP\RZINDO CIS\STO-3G\C55H74Mg1N4O6\OF15641\04-
 May-2022\0\\#p ZINDO=(nstates=5)\\step_1401_chromophore_19 ZINDO\\0,1\
 Mg,0,25.337,50.881,26.437\C,0,23.359,51.991,29.144\C,0,27.512,49.545,2
 8.642\C,0,27.459,50.248,23.884\C,0,23.117,52.395,24.313\N,0,25.573,51.
 001,28.698\C,0,24.594,51.451,29.571\C,0,25.011,51.151,31.019\C,0,26.40
 7,50.305,30.863\C,0,26.552,50.354,29.307\C,0,27.616,50.771,31.713\C,0,
 23.848,50.503,31.868\C,0,24.37,49.929,33.206\C,0,24.282,50.799,34.483\

 Normal termination of Gaussian 16 at Wed May  4 05:58:38 2022.
