 Gaussian 16, Revision A.03,
 Gaussian 16:  ES64L-G16RevA.03 25-Dec-2016

 ------------------------------
 #p blyp/Def2SVP td=(nstates=5)
 ------------------------------

 --------------------------------------------------
 step_901_chromophore_17 TDDFT with blyp functional
 --------------------------------------------------
 Symbolic Z-matrix:
 Charge =  0 Multiplicity = 1

                         Standard orientation:
 ---------------------------------------------------------------------
 Center     Atomic      Atomic             Coordinates (Angstroms)
 Number     Number       Type             X           Y           Z
 ---------------------------------------------------------------------
      1         12           0        4.081300    1.065794   -0.564841
      2          6           0        3.658460   -2.413439   -0.732841
      3          6           0        1.150527    1.393743   -2.453609
      4          6           0        4.065885    4.524185    0.037300
      5          6           0        6.511123    0.561416    1.817110
      6          7           0        2.529996   -0.314871   -1.296974
      7          6           0        2.652666   -1.661611   -1.317913
      8          6           0        1.437342   -2.324218   -1.887676
      9          6           0        0.651737   -1.080640   -2.640343
     10          6           0        1.530994    0.047766   -2.152210
     11          6           0        0.391615   -1.155846   -4.155143
     12          6           0        0.618471   -3.076951   -0.760331
     13          6           0        0.099798   -4.405582   -1.197745
     14          6           0       -1.383986   -4.384442   -1.261451
     15          8           0       -2.064087   -4.126707   -2.318571
     16          8           0       -1.940189   -4.780339   -0.079855
     17          7           0        2.858366    2.746878   -1.208848
     18          6           0        1.768236    2.598748   -2.047044
     19          6           0        1.333840    3.926810   -2.439501
     20          6           0        2.178983    4.884383   -1.806154
     21          6           0        3.071409    4.093679   -0.892305
     22          6           0        0.175661    4.253475   -3.303012
     23          6           0        2.121280    6.468520   -1.937869
     24          8           0        1.290232    6.986296   -2.774619
     25          6           0        2.988741    7.327042   -1.097042
     26          7           0        4.947755    2.322915    0.805062
     27          6           0        4.838850    3.719772    0.866148
     28          6           0        5.878503    4.302481    1.838253
     29          6           0        6.777102    3.099006    2.196825
     30          6           0        5.986721    1.866969    1.642545
     31          6           0        6.830585    5.534307    1.426159
     32          6           0        7.224994    2.843274    3.722208
     33          6           0        8.705396    3.205378    3.979091
     34          7           0        5.061202   -0.530518    0.324726
     35          6           0        6.000605   -0.630815    1.237719
     36          6           0        6.387255   -1.991233    1.485134
     37          6           0        5.522505   -2.666702    0.692621
     38          6           0        4.677295   -1.788234    0.051105
     39          6           0        7.498154   -2.488522    2.386800
     40          6           0        5.229108   -4.043586    0.310663
     41          8           0        5.811322   -5.139770    0.595480
     42          6           0        4.015928   -3.859368   -0.593821
     43          6           0        4.373383   -4.511740   -1.883635
     44          8           0        5.275312   -4.090106   -2.584901
     45          8           0        3.713427   -5.666753   -2.111759
     46          6           0        3.784736   -6.337167   -3.487259
     47          6           0       -3.406747   -5.042087   -0.147416
     48          6           0       -4.015078   -4.021526    0.906171
     49          6           0       -5.326692   -3.645255    0.991543
     50          6           0       -6.394666   -4.355954    0.034190
     51          6           0       -5.767174   -2.505659    1.857326
     52          6           0       -5.716915   -2.736649    3.318953
     53          6           0       -4.744697   -1.836466    4.099854
     54          6           0       -5.503490   -0.671548    4.816374
     55          6           0       -4.774504   -0.217501    6.067404
     56          6           0       -5.550957    0.505554    3.828537
     57          6           0       -7.015522    0.910843    3.562289
     58          6           0       -7.611568    0.421986    2.163448
     59          6           0       -8.353188    1.405349    1.326087
     60          6           0       -9.816987    1.344799    1.845843
     61          6           0       -8.315919    1.108062   -0.154057
     62          6           0       -8.700708    2.262124   -1.070239
     63          6           0       -9.915173    1.967165   -2.015139
     64          6           0      -10.724545    3.208902   -2.457495
     65          6           0      -11.719264    3.486932   -1.364664
     66          6           0      -11.386741    3.049511   -3.805302
     67          1           0        0.281990    1.420435   -3.114799
     68          1           0        4.147495    5.588928    0.264571
     69          1           0        7.389399    0.396090    2.445019
     70          1           0        1.770178   -3.098206   -2.580008
     71          1           0       -0.366476   -0.902017   -2.295235
     72          1           0        1.101922   -0.368561   -4.407909
     73          1           0       -0.547320   -0.803786   -4.581635
     74          1           0        0.724085   -2.114486   -4.553933
     75          1           0       -0.166949   -2.369547   -0.495327
     76          1           0        1.220191   -3.263711    0.129430
     77          1           0        0.368590   -5.241542   -0.552148
     78          1           0        0.362554   -4.733464   -2.203133
     79          1           0       -0.446734    4.956343   -2.749243
     80          1           0       -0.448368    3.448453   -3.691488
     81          1           0        0.484792    4.754627   -4.220390
     82          1           0        2.638759    7.214821   -0.071379
     83          1           0        2.850158    8.325949   -1.509145
     84          1           0        4.049170    7.080340   -1.135515
     85          1           0        5.335912    4.563438    2.746099
     86          1           0        7.652745    3.089769    1.546982
     87          1           0        6.583211    6.436363    1.985466
     88          1           0        6.441091    5.765246    0.435239
     89          1           0        7.913771    5.420184    1.467025
     90          1           0        7.055563    1.874361    4.189892
     91          1           0        6.655062    3.603759    4.256457
     92          1           0        9.187837    2.412433    4.551271
     93          1           0        8.744645    4.078726    4.629847
     94          1           0        9.273673    3.279951    3.052113
     95          1           0        7.031731   -2.483725    3.371546
     96          1           0        8.335803   -1.791005    2.357283
     97          1           0        7.773888   -3.514542    2.144027
     98          1           0        3.246972   -4.433257   -0.075000
     99          1           0        3.845353   -5.611606   -4.298129
    100          1           0        2.930324   -6.958517   -3.753807
    101          1           0        4.724708   -6.885096   -3.560067
    102          1           0       -3.825231   -5.963917    0.258161
    103          1           0       -3.888427   -4.926509   -1.118051
    104          1           0       -3.327633   -3.535659    1.598522
    105          1           0       -7.242446   -4.785357    0.567478
    106          1           0       -6.013084   -5.153221   -0.604449
    107          1           0       -6.791074   -3.597905   -0.641840
    108          1           0       -6.795187   -2.253884    1.596247
    109          1           0       -5.237554   -1.571338    1.669848
    110          1           0       -5.351715   -3.697635    3.679974
    111          1           0       -6.695564   -2.678566    3.794886
    112          1           0       -4.048384   -1.397132    3.385864
    113          1           0       -4.280408   -2.428095    4.890016
    114          1           0       -6.532064   -0.966662    5.025227
    115          1           0       -3.790245    0.161729    5.793053
    116          1           0       -4.692121   -1.114114    6.681332
    117          1           0       -5.315919    0.520067    6.659786
    118          1           0       -5.026668    0.334310    2.888556
    119          1           0       -4.949930    1.277217    4.309756
    120          1           0       -7.035033    2.000355    3.545801
    121          1           0       -7.706794    0.683616    4.373383
    122          1           0       -8.277400   -0.432337    2.283767
    123          1           0       -6.771064    0.057270    1.571242
    124          1           0       -7.971545    2.404534    1.536163
    125          1           0      -10.462540    0.850206    1.119834
    126          1           0      -10.236007    2.321253    2.086059
    127          1           0       -9.903374    0.762019    2.762795
    128          1           0       -8.844244    0.213000   -0.483200
    129          1           0       -7.301402    0.810783   -0.420293
    130          1           0       -7.814131    2.546472   -1.636117
    131          1           0       -8.891729    3.160129   -0.482702
    132          1           0      -10.419936    1.186833   -1.445713
    133          1           0       -9.515606    1.537411   -2.932869
    134          1           0      -10.001140    4.024270   -2.475199
    135          1           0      -11.912608    2.625829   -0.725090
    136          1           0      -12.598199    3.906492   -1.854839
    137          1           0      -11.455523    4.291734   -0.677937
    138          1           0      -12.475439    3.078774   -3.838454
    139          1           0      -11.134006    2.057941   -4.181778
    140          1           0      -11.019503    3.914974   -4.357976
 ---------------------------------------------------------------------

 SCF Done:  E(RB-LYP) =  -3007.31298844     A.U. after   23 cycles

 Excitation energies and oscillator strengths:

 Excited State   1:      Singlet-A      1.7478 eV  709.37 nm  f=0.3025  <S**2>=0.000
     245 -> 248        0.16403
     246 -> 247        0.69692
     246 <- 247       -0.16348
 This state for optimization and/or second-order correction.
 Total Energy, E(TD-HF/TD-DFT) =  -3007.24875766
 Copying the excited state density for this state as the 1-particle RhoCI density.

 Excited State   2:      Singlet-A      1.8425 eV  672.90 nm  f=0.0024  <S**2>=0.000
     244 -> 247        0.68417
     245 -> 247        0.16739

 Excited State   3:      Singlet-A      1.9930 eV  622.11 nm  f=0.0018  <S**2>=0.000
     243 -> 247        0.69913

 Excited State   4:      Singlet-A      2.0433 eV  606.79 nm  f=0.0571  <S**2>=0.000
     241 -> 247        0.12232
     242 -> 247       -0.25351
     244 -> 247       -0.14822
     245 -> 247        0.56333
     246 -> 248       -0.23526

 Excited State   5:      Singlet-A      2.0562 eV  602.97 nm  f=0.0079  <S**2>=0.000
     242 -> 247        0.65996
     245 -> 247        0.21571

 The electronic state is 1-A.
 Alpha  occ. eigenvalues --  -46.27279 -18.83511 -18.82584 -18.76495 -18.76205
 Alpha  occ. eigenvalues --  -18.76148 -18.75737 -14.04132 -14.03530 -14.01103
 Alpha  occ. eigenvalues --  -14.00893 -10.04390 -10.03977 -10.00654  -9.99905
 Alpha  occ. eigenvalues --   -9.98897  -9.98611  -9.97223  -9.97020  -9.96967
 Alpha  occ. eigenvalues --   -9.96820  -9.96674  -9.95786  -9.94992  -9.94657
 Alpha  occ. eigenvalues --   -9.94654  -9.94600  -9.94423  -9.94322  -9.94093
 Alpha  occ. eigenvalues --   -9.94055  -9.94034  -9.93531  -9.93494  -9.93486
 Alpha  occ. eigenvalues --   -9.93357  -9.93196  -9.93089  -9.93087  -9.93012
 Alpha  occ. eigenvalues --   -9.92941  -9.92843  -9.92753  -9.92657  -9.92537
 Alpha  occ. eigenvalues --   -9.92335  -9.91911  -9.91831  -9.91557  -9.91442
 Alpha  occ. eigenvalues --   -9.91431  -9.91368  -9.91305  -9.91102  -9.90784
 Alpha  occ. eigenvalues --   -9.90759  -9.90750  -9.90740  -9.90736  -9.90730
 Alpha  occ. eigenvalues --   -9.90718  -9.90667  -9.90498  -9.90480  -9.90385
 Alpha  occ. eigenvalues --   -9.90054  -2.91942  -1.72341  -1.71810  -1.71681
 Alpha  occ. eigenvalues --   -0.97561  -0.97556  -0.89687  -0.89110  -0.88318
 Alpha  occ. eigenvalues --   -0.88281  -0.87604  -0.86864  -0.84474  -0.83583
 Alpha  occ. eigenvalues --   -0.76887  -0.74014  -0.73695  -0.73247  -0.72199
 Alpha  occ. eigenvalues --   -0.71979  -0.71597  -0.71408  -0.71320  -0.70519
 Alpha  occ. eigenvalues --   -0.69626  -0.69062  -0.68289  -0.67784  -0.67451
 Alpha  occ. eigenvalues --   -0.66878  -0.66468  -0.65642  -0.65412  -0.64675
 Alpha  occ. eigenvalues --   -0.63979  -0.62715  -0.62556  -0.61593  -0.60937
 Alpha  occ. eigenvalues --   -0.60437  -0.60181  -0.59897  -0.59430  -0.58856
 Alpha  occ. eigenvalues --   -0.58414  -0.57786  -0.57324  -0.56276  -0.54660
 Alpha  occ. eigenvalues --   -0.54380  -0.54298  -0.52599  -0.52195  -0.51950
 Alpha  occ. eigenvalues --   -0.51108  -0.50990  -0.50857  -0.50485  -0.50362
 Alpha  occ. eigenvalues --   -0.49895  -0.49704  -0.49103  -0.48724  -0.46778
 Alpha  occ. eigenvalues --   -0.46554  -0.46223  -0.45820  -0.45295  -0.45188
 Alpha  occ. eigenvalues --   -0.44256  -0.44095  -0.43348  -0.42509  -0.42372
 Alpha  occ. eigenvalues --   -0.42140  -0.41736  -0.41593  -0.41292  -0.41145
 Alpha  occ. eigenvalues --   -0.41022  -0.40761  -0.40568  -0.40230  -0.40188
 Alpha  occ. eigenvalues --   -0.39996  -0.39864  -0.39555  -0.39431  -0.39352
 Alpha  occ. eigenvalues --   -0.39230  -0.39021  -0.38496  -0.38381  -0.38116
 Alpha  occ. eigenvalues --   -0.37989  -0.37879  -0.37683  -0.37415  -0.37231
 Alpha  occ. eigenvalues --   -0.37154  -0.37067  -0.36890  -0.36732  -0.36527
 Alpha  occ. eigenvalues --   -0.36427  -0.36231  -0.35956  -0.35753  -0.35577
 Alpha  occ. eigenvalues --   -0.35499  -0.35235  -0.35113  -0.34954  -0.34848
 Alpha  occ. eigenvalues --   -0.34728  -0.34518  -0.34366  -0.34278  -0.34009
 Alpha  occ. eigenvalues --   -0.33762  -0.33686  -0.33535  -0.33368  -0.33287
 Alpha  occ. eigenvalues --   -0.33164  -0.32805  -0.32571  -0.32503  -0.32362
 Alpha  occ. eigenvalues --   -0.32040  -0.31906  -0.31638  -0.31449  -0.31165
 Alpha  occ. eigenvalues --   -0.31070  -0.30958  -0.30876  -0.30806  -0.30448
 Alpha  occ. eigenvalues --   -0.30362  -0.30079  -0.29922  -0.29764  -0.29580
 Alpha  occ. eigenvalues --   -0.29347  -0.29155  -0.29085  -0.29025  -0.28838
 Alpha  occ. eigenvalues --   -0.28646  -0.28346  -0.28320  -0.28154  -0.27996
 Alpha  occ. eigenvalues --   -0.27761  -0.27287  -0.27010  -0.26546  -0.26382
 Alpha  occ. eigenvalues --   -0.26351  -0.26191  -0.26147  -0.25727  -0.25264
 Alpha  occ. eigenvalues --   -0.24955  -0.24715  -0.24641  -0.24011  -0.23367
 Alpha  occ. eigenvalues --   -0.23052  -0.22372  -0.21548  -0.21245  -0.21149
 Alpha  occ. eigenvalues --   -0.19807  -0.19454  -0.19123  -0.18622  -0.17852
 Alpha  occ. eigenvalues --   -0.15887
 Alpha virt. eigenvalues --   -0.11905  -0.07306  -0.06589  -0.05314  -0.04049
 Alpha virt. eigenvalues --   -0.03227  -0.02315  -0.02158  -0.01891  -0.00363
 Alpha virt. eigenvalues --    0.00682   0.01964   0.02551   0.02574   0.02752

 Mulliken charges:
               1
     1  Mg   0.716187
     2  C    0.027112
     3  C   -0.081230
     4  C   -0.073383
     5  C   -0.094640
     6  N   -0.198984
     7  C   -0.080437
     8  C    0.012440
     9  C   -0.028518
    10  C    0.028761
    11  C    0.134682
    12  C    0.123376
    13  C    0.190485
    14  C    0.045722
    15  O   -0.253764
    16  O   -0.259704
    17  N   -0.284455
    18  C    0.183142
    19  C   -0.143457
    20  C    0.020314
    21  C    0.101814
    22  C    0.192351
    23  C   -0.054117
    24  O   -0.220821
    25  C    0.148555
    26  N   -0.291515
    27  C    0.045234
    28  C    0.074066
    29  C   -0.039519
    30  C    0.077687
    31  C    0.115433
    32  C    0.085393
    33  C    0.051462
    34  N   -0.208454
    35  C    0.057393
    36  C   -0.201965
    37  C    0.096336
    38  C    0.058000
    39  C    0.190723
    40  C   -0.030203
    41  O   -0.173281
    42  C    0.116302
    43  C    0.083195
    44  O   -0.184167
    45  O   -0.268587
    46  C    0.214894
    47  C    0.296100
    48  C   -0.137320
    49  C   -0.108775
    50  C    0.101443
    51  C    0.175655
    52  C    0.081220
    53  C    0.073867
    54  C   -0.097826
    55  C    0.131690
    56  C    0.122575
    57  C    0.091038
    58  C    0.073960
    59  C   -0.046964
    60  C    0.097692
    61  C    0.103696
    62  C    0.073786
    63  C    0.082035
    64  C   -0.098230
    65  C    0.115273
    66  C    0.136139
    67  H   -0.062871
    68  H   -0.066800
    69  H   -0.062915
    70  H   -0.028172
    71  H   -0.003435
    72  H   -0.024207
    73  H    0.004000
    74  H    0.000522
    75  H   -0.000977
    76  H   -0.003493
    77  H   -0.004781
    78  H   -0.000770
    79  H    0.007930
    80  H   -0.031684
    81  H    0.002893
    82  H    0.025580
    83  H   -0.001461
    84  H    0.022067
    85  H   -0.021561
    86  H   -0.007634
    87  H   -0.017984
    88  H   -0.013072
    89  H    0.015120
    90  H   -0.000629
    91  H   -0.030453
    92  H   -0.019269
    93  H   -0.005269
    94  H   -0.005408
    95  H    0.001384
    96  H    0.001992
    97  H    0.013778
    98  H   -0.014132
    99  H    0.012086
   100  H    0.028205
   101  H    0.028854
   102  H    0.016547
   103  H    0.028378
   104  H   -0.031335
   105  H   -0.001986
   106  H   -0.021332
   107  H    0.002108
   108  H   -0.045595
   109  H   -0.002943
   110  H   -0.034142
   111  H   -0.043489
   112  H   -0.026242
   113  H   -0.047693
   114  H   -0.035777
   115  H   -0.012225
   116  H   -0.024306
   117  H   -0.017694
   118  H   -0.039269
   119  H   -0.050530
   120  H   -0.048616
   121  H   -0.028529
   122  H   -0.025159
   123  H   -0.048366
   124  H   -0.040288
   125  H   -0.017712
   126  H   -0.016459
   127  H   -0.023346
   128  H   -0.043857
   129  H   -0.052941
   130  H   -0.035860
   131  H   -0.039621
   132  H   -0.024823
   133  H   -0.040953
   134  H   -0.032307
   135  H   -0.008892
   136  H   -0.031688
   137  H   -0.027265
   138  H   -0.021014
   139  H   -0.020577
   140  H   -0.008546
 Sum of Mulliken charges =  -0.00000

 Dipole moment (field-independent basis, Debye):
    X=             -0.5988    Y=              0.7782    Z=              2.4872  Tot=              2.6740
 Quadrupole moment (field-independent basis, Debye-Ang):
   XX=           -395.4325   YY=           -420.1311   ZZ=           -401.8063
   XY=             40.4001   XZ=              6.6947   YZ=             26.8818

 Normal termination of Gaussian 16 at Sat Apr 30 21:51:38 2022.
