 Gaussian 16, Revision A.03,
 Gaussian 16:  ES64L-G16RevA.03 25-Dec-2016

 -----------------------------------
 #p cam-b3lyp/Def2SVP td=(nstates=5)
 -----------------------------------

 -------------------------------------------------------
 step_901_chromophore_17 TDDFT with cam-b3lyp functional
 -------------------------------------------------------
 Symbolic Z-matrix:
 Charge =  0 Multiplicity = 1

                         Standard orientation:
 ---------------------------------------------------------------------
 Center     Atomic      Atomic             Coordinates (Angstroms)
 Number     Number       Type             X           Y           Z
 ---------------------------------------------------------------------
      1         12           0        4.081300    1.065794   -0.564841
      2          6           0        3.658460   -2.413439   -0.732841
      3          6           0        1.150527    1.393743   -2.453609
      4          6           0        4.065885    4.524185    0.037300
      5          6           0        6.511123    0.561416    1.817110
      6          7           0        2.529996   -0.314871   -1.296974
      7          6           0        2.652666   -1.661611   -1.317913
      8          6           0        1.437342   -2.324218   -1.887676
      9          6           0        0.651737   -1.080640   -2.640343
     10          6           0        1.530994    0.047766   -2.152210
     11          6           0        0.391615   -1.155846   -4.155143
     12          6           0        0.618471   -3.076951   -0.760331
     13          6           0        0.099798   -4.405582   -1.197745
     14          6           0       -1.383986   -4.384442   -1.261451
     15          8           0       -2.064087   -4.126707   -2.318571
     16          8           0       -1.940189   -4.780339   -0.079855
     17          7           0        2.858366    2.746878   -1.208848
     18          6           0        1.768236    2.598748   -2.047044
     19          6           0        1.333840    3.926810   -2.439501
     20          6           0        2.178983    4.884383   -1.806154
     21          6           0        3.071409    4.093679   -0.892305
     22          6           0        0.175661    4.253475   -3.303012
     23          6           0        2.121280    6.468520   -1.937869
     24          8           0        1.290232    6.986296   -2.774619
     25          6           0        2.988741    7.327042   -1.097042
     26          7           0        4.947755    2.322915    0.805062
     27          6           0        4.838850    3.719772    0.866148
     28          6           0        5.878503    4.302481    1.838253
     29          6           0        6.777102    3.099006    2.196825
     30          6           0        5.986721    1.866969    1.642545
     31          6           0        6.830585    5.534307    1.426159
     32          6           0        7.224994    2.843274    3.722208
     33          6           0        8.705396    3.205378    3.979091
     34          7           0        5.061202   -0.530518    0.324726
     35          6           0        6.000605   -0.630815    1.237719
     36          6           0        6.387255   -1.991233    1.485134
     37          6           0        5.522505   -2.666702    0.692621
     38          6           0        4.677295   -1.788234    0.051105
     39          6           0        7.498154   -2.488522    2.386800
     40          6           0        5.229108   -4.043586    0.310663
     41          8           0        5.811322   -5.139770    0.595480
     42          6           0        4.015928   -3.859368   -0.593821
     43          6           0        4.373383   -4.511740   -1.883635
     44          8           0        5.275312   -4.090106   -2.584901
     45          8           0        3.713427   -5.666753   -2.111759
     46          6           0        3.784736   -6.337167   -3.487259
     47          6           0       -3.406747   -5.042087   -0.147416
     48          6           0       -4.015078   -4.021526    0.906171
     49          6           0       -5.326692   -3.645255    0.991543
     50          6           0       -6.394666   -4.355954    0.034190
     51          6           0       -5.767174   -2.505659    1.857326
     52          6           0       -5.716915   -2.736649    3.318953
     53          6           0       -4.744697   -1.836466    4.099854
     54          6           0       -5.503490   -0.671548    4.816374
     55          6           0       -4.774504   -0.217501    6.067404
     56          6           0       -5.550957    0.505554    3.828537
     57          6           0       -7.015522    0.910843    3.562289
     58          6           0       -7.611568    0.421986    2.163448
     59          6           0       -8.353188    1.405349    1.326087
     60          6           0       -9.816987    1.344799    1.845843
     61          6           0       -8.315919    1.108062   -0.154057
     62          6           0       -8.700708    2.262124   -1.070239
     63          6           0       -9.915173    1.967165   -2.015139
     64          6           0      -10.724545    3.208902   -2.457495
     65          6           0      -11.719264    3.486932   -1.364664
     66          6           0      -11.386741    3.049511   -3.805302
     67          1           0        0.281990    1.420435   -3.114799
     68          1           0        4.147495    5.588928    0.264571
     69          1           0        7.389399    0.396090    2.445019
     70          1           0        1.770178   -3.098206   -2.580008
     71          1           0       -0.366476   -0.902017   -2.295235
     72          1           0        1.101922   -0.368561   -4.407909
     73          1           0       -0.547320   -0.803786   -4.581635
     74          1           0        0.724085   -2.114486   -4.553933
     75          1           0       -0.166949   -2.369547   -0.495327
     76          1           0        1.220191   -3.263711    0.129430
     77          1           0        0.368590   -5.241542   -0.552148
     78          1           0        0.362554   -4.733464   -2.203133
     79          1           0       -0.446734    4.956343   -2.749243
     80          1           0       -0.448368    3.448453   -3.691488
     81          1           0        0.484792    4.754627   -4.220390
     82          1           0        2.638759    7.214821   -0.071379
     83          1           0        2.850158    8.325949   -1.509145
     84          1           0        4.049170    7.080340   -1.135515
     85          1           0        5.335912    4.563438    2.746099
     86          1           0        7.652745    3.089769    1.546982
     87          1           0        6.583211    6.436363    1.985466
     88          1           0        6.441091    5.765246    0.435239
     89          1           0        7.913771    5.420184    1.467025
     90          1           0        7.055563    1.874361    4.189892
     91          1           0        6.655062    3.603759    4.256457
     92          1           0        9.187837    2.412433    4.551271
     93          1           0        8.744645    4.078726    4.629847
     94          1           0        9.273673    3.279951    3.052113
     95          1           0        7.031731   -2.483725    3.371546
     96          1           0        8.335803   -1.791005    2.357283
     97          1           0        7.773888   -3.514542    2.144027
     98          1           0        3.246972   -4.433257   -0.075000
     99          1           0        3.845353   -5.611606   -4.298129
    100          1           0        2.930324   -6.958517   -3.753807
    101          1           0        4.724708   -6.885096   -3.560067
    102          1           0       -3.825231   -5.963917    0.258161
    103          1           0       -3.888427   -4.926509   -1.118051
    104          1           0       -3.327633   -3.535659    1.598522
    105          1           0       -7.242446   -4.785357    0.567478
    106          1           0       -6.013084   -5.153221   -0.604449
    107          1           0       -6.791074   -3.597905   -0.641840
    108          1           0       -6.795187   -2.253884    1.596247
    109          1           0       -5.237554   -1.571338    1.669848
    110          1           0       -5.351715   -3.697635    3.679974
    111          1           0       -6.695564   -2.678566    3.794886
    112          1           0       -4.048384   -1.397132    3.385864
    113          1           0       -4.280408   -2.428095    4.890016
    114          1           0       -6.532064   -0.966662    5.025227
    115          1           0       -3.790245    0.161729    5.793053
    116          1           0       -4.692121   -1.114114    6.681332
    117          1           0       -5.315919    0.520067    6.659786
    118          1           0       -5.026668    0.334310    2.888556
    119          1           0       -4.949930    1.277217    4.309756
    120          1           0       -7.035033    2.000355    3.545801
    121          1           0       -7.706794    0.683616    4.373383
    122          1           0       -8.277400   -0.432337    2.283767
    123          1           0       -6.771064    0.057270    1.571242
    124          1           0       -7.971545    2.404534    1.536163
    125          1           0      -10.462540    0.850206    1.119834
    126          1           0      -10.236007    2.321253    2.086059
    127          1           0       -9.903374    0.762019    2.762795
    128          1           0       -8.844244    0.213000   -0.483200
    129          1           0       -7.301402    0.810783   -0.420293
    130          1           0       -7.814131    2.546472   -1.636117
    131          1           0       -8.891729    3.160129   -0.482702
    132          1           0      -10.419936    1.186833   -1.445713
    133          1           0       -9.515606    1.537411   -2.932869
    134          1           0      -10.001140    4.024270   -2.475199
    135          1           0      -11.912608    2.625829   -0.725090
    136          1           0      -12.598199    3.906492   -1.854839
    137          1           0      -11.455523    4.291734   -0.677937
    138          1           0      -12.475439    3.078774   -3.838454
    139          1           0      -11.134006    2.057941   -4.181778
    140          1           0      -11.019503    3.914974   -4.357976
 ---------------------------------------------------------------------

 SCF Done:  E(RCAM-B3LYP) =  -3007.09913564     A.U. after   17 cycles

 Excitation energies and oscillator strengths:

 Excited State   1:      Singlet-A      1.6356 eV  758.03 nm  f=0.3786  <S**2>=0.000
     245 -> 248        0.16265
     246 -> 247        0.69065
     245 <- 248        0.10582
 This state for optimization and/or second-order correction.
 Total Energy, E(TD-HF/TD-DFT) =  -3007.03902823
 Copying the excited state density for this state as the 1-particle RhoCI density.

 Excited State   2:      Singlet-A      2.2643 eV  547.57 nm  f=0.0885  <S**2>=0.000
     245 -> 247        0.62185
     246 -> 248       -0.31847

 Excited State   3:      Singlet-A      3.1375 eV  395.17 nm  f=0.0010  <S**2>=0.000
     243 -> 247        0.68311
     246 -> 248        0.11582

 Excited State   4:      Singlet-A      3.4732 eV  356.98 nm  f=0.4316  <S**2>=0.000
     241 -> 247       -0.11567
     242 -> 247       -0.35768
     245 -> 247        0.24927
     246 -> 248        0.51153

 Excited State   5:      Singlet-A      3.5159 eV  352.63 nm  f=0.0521  <S**2>=0.000
     239 -> 247        0.15289
     239 -> 249       -0.10847
     240 -> 247        0.15040
     241 -> 247        0.48867
     241 -> 249       -0.29753
     241 -> 250        0.20261
     246 -> 248        0.14920

 The electronic state is 1-A.
 Alpha  occ. eigenvalues --  -46.88840 -19.26440 -19.25543 -19.19437 -19.19323
 Alpha  occ. eigenvalues --  -19.19193 -19.19129 -14.43190 -14.42291 -14.39689
 Alpha  occ. eigenvalues --  -14.39181 -10.39785 -10.39322 -10.36185 -10.35283
 Alpha  occ. eigenvalues --  -10.33079 -10.32764 -10.31921 -10.31620 -10.31489
 Alpha  occ. eigenvalues --  -10.31354 -10.31149 -10.30319 -10.28929 -10.28752
 Alpha  occ. eigenvalues --  -10.28740 -10.28679 -10.28646 -10.28402 -10.28368
 Alpha  occ. eigenvalues --  -10.28305 -10.27962 -10.27946 -10.27852 -10.27697
 Alpha  occ. eigenvalues --  -10.27448 -10.27446 -10.27188 -10.27007 -10.26938
 Alpha  occ. eigenvalues --  -10.26917 -10.26825 -10.26821 -10.26270 -10.26214
 Alpha  occ. eigenvalues --  -10.26083 -10.25865 -10.25512 -10.25232 -10.25190
 Alpha  occ. eigenvalues --  -10.25139 -10.25083 -10.25004 -10.24788 -10.24461
 Alpha  occ. eigenvalues --  -10.24437 -10.24421 -10.24415 -10.24397 -10.24330
 Alpha  occ. eigenvalues --  -10.24325 -10.24310 -10.24278 -10.24080 -10.24058
 Alpha  occ. eigenvalues --  -10.23611  -3.17404  -1.92280  -1.91850  -1.91722
 Alpha  occ. eigenvalues --   -1.16103  -1.15936  -1.07754  -1.07083  -1.06737
 Alpha  occ. eigenvalues --   -1.05960  -1.05411  -1.04613  -1.02113  -1.01117
 Alpha  occ. eigenvalues --   -0.94072  -0.90914  -0.90502  -0.90068  -0.88977
 Alpha  occ. eigenvalues --   -0.88682  -0.88168  -0.88053  -0.87927  -0.86924
 Alpha  occ. eigenvalues --   -0.86067  -0.85749  -0.84615  -0.84008  -0.83648
 Alpha  occ. eigenvalues --   -0.83021  -0.82701  -0.81589  -0.81207  -0.80478
 Alpha  occ. eigenvalues --   -0.79736  -0.78296  -0.78106  -0.77186  -0.76427
 Alpha  occ. eigenvalues --   -0.75796  -0.75559  -0.75241  -0.74742  -0.74091
 Alpha  occ. eigenvalues --   -0.73494  -0.72794  -0.72260  -0.71137  -0.69306
 Alpha  occ. eigenvalues --   -0.69043  -0.68791  -0.67025  -0.66586  -0.66069
 Alpha  occ. eigenvalues --   -0.65220  -0.65010  -0.64889  -0.64599  -0.64308
 Alpha  occ. eigenvalues --   -0.63922  -0.63730  -0.62729  -0.62631  -0.60367
 Alpha  occ. eigenvalues --   -0.60165  -0.59737  -0.59235  -0.58869  -0.58739
 Alpha  occ. eigenvalues --   -0.57608  -0.57474  -0.56460  -0.55782  -0.55474
 Alpha  occ. eigenvalues --   -0.55268  -0.54855  -0.54420  -0.54267  -0.53936
 Alpha  occ. eigenvalues --   -0.53849  -0.53626  -0.53290  -0.52904  -0.52749
 Alpha  occ. eigenvalues --   -0.52598  -0.52480  -0.52245  -0.52184  -0.52072
 Alpha  occ. eigenvalues --   -0.51751  -0.51596  -0.50861  -0.50751  -0.50484
 Alpha  occ. eigenvalues --   -0.50196  -0.50107  -0.50047  -0.49838  -0.49630
 Alpha  occ. eigenvalues --   -0.49616  -0.49312  -0.49244  -0.49101  -0.48767
 Alpha  occ. eigenvalues --   -0.48598  -0.48407  -0.48315  -0.48273  -0.47778
 Alpha  occ. eigenvalues --   -0.47500  -0.47103  -0.47032  -0.46854  -0.46798
 Alpha  occ. eigenvalues --   -0.46655  -0.46491  -0.46169  -0.46120  -0.46011
 Alpha  occ. eigenvalues --   -0.45668  -0.45517  -0.45403  -0.45250  -0.45071
 Alpha  occ. eigenvalues --   -0.44946  -0.44456  -0.44379  -0.44102  -0.44012
 Alpha  occ. eigenvalues --   -0.43765  -0.43495  -0.43328  -0.42991  -0.42833
 Alpha  occ. eigenvalues --   -0.42720  -0.42431  -0.42283  -0.42193  -0.42020
 Alpha  occ. eigenvalues --   -0.41694  -0.41539  -0.41302  -0.41102  -0.40970
 Alpha  occ. eigenvalues --   -0.40686  -0.40546  -0.40501  -0.40178  -0.39844
 Alpha  occ. eigenvalues --   -0.39656  -0.39371  -0.39249  -0.39219  -0.38976
 Alpha  occ. eigenvalues --   -0.38769  -0.38186  -0.37793  -0.37551  -0.37270
 Alpha  occ. eigenvalues --   -0.37164  -0.37128  -0.36846  -0.36664  -0.36522
 Alpha  occ. eigenvalues --   -0.35971  -0.35522  -0.35171  -0.34420  -0.34170
 Alpha  occ. eigenvalues --   -0.33520  -0.33455  -0.33219  -0.31475  -0.31230
 Alpha  occ. eigenvalues --   -0.31199  -0.30429  -0.29246  -0.29113  -0.24763
 Alpha  occ. eigenvalues --   -0.21087
 Alpha virt. eigenvalues --   -0.09036  -0.02061  -0.00072   0.01605   0.01831
 Alpha virt. eigenvalues --    0.03695   0.04832   0.05552   0.05611   0.06944
 Alpha virt. eigenvalues --    0.07672   0.08417   0.08617   0.08809   0.09105

 Mulliken charges:
               1
     1  Mg   0.846759
     2  C    0.000012
     3  C   -0.086233
     4  C   -0.100848
     5  C   -0.100464
     6  N   -0.267243
     7  C   -0.038667
     8  C   -0.029511
     9  C   -0.079131
    10  C    0.041023
    11  C    0.073740
    12  C    0.066188
    13  C    0.114184
    14  C    0.132732
    15  O   -0.297426
    16  O   -0.324363
    17  N   -0.369404
    18  C    0.189975
    19  C   -0.150247
    20  C   -0.044637
    21  C    0.134949
    22  C    0.132733
    23  C    0.027624
    24  O   -0.259737
    25  C    0.059508
    26  N   -0.368115
    27  C    0.077181
    28  C    0.010086
    29  C   -0.088822
    30  C    0.101953
    31  C    0.059463
    32  C    0.025086
    33  C   -0.007707
    34  N   -0.299569
    35  C    0.059854
    36  C   -0.195319
    37  C    0.011593
    38  C    0.089465
    39  C    0.140381
    40  C    0.073869
    41  O   -0.212675
    42  C    0.038309
    43  C    0.171857
    44  O   -0.221184
    45  O   -0.335024
    46  C    0.178669
    47  C    0.262383
    48  C   -0.150602
    49  C   -0.135378
    50  C    0.045098
    51  C    0.113705
    52  C    0.026025
    53  C    0.020225
    54  C   -0.151019
    55  C    0.070821
    56  C    0.065178
    57  C    0.037936
    58  C    0.021548
    59  C   -0.101888
    60  C    0.040590
    61  C    0.044726
    62  C    0.024304
    63  C    0.028640
    64  C   -0.158544
    65  C    0.056821
    66  C    0.071360
    67  H   -0.026131
    68  H   -0.033029
    69  H   -0.029091
    70  H    0.002693
    71  H    0.031316
    72  H    0.001820
    73  H    0.029589
    74  H    0.025972
    75  H    0.029451
    76  H    0.027963
    77  H    0.031349
    78  H    0.031224
    79  H    0.035795
    80  H   -0.003486
    81  H    0.032385
    82  H    0.052779
    83  H    0.035611
    84  H    0.048904
    85  H    0.013530
    86  H    0.024253
    87  H    0.007538
    88  H    0.009086
    89  H    0.039065
    90  H    0.028498
    91  H   -0.001884
    92  H    0.005297
    93  H    0.017955
    94  H    0.016100
    95  H    0.027099
    96  H    0.024182
    97  H    0.041506
    98  H    0.029127
    99  H    0.035779
   100  H    0.050233
   101  H    0.052750
   102  H    0.042940
   103  H    0.060355
   104  H    0.001256
   105  H    0.021931
   106  H    0.001871
   107  H    0.025059
   108  H   -0.013954
   109  H    0.023096
   110  H   -0.002128
   111  H   -0.013806
   112  H   -0.000467
   113  H   -0.015906
   114  H   -0.005007
   115  H    0.010845
   116  H    0.000431
   117  H    0.007978
   118  H   -0.011143
   119  H   -0.017338
   120  H   -0.017853
   121  H   -0.001455
   122  H   -0.000010
   123  H   -0.023751
   124  H   -0.007514
   125  H    0.003808
   126  H    0.007300
   127  H    0.001548
   128  H   -0.014269
   129  H   -0.020381
   130  H   -0.006307
   131  H   -0.012169
   132  H    0.000050
   133  H   -0.011384
   134  H    0.000308
   135  H    0.012459
   136  H   -0.006124
   137  H   -0.002690
   138  H    0.004610
   139  H    0.004341
   140  H    0.015444
 Sum of Mulliken charges =  -0.00000

 Dipole moment (field-independent basis, Debye):
    X=             -0.8679    Y=              1.2523    Z=              2.2981  Tot=              2.7574
 Quadrupole moment (field-independent basis, Debye-Ang):
   XX=           -396.8562   YY=           -415.3789   ZZ=           -400.5391
   XY=             43.6341   XZ=              6.7408   YZ=             28.0671

 Normal termination of Gaussian 16 at Sat Apr 30 20:41:03 2022.
