 Gaussian 16, Revision A.03,
 Gaussian 16:  ES64L-G16RevA.03 25-Dec-2016

 ---------------------------------
 #p PBE1PBE/Def2SVP td=(nstates=5)
 ---------------------------------

 -----------------------------------------------------
 step_901_chromophore_17 TDDFT with PBE1PBE functional
 -----------------------------------------------------
 Symbolic Z-matrix:
 Charge =  0 Multiplicity = 1

                         Standard orientation:
 ---------------------------------------------------------------------
 Center     Atomic      Atomic             Coordinates (Angstroms)
 Number     Number       Type             X           Y           Z
 ---------------------------------------------------------------------
      1         12           0        4.081300    1.065794   -0.564841
      2          6           0        3.658460   -2.413439   -0.732841
      3          6           0        1.150527    1.393743   -2.453609
      4          6           0        4.065885    4.524185    0.037300
      5          6           0        6.511123    0.561416    1.817110
      6          7           0        2.529996   -0.314871   -1.296974
      7          6           0        2.652666   -1.661611   -1.317913
      8          6           0        1.437342   -2.324218   -1.887676
      9          6           0        0.651737   -1.080640   -2.640343
     10          6           0        1.530994    0.047766   -2.152210
     11          6           0        0.391615   -1.155846   -4.155143
     12          6           0        0.618471   -3.076951   -0.760331
     13          6           0        0.099798   -4.405582   -1.197745
     14          6           0       -1.383986   -4.384442   -1.261451
     15          8           0       -2.064087   -4.126707   -2.318571
     16          8           0       -1.940189   -4.780339   -0.079855
     17          7           0        2.858366    2.746878   -1.208848
     18          6           0        1.768236    2.598748   -2.047044
     19          6           0        1.333840    3.926810   -2.439501
     20          6           0        2.178983    4.884383   -1.806154
     21          6           0        3.071409    4.093679   -0.892305
     22          6           0        0.175661    4.253475   -3.303012
     23          6           0        2.121280    6.468520   -1.937869
     24          8           0        1.290232    6.986296   -2.774619
     25          6           0        2.988741    7.327042   -1.097042
     26          7           0        4.947755    2.322915    0.805062
     27          6           0        4.838850    3.719772    0.866148
     28          6           0        5.878503    4.302481    1.838253
     29          6           0        6.777102    3.099006    2.196825
     30          6           0        5.986721    1.866969    1.642545
     31          6           0        6.830585    5.534307    1.426159
     32          6           0        7.224994    2.843274    3.722208
     33          6           0        8.705396    3.205378    3.979091
     34          7           0        5.061202   -0.530518    0.324726
     35          6           0        6.000605   -0.630815    1.237719
     36          6           0        6.387255   -1.991233    1.485134
     37          6           0        5.522505   -2.666702    0.692621
     38          6           0        4.677295   -1.788234    0.051105
     39          6           0        7.498154   -2.488522    2.386800
     40          6           0        5.229108   -4.043586    0.310663
     41          8           0        5.811322   -5.139770    0.595480
     42          6           0        4.015928   -3.859368   -0.593821
     43          6           0        4.373383   -4.511740   -1.883635
     44          8           0        5.275312   -4.090106   -2.584901
     45          8           0        3.713427   -5.666753   -2.111759
     46          6           0        3.784736   -6.337167   -3.487259
     47          6           0       -3.406747   -5.042087   -0.147416
     48          6           0       -4.015078   -4.021526    0.906171
     49          6           0       -5.326692   -3.645255    0.991543
     50          6           0       -6.394666   -4.355954    0.034190
     51          6           0       -5.767174   -2.505659    1.857326
     52          6           0       -5.716915   -2.736649    3.318953
     53          6           0       -4.744697   -1.836466    4.099854
     54          6           0       -5.503490   -0.671548    4.816374
     55          6           0       -4.774504   -0.217501    6.067404
     56          6           0       -5.550957    0.505554    3.828537
     57          6           0       -7.015522    0.910843    3.562289
     58          6           0       -7.611568    0.421986    2.163448
     59          6           0       -8.353188    1.405349    1.326087
     60          6           0       -9.816987    1.344799    1.845843
     61          6           0       -8.315919    1.108062   -0.154057
     62          6           0       -8.700708    2.262124   -1.070239
     63          6           0       -9.915173    1.967165   -2.015139
     64          6           0      -10.724545    3.208902   -2.457495
     65          6           0      -11.719264    3.486932   -1.364664
     66          6           0      -11.386741    3.049511   -3.805302
     67          1           0        0.281990    1.420435   -3.114799
     68          1           0        4.147495    5.588928    0.264571
     69          1           0        7.389399    0.396090    2.445019
     70          1           0        1.770178   -3.098206   -2.580008
     71          1           0       -0.366476   -0.902017   -2.295235
     72          1           0        1.101922   -0.368561   -4.407909
     73          1           0       -0.547320   -0.803786   -4.581635
     74          1           0        0.724085   -2.114486   -4.553933
     75          1           0       -0.166949   -2.369547   -0.495327
     76          1           0        1.220191   -3.263711    0.129430
     77          1           0        0.368590   -5.241542   -0.552148
     78          1           0        0.362554   -4.733464   -2.203133
     79          1           0       -0.446734    4.956343   -2.749243
     80          1           0       -0.448368    3.448453   -3.691488
     81          1           0        0.484792    4.754627   -4.220390
     82          1           0        2.638759    7.214821   -0.071379
     83          1           0        2.850158    8.325949   -1.509145
     84          1           0        4.049170    7.080340   -1.135515
     85          1           0        5.335912    4.563438    2.746099
     86          1           0        7.652745    3.089769    1.546982
     87          1           0        6.583211    6.436363    1.985466
     88          1           0        6.441091    5.765246    0.435239
     89          1           0        7.913771    5.420184    1.467025
     90          1           0        7.055563    1.874361    4.189892
     91          1           0        6.655062    3.603759    4.256457
     92          1           0        9.187837    2.412433    4.551271
     93          1           0        8.744645    4.078726    4.629847
     94          1           0        9.273673    3.279951    3.052113
     95          1           0        7.031731   -2.483725    3.371546
     96          1           0        8.335803   -1.791005    2.357283
     97          1           0        7.773888   -3.514542    2.144027
     98          1           0        3.246972   -4.433257   -0.075000
     99          1           0        3.845353   -5.611606   -4.298129
    100          1           0        2.930324   -6.958517   -3.753807
    101          1           0        4.724708   -6.885096   -3.560067
    102          1           0       -3.825231   -5.963917    0.258161
    103          1           0       -3.888427   -4.926509   -1.118051
    104          1           0       -3.327633   -3.535659    1.598522
    105          1           0       -7.242446   -4.785357    0.567478
    106          1           0       -6.013084   -5.153221   -0.604449
    107          1           0       -6.791074   -3.597905   -0.641840
    108          1           0       -6.795187   -2.253884    1.596247
    109          1           0       -5.237554   -1.571338    1.669848
    110          1           0       -5.351715   -3.697635    3.679974
    111          1           0       -6.695564   -2.678566    3.794886
    112          1           0       -4.048384   -1.397132    3.385864
    113          1           0       -4.280408   -2.428095    4.890016
    114          1           0       -6.532064   -0.966662    5.025227
    115          1           0       -3.790245    0.161729    5.793053
    116          1           0       -4.692121   -1.114114    6.681332
    117          1           0       -5.315919    0.520067    6.659786
    118          1           0       -5.026668    0.334310    2.888556
    119          1           0       -4.949930    1.277217    4.309756
    120          1           0       -7.035033    2.000355    3.545801
    121          1           0       -7.706794    0.683616    4.373383
    122          1           0       -8.277400   -0.432337    2.283767
    123          1           0       -6.771064    0.057270    1.571242
    124          1           0       -7.971545    2.404534    1.536163
    125          1           0      -10.462540    0.850206    1.119834
    126          1           0      -10.236007    2.321253    2.086059
    127          1           0       -9.903374    0.762019    2.762795
    128          1           0       -8.844244    0.213000   -0.483200
    129          1           0       -7.301402    0.810783   -0.420293
    130          1           0       -7.814131    2.546472   -1.636117
    131          1           0       -8.891729    3.160129   -0.482702
    132          1           0      -10.419936    1.186833   -1.445713
    133          1           0       -9.515606    1.537411   -2.932869
    134          1           0      -10.001140    4.024270   -2.475199
    135          1           0      -11.912608    2.625829   -0.725090
    136          1           0      -12.598199    3.906492   -1.854839
    137          1           0      -11.455523    4.291734   -0.677937
    138          1           0      -12.475439    3.078774   -3.838454
    139          1           0      -11.134006    2.057941   -4.181778
    140          1           0      -11.019503    3.914974   -4.357976
 ---------------------------------------------------------------------

 SCF Done:  E(RPBE1PBE) =  -3005.28844098     A.U. after   15 cycles

 Excitation energies and oscillator strengths:

 Excited State   1:      Singlet-A      1.7883 eV  693.30 nm  f=0.3653  <S**2>=0.000
     245 -> 248        0.15497
     246 -> 247        0.69897
     246 <- 247       -0.12053
 This state for optimization and/or second-order correction.
 Total Energy, E(TD-HF/TD-DFT) =  -3005.22272155
 Copying the excited state density for this state as the 1-particle RhoCI density.

 Excited State   2:      Singlet-A      2.2681 eV  546.64 nm  f=0.0886  <S**2>=0.000
     245 -> 247        0.63346
     246 -> 248       -0.29076

 Excited State   3:      Singlet-A      2.7884 eV  444.64 nm  f=0.0056  <S**2>=0.000
     243 -> 247        0.69380

 Excited State   4:      Singlet-A      3.0369 eV  408.26 nm  f=0.0001  <S**2>=0.000
     240 -> 247       -0.10000
     241 -> 247        0.65770
     241 -> 249       -0.18666
     241 -> 250       -0.11187

 Excited State   5:      Singlet-A      3.0625 eV  404.85 nm  f=0.0005  <S**2>=0.000
     242 -> 247        0.65499
     242 -> 248       -0.11422
     242 -> 249        0.16508
     242 -> 250       -0.12180

 The electronic state is 1-A.
 Alpha  occ. eigenvalues --  -46.92248 -19.27141 -19.26194 -19.19784 -19.19669
 Alpha  occ. eigenvalues --  -19.19440 -19.19288 -14.42590 -14.41961 -14.39301
 Alpha  occ. eigenvalues --  -14.38881 -10.36851 -10.36355 -10.33284 -10.32518
 Alpha  occ. eigenvalues --  -10.30304 -10.30219 -10.29549 -10.29278 -10.29245
 Alpha  occ. eigenvalues --  -10.29021 -10.28958 -10.27862 -10.26785 -10.26601
 Alpha  occ. eigenvalues --  -10.26474 -10.26460 -10.26370 -10.26240 -10.26172
 Alpha  occ. eigenvalues --  -10.25879 -10.25784 -10.25609 -10.25381 -10.25353
 Alpha  occ. eigenvalues --  -10.25127 -10.24933 -10.24872 -10.24802 -10.24620
 Alpha  occ. eigenvalues --  -10.24533 -10.24513 -10.24164 -10.23766 -10.23670
 Alpha  occ. eigenvalues --  -10.23524 -10.23447 -10.22988 -10.22752 -10.22737
 Alpha  occ. eigenvalues --  -10.22699 -10.22632 -10.22513 -10.22488 -10.22086
 Alpha  occ. eigenvalues --  -10.22046 -10.22004 -10.21987 -10.21974 -10.21933
 Alpha  occ. eigenvalues --  -10.21858 -10.21858 -10.21717 -10.21467 -10.21436
 Alpha  occ. eigenvalues --  -10.20969  -3.14390  -1.87205  -1.86756  -1.86629
 Alpha  occ. eigenvalues --   -1.10875  -1.10759  -1.02535  -1.01910  -1.01341
 Alpha  occ. eigenvalues --   -1.00811  -1.00246  -0.99208  -0.96672  -0.95705
 Alpha  occ. eigenvalues --   -0.88499  -0.85008  -0.84709  -0.84175  -0.83261
 Alpha  occ. eigenvalues --   -0.82802  -0.82481  -0.82263  -0.82189  -0.81355
 Alpha  occ. eigenvalues --   -0.80349  -0.79946  -0.78860  -0.78225  -0.77905
 Alpha  occ. eigenvalues --   -0.77150  -0.76886  -0.75888  -0.75545  -0.74706
 Alpha  occ. eigenvalues --   -0.73930  -0.72597  -0.72452  -0.71493  -0.70724
 Alpha  occ. eigenvalues --   -0.69940  -0.69641  -0.69580  -0.68847  -0.68263
 Alpha  occ. eigenvalues --   -0.67893  -0.67170  -0.66700  -0.65430  -0.63824
 Alpha  occ. eigenvalues --   -0.63218  -0.63192  -0.61392  -0.60803  -0.60600
 Alpha  occ. eigenvalues --   -0.59663  -0.59575  -0.59245  -0.59058  -0.58696
 Alpha  occ. eigenvalues --   -0.58072  -0.57844  -0.57371  -0.56819  -0.54985
 Alpha  occ. eigenvalues --   -0.54721  -0.54101  -0.53801  -0.53365  -0.53297
 Alpha  occ. eigenvalues --   -0.52160  -0.51958  -0.51095  -0.50367  -0.49998
 Alpha  occ. eigenvalues --   -0.49815  -0.49447  -0.48860  -0.48796  -0.48516
 Alpha  occ. eigenvalues --   -0.48223  -0.48166  -0.47886  -0.47430  -0.47241
 Alpha  occ. eigenvalues --   -0.47124  -0.46984  -0.46815  -0.46641  -0.46434
 Alpha  occ. eigenvalues --   -0.46402  -0.46129  -0.45495  -0.45252  -0.45102
 Alpha  occ. eigenvalues --   -0.44816  -0.44784  -0.44597  -0.44396  -0.44248
 Alpha  occ. eigenvalues --   -0.44163  -0.43896  -0.43837  -0.43694  -0.43438
 Alpha  occ. eigenvalues --   -0.43236  -0.43028  -0.42942  -0.42922  -0.42403
 Alpha  occ. eigenvalues --   -0.42209  -0.41884  -0.41647  -0.41577  -0.41522
 Alpha  occ. eigenvalues --   -0.41283  -0.41157  -0.40952  -0.40760  -0.40652
 Alpha  occ. eigenvalues --   -0.40329  -0.40192  -0.40115  -0.39966  -0.39811
 Alpha  occ. eigenvalues --   -0.39592  -0.39185  -0.39098  -0.38871  -0.38753
 Alpha  occ. eigenvalues --   -0.38504  -0.38243  -0.38145  -0.37809  -0.37677
 Alpha  occ. eigenvalues --   -0.37478  -0.37211  -0.37097  -0.36971  -0.36853
 Alpha  occ. eigenvalues --   -0.36513  -0.36299  -0.36113  -0.35887  -0.35802
 Alpha  occ. eigenvalues --   -0.35582  -0.35361  -0.35345  -0.35096  -0.34724
 Alpha  occ. eigenvalues --   -0.34583  -0.34347  -0.33990  -0.33939  -0.33743
 Alpha  occ. eigenvalues --   -0.33716  -0.32943  -0.32573  -0.32547  -0.32163
 Alpha  occ. eigenvalues --   -0.32077  -0.31936  -0.31724  -0.31721  -0.31570
 Alpha  occ. eigenvalues --   -0.30981  -0.30370  -0.30057  -0.29622  -0.29143
 Alpha  occ. eigenvalues --   -0.28668  -0.28371  -0.28287  -0.27116  -0.26165
 Alpha  occ. eigenvalues --   -0.26101  -0.25876  -0.24714  -0.24357  -0.21641
 Alpha  occ. eigenvalues --   -0.18773
 Alpha virt. eigenvalues --   -0.11516  -0.05594  -0.04318  -0.02791  -0.01108
 Alpha virt. eigenvalues --   -0.00676   0.00518   0.00937   0.01108   0.02652
 Alpha virt. eigenvalues --    0.03741   0.04653   0.05359   0.05525   0.05657

 Mulliken charges:
               1
     1  Mg   0.990204
     2  C   -0.009549
     3  C   -0.069128
     4  C   -0.105298
     5  C   -0.085815
     6  N   -0.376525
     7  C    0.024541
     8  C   -0.088159
     9  C   -0.145418
    10  C    0.068073
    11  C    0.013155
    12  C    0.014640
    13  C    0.037500
    14  C    0.199606
    15  O   -0.327989
    16  O   -0.352486
    17  N   -0.477887
    18  C    0.211878
    19  C   -0.188775
    20  C   -0.079888
    21  C    0.164669
    22  C    0.076805
    23  C    0.071106
    24  O   -0.292276
    25  C   -0.016186
    26  N   -0.471002
    27  C    0.114926
    28  C   -0.067035
    29  C   -0.159280
    30  C    0.140068
    31  C   -0.003094
    32  C   -0.039947
    33  C   -0.076683
    34  N   -0.433270
    35  C    0.080852
    36  C   -0.204255
    37  C   -0.040852
    38  C    0.147276
    39  C    0.084574
    40  C    0.165042
    41  O   -0.258598
    42  C   -0.069652
    43  C    0.269346
    44  O   -0.255111
    45  O   -0.370042
    46  C    0.122985
    47  C    0.216716
    48  C   -0.153135
    49  C   -0.178147
    50  C   -0.018981
    51  C    0.038198
    52  C   -0.025425
    53  C   -0.041310
    54  C   -0.235540
    55  C    0.005271
    56  C    0.017256
    57  C   -0.023736
    58  C   -0.040096
    59  C   -0.190239
    60  C   -0.013526
    61  C   -0.011669
    62  C   -0.027877
    63  C   -0.032897
    64  C   -0.254521
    65  C    0.000058
    66  C    0.010665
    67  H    0.005213
    68  H    0.000300
    69  H    0.004269
    70  H    0.043244
    71  H    0.067319
    72  H    0.032086
    73  H    0.055576
    74  H    0.053644
    75  H    0.062049
    76  H    0.061345
    77  H    0.062552
    78  H    0.062265
    79  H    0.062807
    80  H    0.023085
    81  H    0.059515
    82  H    0.079326
    83  H    0.063009
    84  H    0.074430
    85  H    0.051626
    86  H    0.062959
    87  H    0.035683
    88  H    0.038391
    89  H    0.064469
    90  H    0.057826
    91  H    0.033279
    92  H    0.033340
    93  H    0.045536
    94  H    0.042472
    95  H    0.056918
    96  H    0.050935
    97  H    0.069414
    98  H    0.067976
    99  H    0.056462
   100  H    0.070778
   101  H    0.074164
   102  H    0.070443
   103  H    0.085720
   104  H    0.032149
   105  H    0.049839
   106  H    0.027813
   107  H    0.052648
   108  H    0.022106
   109  H    0.054192
   110  H    0.030307
   111  H    0.018115
   112  H    0.032584
   113  H    0.016882
   114  H    0.031956
   115  H    0.038711
   116  H    0.029440
   117  H    0.037148
   118  H    0.019217
   119  H    0.016071
   120  H    0.015600
   121  H    0.029415
   122  H    0.032723
   123  H    0.012207
   124  H    0.029494
   125  H    0.031153
   126  H    0.034409
   127  H    0.029004
   128  H    0.017355
   129  H    0.013575
   130  H    0.026671
   131  H    0.020324
   132  H    0.032302
   133  H    0.022811
   134  H    0.038106
   135  H    0.039756
   136  H    0.021800
   137  H    0.024675
   138  H    0.031227
   139  H    0.031119
   140  H    0.042561
 Sum of Mulliken charges =  -0.00000

 Dipole moment (field-independent basis, Debye):
    X=             -0.6466    Y=              1.1277    Z=              2.5058  Tot=              2.8229
 Quadrupole moment (field-independent basis, Debye-Ang):
   XX=           -391.0824   YY=           -413.1067   ZZ=           -397.1729
   XY=             43.6683   XZ=              8.6603   YZ=             28.7739

 Normal termination of Gaussian 16 at Sat Apr 30 21:01:52 2022.
