 Gaussian 16, Revision A.03,
 Gaussian 16:  ES64L-G16RevA.03 25-Dec-2016

 --------------------------------
 #p wB97XD/Def2SVP td=(nstates=5)
 --------------------------------

 ----------------------------------------------------
 step_901_chromophore_17 TDDFT with wB97XD functional
 ----------------------------------------------------
 Symbolic Z-matrix:
 Charge =  0 Multiplicity = 1

                         Standard orientation:
 ---------------------------------------------------------------------
 Center     Atomic      Atomic             Coordinates (Angstroms)
 Number     Number       Type             X           Y           Z
 ---------------------------------------------------------------------
      1         12           0        4.081300    1.065794   -0.564841
      2          6           0        3.658460   -2.413439   -0.732841
      3          6           0        1.150527    1.393743   -2.453609
      4          6           0        4.065885    4.524185    0.037300
      5          6           0        6.511123    0.561416    1.817110
      6          7           0        2.529996   -0.314871   -1.296974
      7          6           0        2.652666   -1.661611   -1.317913
      8          6           0        1.437342   -2.324218   -1.887676
      9          6           0        0.651737   -1.080640   -2.640343
     10          6           0        1.530994    0.047766   -2.152210
     11          6           0        0.391615   -1.155846   -4.155143
     12          6           0        0.618471   -3.076951   -0.760331
     13          6           0        0.099798   -4.405582   -1.197745
     14          6           0       -1.383986   -4.384442   -1.261451
     15          8           0       -2.064087   -4.126707   -2.318571
     16          8           0       -1.940189   -4.780339   -0.079855
     17          7           0        2.858366    2.746878   -1.208848
     18          6           0        1.768236    2.598748   -2.047044
     19          6           0        1.333840    3.926810   -2.439501
     20          6           0        2.178983    4.884383   -1.806154
     21          6           0        3.071409    4.093679   -0.892305
     22          6           0        0.175661    4.253475   -3.303012
     23          6           0        2.121280    6.468520   -1.937869
     24          8           0        1.290232    6.986296   -2.774619
     25          6           0        2.988741    7.327042   -1.097042
     26          7           0        4.947755    2.322915    0.805062
     27          6           0        4.838850    3.719772    0.866148
     28          6           0        5.878503    4.302481    1.838253
     29          6           0        6.777102    3.099006    2.196825
     30          6           0        5.986721    1.866969    1.642545
     31          6           0        6.830585    5.534307    1.426159
     32          6           0        7.224994    2.843274    3.722208
     33          6           0        8.705396    3.205378    3.979091
     34          7           0        5.061202   -0.530518    0.324726
     35          6           0        6.000605   -0.630815    1.237719
     36          6           0        6.387255   -1.991233    1.485134
     37          6           0        5.522505   -2.666702    0.692621
     38          6           0        4.677295   -1.788234    0.051105
     39          6           0        7.498154   -2.488522    2.386800
     40          6           0        5.229108   -4.043586    0.310663
     41          8           0        5.811322   -5.139770    0.595480
     42          6           0        4.015928   -3.859368   -0.593821
     43          6           0        4.373383   -4.511740   -1.883635
     44          8           0        5.275312   -4.090106   -2.584901
     45          8           0        3.713427   -5.666753   -2.111759
     46          6           0        3.784736   -6.337167   -3.487259
     47          6           0       -3.406747   -5.042087   -0.147416
     48          6           0       -4.015078   -4.021526    0.906171
     49          6           0       -5.326692   -3.645255    0.991543
     50          6           0       -6.394666   -4.355954    0.034190
     51          6           0       -5.767174   -2.505659    1.857326
     52          6           0       -5.716915   -2.736649    3.318953
     53          6           0       -4.744697   -1.836466    4.099854
     54          6           0       -5.503490   -0.671548    4.816374
     55          6           0       -4.774504   -0.217501    6.067404
     56          6           0       -5.550957    0.505554    3.828537
     57          6           0       -7.015522    0.910843    3.562289
     58          6           0       -7.611568    0.421986    2.163448
     59          6           0       -8.353188    1.405349    1.326087
     60          6           0       -9.816987    1.344799    1.845843
     61          6           0       -8.315919    1.108062   -0.154057
     62          6           0       -8.700708    2.262124   -1.070239
     63          6           0       -9.915173    1.967165   -2.015139
     64          6           0      -10.724545    3.208902   -2.457495
     65          6           0      -11.719264    3.486932   -1.364664
     66          6           0      -11.386741    3.049511   -3.805302
     67          1           0        0.281990    1.420435   -3.114799
     68          1           0        4.147495    5.588928    0.264571
     69          1           0        7.389399    0.396090    2.445019
     70          1           0        1.770178   -3.098206   -2.580008
     71          1           0       -0.366476   -0.902017   -2.295235
     72          1           0        1.101922   -0.368561   -4.407909
     73          1           0       -0.547320   -0.803786   -4.581635
     74          1           0        0.724085   -2.114486   -4.553933
     75          1           0       -0.166949   -2.369547   -0.495327
     76          1           0        1.220191   -3.263711    0.129430
     77          1           0        0.368590   -5.241542   -0.552148
     78          1           0        0.362554   -4.733464   -2.203133
     79          1           0       -0.446734    4.956343   -2.749243
     80          1           0       -0.448368    3.448453   -3.691488
     81          1           0        0.484792    4.754627   -4.220390
     82          1           0        2.638759    7.214821   -0.071379
     83          1           0        2.850158    8.325949   -1.509145
     84          1           0        4.049170    7.080340   -1.135515
     85          1           0        5.335912    4.563438    2.746099
     86          1           0        7.652745    3.089769    1.546982
     87          1           0        6.583211    6.436363    1.985466
     88          1           0        6.441091    5.765246    0.435239
     89          1           0        7.913771    5.420184    1.467025
     90          1           0        7.055563    1.874361    4.189892
     91          1           0        6.655062    3.603759    4.256457
     92          1           0        9.187837    2.412433    4.551271
     93          1           0        8.744645    4.078726    4.629847
     94          1           0        9.273673    3.279951    3.052113
     95          1           0        7.031731   -2.483725    3.371546
     96          1           0        8.335803   -1.791005    2.357283
     97          1           0        7.773888   -3.514542    2.144027
     98          1           0        3.246972   -4.433257   -0.075000
     99          1           0        3.845353   -5.611606   -4.298129
    100          1           0        2.930324   -6.958517   -3.753807
    101          1           0        4.724708   -6.885096   -3.560067
    102          1           0       -3.825231   -5.963917    0.258161
    103          1           0       -3.888427   -4.926509   -1.118051
    104          1           0       -3.327633   -3.535659    1.598522
    105          1           0       -7.242446   -4.785357    0.567478
    106          1           0       -6.013084   -5.153221   -0.604449
    107          1           0       -6.791074   -3.597905   -0.641840
    108          1           0       -6.795187   -2.253884    1.596247
    109          1           0       -5.237554   -1.571338    1.669848
    110          1           0       -5.351715   -3.697635    3.679974
    111          1           0       -6.695564   -2.678566    3.794886
    112          1           0       -4.048384   -1.397132    3.385864
    113          1           0       -4.280408   -2.428095    4.890016
    114          1           0       -6.532064   -0.966662    5.025227
    115          1           0       -3.790245    0.161729    5.793053
    116          1           0       -4.692121   -1.114114    6.681332
    117          1           0       -5.315919    0.520067    6.659786
    118          1           0       -5.026668    0.334310    2.888556
    119          1           0       -4.949930    1.277217    4.309756
    120          1           0       -7.035033    2.000355    3.545801
    121          1           0       -7.706794    0.683616    4.373383
    122          1           0       -8.277400   -0.432337    2.283767
    123          1           0       -6.771064    0.057270    1.571242
    124          1           0       -7.971545    2.404534    1.536163
    125          1           0      -10.462540    0.850206    1.119834
    126          1           0      -10.236007    2.321253    2.086059
    127          1           0       -9.903374    0.762019    2.762795
    128          1           0       -8.844244    0.213000   -0.483200
    129          1           0       -7.301402    0.810783   -0.420293
    130          1           0       -7.814131    2.546472   -1.636117
    131          1           0       -8.891729    3.160129   -0.482702
    132          1           0      -10.419936    1.186833   -1.445713
    133          1           0       -9.515606    1.537411   -2.932869
    134          1           0      -10.001140    4.024270   -2.475199
    135          1           0      -11.912608    2.625829   -0.725090
    136          1           0      -12.598199    3.906492   -1.854839
    137          1           0      -11.455523    4.291734   -0.677937
    138          1           0      -12.475439    3.078774   -3.838454
    139          1           0      -11.134006    2.057941   -4.181778
    140          1           0      -11.019503    3.914974   -4.357976
 ---------------------------------------------------------------------

 SCF Done:  E(RwB97XD) =  -3007.79863946     A.U. after   18 cycles

 Excitation energies and oscillator strengths:

 Excited State   1:      Singlet-A      1.5789 eV  785.23 nm  f=0.3781  <S**2>=0.000
     245 -> 248        0.16798
     246 -> 247        0.68823
     245 <- 248        0.11488
 This state for optimization and/or second-order correction.
 Total Energy, E(TD-HF/TD-DFT) =  -3007.74061433
 Copying the excited state density for this state as the 1-particle RhoCI density.

 Excited State   2:      Singlet-A      2.2092 eV  561.22 nm  f=0.0860  <S**2>=0.000
     245 -> 247        0.62010
     246 -> 248       -0.31991

 Excited State   3:      Singlet-A      3.1596 eV  392.41 nm  f=0.0014  <S**2>=0.000
     243 -> 247        0.67429
     246 -> 248        0.13212

 Excited State   4:      Singlet-A      3.4938 eV  354.87 nm  f=0.4565  <S**2>=0.000
     241 -> 247       -0.10963
     242 -> 247       -0.35404
     245 -> 247        0.25289
     246 -> 248        0.50917

 Excited State   5:      Singlet-A      3.5417 eV  350.07 nm  f=0.0597  <S**2>=0.000
     240 -> 247        0.42221
     240 -> 248       -0.16575
     240 -> 249       -0.33858
     240 -> 250       -0.26004
     241 -> 247       -0.14914
     241 -> 249        0.11231
     246 -> 248       -0.16555

 The electronic state is 1-A.
 Alpha  occ. eigenvalues --  -46.95189 -19.31694 -19.30766 -19.24431 -19.24397
 Alpha  occ. eigenvalues --  -19.24209 -19.24146 -14.47801 -14.46916 -14.44332
 Alpha  occ. eigenvalues --  -14.43739 -10.43620 -10.43175 -10.40218 -10.39322
 Alpha  occ. eigenvalues --  -10.36850 -10.36702 -10.35992 -10.35669 -10.35614
 Alpha  occ. eigenvalues --  -10.35375 -10.35126 -10.34409 -10.32874 -10.32824
 Alpha  occ. eigenvalues --  -10.32784 -10.32737 -10.32695 -10.32539 -10.32488
 Alpha  occ. eigenvalues --  -10.32329 -10.32002 -10.31963 -10.31927 -10.31857
 Alpha  occ. eigenvalues --  -10.31511 -10.31343 -10.31214 -10.30991 -10.30906
 Alpha  occ. eigenvalues --  -10.30836 -10.30812 -10.30771 -10.30113 -10.30063
 Alpha  occ. eigenvalues --  -10.29952 -10.29820 -10.29325 -10.29175 -10.29135
 Alpha  occ. eigenvalues --  -10.29072 -10.29044 -10.28924 -10.28750 -10.28379
 Alpha  occ. eigenvalues --  -10.28373 -10.28370 -10.28323 -10.28320 -10.28268
 Alpha  occ. eigenvalues --  -10.28230 -10.28229 -10.28151 -10.27905 -10.27865
 Alpha  occ. eigenvalues --  -10.27412  -3.21195  -1.94758  -1.94309  -1.94180
 Alpha  occ. eigenvalues --   -1.18280  -1.18146  -1.09939  -1.09287  -1.08978
 Alpha  occ. eigenvalues --   -1.08017  -1.07611  -1.06629  -1.04140  -1.03161
 Alpha  occ. eigenvalues --   -0.96061  -0.92674  -0.92344  -0.91836  -0.90919
 Alpha  occ. eigenvalues --   -0.90463  -0.90038  -0.89851  -0.89836  -0.88838
 Alpha  occ. eigenvalues --   -0.87999  -0.87727  -0.86531  -0.85870  -0.85542
 Alpha  occ. eigenvalues --   -0.84839  -0.84617  -0.83523  -0.83161  -0.82344
 Alpha  occ. eigenvalues --   -0.81582  -0.80203  -0.80041  -0.79153  -0.78352
 Alpha  occ. eigenvalues --   -0.77623  -0.77343  -0.77201  -0.76540  -0.75924
 Alpha  occ. eigenvalues --   -0.75450  -0.74746  -0.74243  -0.73054  -0.71314
 Alpha  occ. eigenvalues --   -0.70882  -0.70703  -0.68998  -0.68442  -0.68064
 Alpha  occ. eigenvalues --   -0.67190  -0.67002  -0.66789  -0.66590  -0.66239
 Alpha  occ. eigenvalues --   -0.65748  -0.65525  -0.64734  -0.64460  -0.62374
 Alpha  occ. eigenvalues --   -0.62123  -0.61635  -0.61212  -0.60850  -0.60747
 Alpha  occ. eigenvalues --   -0.59595  -0.59399  -0.58430  -0.57784  -0.57422
 Alpha  occ. eigenvalues --   -0.57194  -0.56828  -0.56267  -0.56219  -0.55850
 Alpha  occ. eigenvalues --   -0.55694  -0.55542  -0.55222  -0.54854  -0.54627
 Alpha  occ. eigenvalues --   -0.54473  -0.54378  -0.54175  -0.54115  -0.53981
 Alpha  occ. eigenvalues --   -0.53679  -0.53491  -0.52770  -0.52619  -0.52386
 Alpha  occ. eigenvalues --   -0.52096  -0.52010  -0.51934  -0.51725  -0.51592
 Alpha  occ. eigenvalues --   -0.51532  -0.51233  -0.51182  -0.51041  -0.50708
 Alpha  occ. eigenvalues --   -0.50504  -0.50348  -0.50220  -0.50191  -0.49679
 Alpha  occ. eigenvalues --   -0.49413  -0.49026  -0.48911  -0.48809  -0.48703
 Alpha  occ. eigenvalues --   -0.48509  -0.48389  -0.48094  -0.48023  -0.47931
 Alpha  occ. eigenvalues --   -0.47630  -0.47425  -0.47312  -0.47147  -0.46979
 Alpha  occ. eigenvalues --   -0.46801  -0.46358  -0.46273  -0.46029  -0.45909
 Alpha  occ. eigenvalues --   -0.45684  -0.45372  -0.45258  -0.44930  -0.44738
 Alpha  occ. eigenvalues --   -0.44617  -0.44353  -0.44201  -0.44108  -0.43926
 Alpha  occ. eigenvalues --   -0.43612  -0.43437  -0.43256  -0.42969  -0.42870
 Alpha  occ. eigenvalues --   -0.42703  -0.42515  -0.42382  -0.42102  -0.41721
 Alpha  occ. eigenvalues --   -0.41560  -0.41270  -0.41091  -0.41054  -0.40828
 Alpha  occ. eigenvalues --   -0.40722  -0.40011  -0.39627  -0.39480  -0.39221
 Alpha  occ. eigenvalues --   -0.39104  -0.38953  -0.38702  -0.38679  -0.38529
 Alpha  occ. eigenvalues --   -0.37984  -0.37350  -0.36996  -0.36436  -0.36125
 Alpha  occ. eigenvalues --   -0.35461  -0.35395  -0.35297  -0.33677  -0.33180
 Alpha  occ. eigenvalues --   -0.33168  -0.32581  -0.31452  -0.31142  -0.26696
 Alpha  occ. eigenvalues --   -0.22885
 Alpha virt. eigenvalues --   -0.07386  -0.00147   0.01977   0.03716   0.05021
 Alpha virt. eigenvalues --    0.05994   0.07227   0.07772   0.07786   0.09365
 Alpha virt. eigenvalues --    0.10409   0.11168   0.12029   0.12240   0.12444

 Mulliken charges:
               1
     1  Mg   0.981706
     2  C   -0.012183
     3  C   -0.089853
     4  C   -0.116074
     5  C   -0.105485
     6  N   -0.338730
     7  C   -0.001282
     8  C   -0.065882
     9  C   -0.126662
    10  C    0.060874
    11  C    0.025255
    12  C    0.024080
    13  C    0.053685
    14  C    0.188997
    15  O   -0.326110
    16  O   -0.352886
    17  N   -0.447315
    18  C    0.205645
    19  C   -0.171837
    20  C   -0.079984
    21  C    0.161545
    22  C    0.084172
    23  C    0.069212
    24  O   -0.286847
    25  C   -0.003511
    26  N   -0.442674
    27  C    0.105140
    28  C   -0.045082
    29  C   -0.131524
    30  C    0.129097
    31  C    0.013243
    32  C   -0.024029
    33  C   -0.061142
    34  N   -0.392013
    35  C    0.071724
    36  C   -0.203282
    37  C   -0.036348
    38  C    0.123827
    39  C    0.095775
    40  C    0.146476
    41  O   -0.247598
    42  C   -0.029894
    43  C    0.242544
    44  O   -0.250238
    45  O   -0.368038
    46  C    0.138911
    47  C    0.233328
    48  C   -0.165757
    49  C   -0.165305
    50  C   -0.003167
    51  C    0.068361
    52  C   -0.016129
    53  C   -0.018268
    54  C   -0.206449
    55  C    0.019831
    56  C    0.029195
    57  C   -0.007150
    58  C   -0.010300
    59  C   -0.160381
    60  C   -0.003758
    61  C    0.004879
    62  C   -0.018125
    63  C   -0.009772
    64  C   -0.223458
    65  C    0.010770
    66  C    0.021279
    67  H   -0.001849
    68  H   -0.011928
    69  H   -0.004293
    70  H    0.026472
    71  H    0.058063
    72  H    0.021701
    73  H    0.052155
    74  H    0.049467
    75  H    0.054002
    76  H    0.052471
    77  H    0.058785
    78  H    0.056528
    79  H    0.059003
    80  H    0.019824
    81  H    0.056571
    82  H    0.074502
    83  H    0.062261
    84  H    0.069005
    85  H    0.041061
    86  H    0.047464
    87  H    0.030383
    88  H    0.027869
    89  H    0.060102
    90  H    0.051260
    91  H    0.023207
    92  H    0.027662
    93  H    0.039801
    94  H    0.035514
    95  H    0.050632
    96  H    0.045093
    97  H    0.065767
    98  H    0.059405
    99  H    0.052285
   100  H    0.067965
   101  H    0.070862
   102  H    0.065069
   103  H    0.080218
   104  H    0.028437
   105  H    0.044468
   106  H    0.022194
   107  H    0.046682
   108  H    0.009233
   109  H    0.040907
   110  H    0.022659
   111  H    0.010097
   112  H    0.019754
   113  H    0.009060
   114  H    0.017273
   115  H    0.031693
   116  H    0.022559
   117  H    0.031408
   118  H    0.008828
   119  H    0.007972
   120  H    0.007240
   121  H    0.021197
   122  H    0.019874
   123  H   -0.008871
   124  H    0.017747
   125  H    0.022884
   126  H    0.029365
   127  H    0.022441
   128  H    0.007589
   129  H    0.005632
   130  H    0.019894
   131  H    0.008916
   132  H    0.017756
   133  H    0.013283
   134  H    0.027541
   135  H    0.032273
   136  H    0.015105
   137  H    0.019127
   138  H    0.025754
   139  H    0.025026
   140  H    0.037616
 Sum of Mulliken charges =  -0.00000

 Dipole moment (field-independent basis, Debye):
    X=             -0.8921    Y=              1.3598    Z=              2.2588  Tot=              2.7834
 Quadrupole moment (field-independent basis, Debye-Ang):
   XX=           -392.9414   YY=           -410.7836   ZZ=           -396.7330
   XY=             44.1629   XZ=              7.5062   YZ=             28.3071

 Normal termination of Gaussian 16 at Sat Apr 30 21:36:46 2022.
