 Gaussian 16, Revision A.03,
 Gaussian 16:  ES64L-G16RevA.03 25-Dec-2016

 --------------------
 #p ZINDO=(nstates=5)
 --------------------

 -----------------------------
 step_901_chromophore_17 ZINDO
 -----------------------------
 Symbolic Z-matrix:
 Charge =  0 Multiplicity = 1

                         Standard orientation:
 ---------------------------------------------------------------------
 Center     Atomic      Atomic             Coordinates (Angstroms)
 Number     Number       Type             X           Y           Z
 ---------------------------------------------------------------------
      1         12           0        4.081300    1.065794   -0.564841
      2          6           0        3.658460   -2.413439   -0.732841
      3          6           0        1.150527    1.393743   -2.453609
      4          6           0        4.065885    4.524185    0.037300
      5          6           0        6.511123    0.561416    1.817110
      6          7           0        2.529996   -0.314871   -1.296974
      7          6           0        2.652666   -1.661611   -1.317913
      8          6           0        1.437342   -2.324218   -1.887676
      9          6           0        0.651737   -1.080640   -2.640343
     10          6           0        1.530994    0.047766   -2.152210
     11          6           0        0.391615   -1.155846   -4.155143
     12          6           0        0.618471   -3.076951   -0.760331
     13          6           0        0.099798   -4.405582   -1.197745
     14          6           0       -1.383986   -4.384442   -1.261451
     15          8           0       -2.064087   -4.126707   -2.318571
     16          8           0       -1.940189   -4.780339   -0.079855
     17          7           0        2.858366    2.746878   -1.208848
     18          6           0        1.768236    2.598748   -2.047044
     19          6           0        1.333840    3.926810   -2.439501
     20          6           0        2.178983    4.884383   -1.806154
     21          6           0        3.071409    4.093679   -0.892305
     22          6           0        0.175661    4.253475   -3.303012
     23          6           0        2.121280    6.468520   -1.937869
     24          8           0        1.290232    6.986296   -2.774619
     25          6           0        2.988741    7.327042   -1.097042
     26          7           0        4.947755    2.322915    0.805062
     27          6           0        4.838850    3.719772    0.866148
     28          6           0        5.878503    4.302481    1.838253
     29          6           0        6.777102    3.099006    2.196825
     30          6           0        5.986721    1.866969    1.642545
     31          6           0        6.830585    5.534307    1.426159
     32          6           0        7.224994    2.843274    3.722208
     33          6           0        8.705396    3.205378    3.979091
     34          7           0        5.061202   -0.530518    0.324726
     35          6           0        6.000605   -0.630815    1.237719
     36          6           0        6.387255   -1.991233    1.485134
     37          6           0        5.522505   -2.666702    0.692621
     38          6           0        4.677295   -1.788234    0.051105
     39          6           0        7.498154   -2.488522    2.386800
     40          6           0        5.229108   -4.043586    0.310663
     41          8           0        5.811322   -5.139770    0.595480
     42          6           0        4.015928   -3.859368   -0.593821
     43          6           0        4.373383   -4.511740   -1.883635
     44          8           0        5.275312   -4.090106   -2.584901
     45          8           0        3.713427   -5.666753   -2.111759
     46          6           0        3.784736   -6.337167   -3.487259
     47          6           0       -3.406747   -5.042087   -0.147416
     48          6           0       -4.015078   -4.021526    0.906171
     49          6           0       -5.326692   -3.645255    0.991543
     50          6           0       -6.394666   -4.355954    0.034190
     51          6           0       -5.767174   -2.505659    1.857326
     52          6           0       -5.716915   -2.736649    3.318953
     53          6           0       -4.744697   -1.836466    4.099854
     54          6           0       -5.503490   -0.671548    4.816374
     55          6           0       -4.774504   -0.217501    6.067404
     56          6           0       -5.550957    0.505554    3.828537
     57          6           0       -7.015522    0.910843    3.562289
     58          6           0       -7.611568    0.421986    2.163448
     59          6           0       -8.353188    1.405349    1.326087
     60          6           0       -9.816987    1.344799    1.845843
     61          6           0       -8.315919    1.108062   -0.154057
     62          6           0       -8.700708    2.262124   -1.070239
     63          6           0       -9.915173    1.967165   -2.015139
     64          6           0      -10.724545    3.208902   -2.457495
     65          6           0      -11.719264    3.486932   -1.364664
     66          6           0      -11.386741    3.049511   -3.805302
     67          1           0        0.281990    1.420435   -3.114799
     68          1           0        4.147495    5.588928    0.264571
     69          1           0        7.389399    0.396090    2.445019
     70          1           0        1.770178   -3.098206   -2.580008
     71          1           0       -0.366476   -0.902017   -2.295235
     72          1           0        1.101922   -0.368561   -4.407909
     73          1           0       -0.547320   -0.803786   -4.581635
     74          1           0        0.724085   -2.114486   -4.553933
     75          1           0       -0.166949   -2.369547   -0.495327
     76          1           0        1.220191   -3.263711    0.129430
     77          1           0        0.368590   -5.241542   -0.552148
     78          1           0        0.362554   -4.733464   -2.203133
     79          1           0       -0.446734    4.956343   -2.749243
     80          1           0       -0.448368    3.448453   -3.691488
     81          1           0        0.484792    4.754627   -4.220390
     82          1           0        2.638759    7.214821   -0.071379
     83          1           0        2.850158    8.325949   -1.509145
     84          1           0        4.049170    7.080340   -1.135515
     85          1           0        5.335912    4.563438    2.746099
     86          1           0        7.652745    3.089769    1.546982
     87          1           0        6.583211    6.436363    1.985466
     88          1           0        6.441091    5.765246    0.435239
     89          1           0        7.913771    5.420184    1.467025
     90          1           0        7.055563    1.874361    4.189892
     91          1           0        6.655062    3.603759    4.256457
     92          1           0        9.187837    2.412433    4.551271
     93          1           0        8.744645    4.078726    4.629847
     94          1           0        9.273673    3.279951    3.052113
     95          1           0        7.031731   -2.483725    3.371546
     96          1           0        8.335803   -1.791005    2.357283
     97          1           0        7.773888   -3.514542    2.144027
     98          1           0        3.246972   -4.433257   -0.075000
     99          1           0        3.845353   -5.611606   -4.298129
    100          1           0        2.930324   -6.958517   -3.753807
    101          1           0        4.724708   -6.885096   -3.560067
    102          1           0       -3.825231   -5.963917    0.258161
    103          1           0       -3.888427   -4.926509   -1.118051
    104          1           0       -3.327633   -3.535659    1.598522
    105          1           0       -7.242446   -4.785357    0.567478
    106          1           0       -6.013084   -5.153221   -0.604449
    107          1           0       -6.791074   -3.597905   -0.641840
    108          1           0       -6.795187   -2.253884    1.596247
    109          1           0       -5.237554   -1.571338    1.669848
    110          1           0       -5.351715   -3.697635    3.679974
    111          1           0       -6.695564   -2.678566    3.794886
    112          1           0       -4.048384   -1.397132    3.385864
    113          1           0       -4.280408   -2.428095    4.890016
    114          1           0       -6.532064   -0.966662    5.025227
    115          1           0       -3.790245    0.161729    5.793053
    116          1           0       -4.692121   -1.114114    6.681332
    117          1           0       -5.315919    0.520067    6.659786
    118          1           0       -5.026668    0.334310    2.888556
    119          1           0       -4.949930    1.277217    4.309756
    120          1           0       -7.035033    2.000355    3.545801
    121          1           0       -7.706794    0.683616    4.373383
    122          1           0       -8.277400   -0.432337    2.283767
    123          1           0       -6.771064    0.057270    1.571242
    124          1           0       -7.971545    2.404534    1.536163
    125          1           0      -10.462540    0.850206    1.119834
    126          1           0      -10.236007    2.321253    2.086059
    127          1           0       -9.903374    0.762019    2.762795
    128          1           0       -8.844244    0.213000   -0.483200
    129          1           0       -7.301402    0.810783   -0.420293
    130          1           0       -7.814131    2.546472   -1.636117
    131          1           0       -8.891729    3.160129   -0.482702
    132          1           0      -10.419936    1.186833   -1.445713
    133          1           0       -9.515606    1.537411   -2.932869
    134          1           0      -10.001140    4.024270   -2.475199
    135          1           0      -11.912608    2.625829   -0.725090
    136          1           0      -12.598199    3.906492   -1.854839
    137          1           0      -11.455523    4.291734   -0.677937
    138          1           0      -12.475439    3.078774   -3.838454
    139          1           0      -11.134006    2.057941   -4.181778
    140          1           0      -11.019503    3.914974   -4.357976
 ---------------------------------------------------------------------

 SCF Done:  E(RZINDO/S) =  -474.121701308     A.U. after   20 cycles

 Excitation energies and oscillator strengths:

 Excited State   1:      Singlet-A      1.2205 eV 1015.85 nm  f=0.5985  <S**2>=0.000
     175 ->178         0.17523
     176 ->177         0.66679
 This state for optimization and/or second-order correction.
 Total Energy, E(CIS/TDA) =  -474.076848795
 Copying the excited state density for this state as the 1-particle RhoCI density.

 Excited State   2:      Singlet-A      1.9190 eV  646.09 nm  f=0.0135  <S**2>=0.000
     175 ->177         0.51531
     176 ->178        -0.45652

 Excited State   3:      Singlet-A      2.9387 eV  421.90 nm  f=0.2916  <S**2>=0.000
     175 ->177        -0.22719
     176 ->178        -0.24271
     176 ->179         0.54505
     176 ->180         0.18319

 Excited State   4:      Singlet-A      2.9789 eV  416.21 nm  f=0.2431  <S**2>=0.000
     168 ->179         0.14160
     169 ->177         0.11878
     169 ->179         0.12921
     169 ->180         0.14080
     170 ->177         0.19417
     170 ->179         0.23407
     170 ->180         0.17361
     170 ->181        -0.10821
     170 ->187        -0.10050
     171 ->177         0.16762
     175 ->177        -0.19790
     176 ->178        -0.26177
     176 ->179        -0.19723

 Excited State   5:      Singlet-A      2.9864 eV  415.17 nm  f=0.3024  <S**2>=0.000
     168 ->179        -0.13108
     168 ->180         0.11872
     169 ->177         0.11794
     169 ->179         0.15961
     170 ->177         0.17746
     170 ->179         0.19904
     170 ->180         0.18314
     170 ->181        -0.10750
     170 ->185         0.10150
     171 ->177        -0.11070
     175 ->177         0.21345
     176 ->178         0.27661
     176 ->179         0.21284

 The electronic state is 1-A.
 Alpha  occ. eigenvalues --   -1.88781  -1.79929  -1.77715  -1.72189  -1.72083
 Alpha  occ. eigenvalues --   -1.69415  -1.68391  -1.63570  -1.58150  -1.56311
 Alpha  occ. eigenvalues --   -1.54745  -1.51601  -1.48720  -1.46946  -1.46078
 Alpha  occ. eigenvalues --   -1.44043  -1.41843  -1.40475  -1.39434  -1.38878
 Alpha  occ. eigenvalues --   -1.35895  -1.34588  -1.33994  -1.31274  -1.27823
 Alpha  occ. eigenvalues --   -1.27580  -1.27198  -1.23347  -1.20738  -1.19183
 Alpha  occ. eigenvalues --   -1.16977  -1.16094  -1.14964  -1.13720  -1.13526
 Alpha  occ. eigenvalues --   -1.12185  -1.09972  -1.08601  -1.05500  -1.04324
 Alpha  occ. eigenvalues --   -1.02128  -1.01489  -1.01100  -0.98531  -0.98290
 Alpha  occ. eigenvalues --   -0.95059  -0.94792  -0.94522  -0.93608  -0.93043
 Alpha  occ. eigenvalues --   -0.91825  -0.90964  -0.88793  -0.88223  -0.86607
 Alpha  occ. eigenvalues --   -0.86031  -0.85488  -0.84253  -0.82390  -0.80681
 Alpha  occ. eigenvalues --   -0.79780  -0.79179  -0.77957  -0.77815  -0.76811
 Alpha  occ. eigenvalues --   -0.75936  -0.75792  -0.75021  -0.73878  -0.73652
 Alpha  occ. eigenvalues --   -0.73158  -0.72557  -0.72049  -0.71134  -0.70649
 Alpha  occ. eigenvalues --   -0.70567  -0.69280  -0.68940  -0.68883  -0.68502
 Alpha  occ. eigenvalues --   -0.67761  -0.67056  -0.66526  -0.65947  -0.65736
 Alpha  occ. eigenvalues --   -0.65079  -0.64900  -0.64522  -0.64203  -0.63733
 Alpha  occ. eigenvalues --   -0.63267  -0.63124  -0.62747  -0.62604  -0.62129
 Alpha  occ. eigenvalues --   -0.61798  -0.61415  -0.60678  -0.60348  -0.60204
 Alpha  occ. eigenvalues --   -0.59744  -0.59527  -0.59213  -0.58561  -0.58104
 Alpha  occ. eigenvalues --   -0.57845  -0.57631  -0.57000  -0.56894  -0.56066
 Alpha  occ. eigenvalues --   -0.56006  -0.55865  -0.55647  -0.55256  -0.54861
 Alpha  occ. eigenvalues --   -0.54594  -0.53648  -0.53471  -0.53351  -0.52965
 Alpha  occ. eigenvalues --   -0.52602  -0.52570  -0.52507  -0.52247  -0.51391
 Alpha  occ. eigenvalues --   -0.51249  -0.50982  -0.50706  -0.50591  -0.50495
 Alpha  occ. eigenvalues --   -0.50162  -0.50069  -0.49854  -0.49549  -0.49169
 Alpha  occ. eigenvalues --   -0.48940  -0.48316  -0.48310  -0.48024  -0.47629
 Alpha  occ. eigenvalues --   -0.47377  -0.47180  -0.46823  -0.46432  -0.46089
 Alpha  occ. eigenvalues --   -0.45941  -0.45871  -0.45573  -0.45344  -0.45220
 Alpha  occ. eigenvalues --   -0.44720  -0.44638  -0.44242  -0.44137  -0.44077
 Alpha  occ. eigenvalues --   -0.43792  -0.42621  -0.42414  -0.42273  -0.41780
 Alpha  occ. eigenvalues --   -0.41534  -0.41317  -0.40716  -0.39032  -0.38724
 Alpha  occ. eigenvalues --   -0.38253  -0.37579  -0.36366  -0.34986  -0.34895
 Alpha  occ. eigenvalues --   -0.33271  -0.32941  -0.32722  -0.31831  -0.27382
 Alpha  occ. eigenvalues --   -0.21815
 Alpha virt. eigenvalues --   -0.08768  -0.02598  -0.00975   0.00585   0.00721
 Alpha virt. eigenvalues --    0.01136   0.02367   0.03036   0.04050   0.04406
 Alpha virt. eigenvalues --    0.05619   0.06303   0.06878   0.07349   0.07836

 Mulliken charges:
               1
     1  Mg   0.429945
     2  C   -0.038655
     3  C   -0.071252
     4  C   -0.089225
     5  C   -0.077355
     6  N   -0.262689
     7  C    0.115814
     8  C   -0.006192
     9  C    0.001187
    10  C    0.145143
    11  C   -0.058760
    12  C   -0.008164
    13  C    0.014379
    14  C    0.472182
    15  O   -0.561628
    16  O   -0.252591
    17  N   -0.340754
    18  C    0.121389
    19  C    0.064989
    20  C   -0.064792
    21  C    0.137487
    22  C   -0.035137
    23  C    0.325644
    24  O   -0.539918
    25  C   -0.021837
    26  N   -0.290033
    27  C    0.152073
    28  C    0.006553
    29  C   -0.007376
    30  C    0.092564
    31  C   -0.060994
    32  C   -0.038039
    33  C   -0.062419
    34  N   -0.297692
    35  C    0.100268
    36  C    0.015412
    37  C   -0.039141
    38  C    0.085268
    39  C   -0.037678
    40  C    0.328537
    41  O   -0.542555
    42  C    0.078121
    43  C    0.498677
    44  O   -0.526249
    45  O   -0.276046
    46  C    0.072725
    47  C    0.093525
    48  C   -0.096952
    49  C   -0.017365
    50  C   -0.051124
    51  C   -0.002962
    52  C   -0.030263
    53  C   -0.040681
    54  C   -0.017667
    55  C   -0.052497
    56  C   -0.036052
    57  C   -0.039346
    58  C   -0.034442
    59  C    0.003020
    60  C   -0.060801
    61  C   -0.026872
    62  C   -0.041232
    63  C   -0.040000
    64  C   -0.002384
    65  C   -0.057321
    66  C   -0.056155
    67  H    0.035055
    68  H    0.030381
    69  H    0.028903
    70  H    0.031850
    71  H    0.038892
    72  H    0.017195
    73  H    0.037370
    74  H    0.029880
    75  H    0.033502
    76  H    0.029132
    77  H    0.037018
    78  H    0.043480
    79  H    0.040598
    80  H    0.019478
    81  H    0.040058
    82  H    0.046834
    83  H    0.040620
    84  H    0.041001
    85  H    0.033109
    86  H    0.033998
    87  H    0.015096
    88  H    0.019345
    89  H    0.039218
    90  H    0.038663
    91  H    0.012442
    92  H    0.012357
    93  H    0.021767
    94  H    0.025231
    95  H    0.029838
    96  H    0.029605
    97  H    0.041516
    98  H    0.044362
    99  H    0.039222
   100  H    0.043355
   101  H    0.049661
   102  H    0.051883
   103  H    0.068770
   104  H    0.034591
   105  H    0.025969
   106  H    0.024250
   107  H    0.024633
   108  H    0.013529
   109  H    0.031201
   110  H    0.014452
   111  H    0.015981
   112  H    0.027200
   113  H    0.014999
   114  H    0.026948
   115  H    0.022950
   116  H    0.007912
   117  H    0.017779
   118  H    0.021876
   119  H    0.014483
   120  H    0.007256
   121  H    0.023709
   122  H    0.017891
   123  H    0.008270
   124  H    0.023674
   125  H    0.017839
   126  H    0.013779
   127  H    0.014719
   128  H    0.020266
   129  H    0.002649
   130  H    0.013004
   131  H    0.015028
   132  H    0.027453
   133  H    0.010044
   134  H    0.022102
   135  H    0.024462
   136  H    0.012258
   137  H    0.009435
   138  H    0.019231
   139  H    0.022112
   140  H    0.021767
 Sum of Mulliken charges =  -0.00000

 Dipole moment (field-independent basis, Debye):
    X=             -2.3492    Y=              2.8331    Z=              3.6841  Tot=              5.2075
 N-N= 4.461393627628D+03 E-N= 0.000000000000D+00  KE=-9.596401919862D+03
 Leave Link  601 at Sat Apr 30 21:51:49 2022, MaxMem=  6710886400 cpu:               0.8 elap:               0.1
 (Enter /sw/apps/gaussian-16.0/g16/l9999.exe)
 1\1\GINC-BP1-COMPUTE180\SP\RZINDO CIS\STO-3G\C55H74Mg1N4O6\OF15641\30-
 Apr-2022\0\\#p ZINDO=(nstates=5)\\step_901_chromophore_17 ZINDO\\0,1\M
 g,0,28.719,60.016,41.874\C,0,25.89,58.12,41.029\C,0,30.645,57.744,40.0
 32\C,0,31.503,62.137,42.146\C,0,26.61,62.471,43.039\N,0,28.285,58.307,
 40.555\C,0,27.083,57.693,40.469\C,0,27.106,56.554,39.498\C,0,28.721,56
 .282,39.279\C,0,29.24,57.474,40.05\C,0,29.313,54.908,39.639\C,0,26.281
 ,56.903,38.192\C,0,25.455,55.764,37.696\C,0,25.965,55.29,36.384\O,0,26

 Normal termination of Gaussian 16 at Sat Apr 30 21:51:49 2022.
