 Gaussian 16, Revision A.03,
 Gaussian 16:  ES64L-G16RevA.03 25-Dec-2016

 ------------------------------
 #p blyp/Def2SVP td=(nstates=5)
 ------------------------------

 --------------------------------------------------
 step_901_chromophore_13 TDDFT with blyp functional
 --------------------------------------------------
 Symbolic Z-matrix:
 Charge =  0 Multiplicity = 1

                         Standard orientation:
 ---------------------------------------------------------------------
 Center     Atomic      Atomic             Coordinates (Angstroms)
 Number     Number       Type             X           Y           Z
 ---------------------------------------------------------------------
      1         12           0       -5.861106    0.421414   -0.324924
      2          6           0       -3.416473   -2.276422    0.073202
      3          6           0       -3.352111    2.589961    0.625552
      4          6           0       -8.192466    2.732002    0.155995
      5          6           0       -8.179505   -2.000831   -0.988846
      6          7           0       -3.696955    0.130271    0.430997
      7          6           0       -2.884736   -1.005658    0.316232
      8          6           0       -1.416780   -0.679152    0.773635
      9          6           0       -1.501947    0.848865    0.997794
     10          6           0       -2.890075    1.286416    0.600482
     11          6           0       -1.042649    1.353563    2.330823
     12          6           0       -0.385119   -1.091563   -0.324598
     13          6           0        0.701040   -2.106043   -0.113179
     14          6           0        2.061691   -1.799977   -0.705304
     15          8           0        2.342283   -1.012230   -1.607015
     16          8           0        3.075600   -2.429595    0.012679
     17          7           0       -5.765492    2.395302    0.205401
     18          6           0       -4.623004    3.131862    0.525077
     19          6           0       -4.994487    4.575030    0.837653
     20          6           0       -6.465992    4.631218    0.621044
     21          6           0       -6.906131    3.215956    0.340866
     22          6           0       -3.931346    5.695971    1.223189
     23          6           0       -7.360853    5.705361    0.812535
     24          8           0       -8.557079    5.640656    0.847482
     25          6           0       -6.708692    7.032012    1.114086
     26          7           0       -7.896912    0.308762   -0.210347
     27          6           0       -8.692537    1.463429   -0.118507
     28          6           0      -10.156662    1.029921   -0.336052
     29          6           0      -10.043735   -0.286282   -1.081334
     30          6           0       -8.595489   -0.726327   -0.781786
     31          6           0      -10.813272    0.914973    1.062563
     32          6           0      -10.377691   -0.227681   -2.584532
     33          6           0       -9.178622    0.249810   -3.507363
     34          7           0       -5.885270   -1.669305   -0.595765
     35          6           0       -6.963340   -2.490811   -0.842973
     36          6           0       -6.483822   -3.830588   -1.027035
     37          6           0       -5.076931   -3.799622   -0.621244
     38          6           0       -4.801652   -2.495485   -0.357204
     39          6           0       -7.280559   -5.035598   -1.394185
     40          6           0       -3.998617   -4.653506   -0.303427
     41          8           0       -3.848294   -5.846055   -0.353133
     42          6           0       -2.780099   -3.689988    0.166760
     43          6           0       -2.426577   -3.912219    1.599927
     44          8           0       -3.251226   -4.010640    2.498163
     45          8           0       -1.059877   -4.103614    1.737289
     46          6           0       -0.580162   -4.314918    3.087522
     47          6           0        4.374308   -2.459624   -0.574458
     48          6           0        5.222224   -1.465048    0.191666
     49          6           0        6.502968   -1.091752    0.047179
     50          6           0        7.475323   -1.697894   -0.929884
     51          6           0        6.938037    0.195890    0.683860
     52          6           0        7.397225    1.336142   -0.231073
     53          6           0        8.897348    1.568342   -0.177493
     54          6           0        9.346281    2.402906   -1.405201
     55          6           0        8.402085    3.579290   -1.914754
     56          6           0        9.702515    1.442280   -2.637816
     57          6           0       11.116699    1.870901   -3.223277
     58          6           0       12.289459    0.862172   -2.965757
     59          6           0       12.881166    1.104660   -1.505528
     60          6           0       14.324674    1.618276   -1.720411
     61          6           0       12.792128   -0.228952   -0.743484
     62          6           0       13.393584   -0.096611    0.639353
     63          6           0       12.617607   -0.808285    1.761132
     64          6           0       11.722532    0.149188    2.599025
     65          6           0       12.443860    0.311974    4.083399
     66          6           0       10.323556   -0.522722    2.782363
     67          1           0       -2.541241    3.308481    0.763019
     68          1           0       -8.988309    3.453810    0.351023
     69          1           0       -8.952598   -2.610547   -1.461956
     70          1           0       -1.300461   -1.207906    1.719639
     71          1           0       -0.767811    1.238699    0.293173
     72          1           0       -1.876771    1.751489    2.909021
     73          1           0       -0.262751    2.112279    2.256080
     74          1           0       -0.755566    0.549877    3.009251
     75          1           0        0.012011   -0.228467   -0.857365
     76          1           0       -0.995815   -1.601431   -1.068610
     77          1           0        0.422876   -3.072814   -0.533487
     78          1           0        0.837535   -2.230578    0.960771
     79          1           0       -4.005958    5.884326    2.293989
     80          1           0       -4.193882    6.598474    0.671917
     81          1           0       -2.928675    5.390865    0.923832
     82          1           0       -6.237924    7.529575    0.266047
     83          1           0       -6.102380    6.972549    2.018066
     84          1           0       -7.557325    7.695043    1.279041
     85          1           0      -10.737689    1.735878   -0.928501
     86          1           0      -10.744040   -1.049870   -0.744271
     87          1           0      -11.085799   -0.116945    1.284057
     88          1           0      -11.749987    1.438661    0.872582
     89          1           0      -10.321561    1.366296    1.924901
     90          1           0      -11.204584    0.397585   -2.922925
     91          1           0      -10.601759   -1.249462   -2.891295
     92          1           0       -8.641893   -0.667146   -3.752138
     93          1           0       -8.552921    0.906621   -2.903185
     94          1           0       -9.496782    0.745534   -4.425113
     95          1           0       -8.200449   -4.805259   -1.933211
     96          1           0       -7.565233   -5.471776   -0.436642
     97          1           0       -6.703770   -5.808887   -1.900135
     98          1           0       -1.923110   -3.885733   -0.478444
     99          1           0       -0.678897   -5.307491    3.526654
    100          1           0       -1.107005   -3.639867    3.762552
    101          1           0        0.452115   -3.983785    3.202272
    102          1           0        4.339126   -2.207225   -1.633876
    103          1           0        4.788223   -3.459617   -0.445566
    104          1           0        4.575907   -0.858852    0.826531
    105          1           0        6.822271   -2.209074   -1.636182
    106          1           0        8.112321   -2.292479   -0.273586
    107          1           0        7.962300   -0.860092   -1.428408
    108          1           0        7.728065   -0.141290    1.355978
    109          1           0        6.116159    0.574715    1.290205
    110          1           0        6.935203    2.243811    0.157555
    111          1           0        7.152254    1.181090   -1.281946
    112          1           0        9.356873    0.595445   -0.004256
    113          1           0        9.071269    2.142361    0.733072
    114          1           0       10.227384    2.889267   -0.985443
    115          1           0        8.801732    4.509079   -1.509323
    116          1           0        7.326322    3.458361   -1.784123
    117          1           0        8.490293    3.721011   -2.992071
    118          1           0        8.945160    1.453694   -3.421694
    119          1           0        9.806459    0.386121   -2.389756
    120          1           0       11.488130    2.814569   -2.821344
    121          1           0       11.090693    2.079127   -4.292967
    122          1           0       12.985122    0.980611   -3.797571
    123          1           0       11.889189   -0.149568   -3.030322
    124          1           0       12.226506    1.829114   -1.022579
    125          1           0       14.329088    2.490708   -2.374528
    126          1           0       14.888272    0.812790   -2.191385
    127          1           0       14.835679    1.944623   -0.814000
    128          1           0       13.247498   -1.026226   -1.331455
    129          1           0       11.746188   -0.533360   -0.717159
    130          1           0       13.489317    0.922908    1.012946
    131          1           0       14.392400   -0.505848    0.491137
    132          1           0       13.344813   -1.251368    2.441500
    133          1           0       11.976066   -1.612858    1.400907
    134          1           0       11.631488    1.136460    2.146259
    135          1           0       11.798862    0.763778    4.836953
    136          1           0       13.351286    0.911203    4.007598
    137          1           0       12.767544   -0.673058    4.419190
    138          1           0       10.275228   -1.408074    3.416117
    139          1           0        9.940501   -0.819170    1.806658
    140          1           0        9.696588    0.280020    3.172419
 ---------------------------------------------------------------------

 SCF Done:  E(RB-LYP) =  -3007.36816850     A.U. after   22 cycles

 Excitation energies and oscillator strengths:

 Excited State   1:      Singlet-A      1.7514 eV  707.91 nm  f=0.2587  <S**2>=0.000
     244 -> 247       -0.24500
     245 -> 248        0.16324
     246 -> 247        0.65012
     246 <- 247       -0.14994
 This state for optimization and/or second-order correction.
 Total Energy, E(TD-HF/TD-DFT) =  -3007.30380496
 Copying the excited state density for this state as the 1-particle RhoCI density.

 Excited State   2:      Singlet-A      1.8332 eV  676.32 nm  f=0.0429  <S**2>=0.000
     244 -> 247        0.65821
     246 -> 247        0.23182

 Excited State   3:      Singlet-A      1.8660 eV  664.44 nm  f=0.0096  <S**2>=0.000
     243 -> 247        0.67481
     245 -> 247        0.17632

 Excited State   4:      Singlet-A      1.9422 eV  638.37 nm  f=0.0000  <S**2>=0.000
     242 -> 247        0.70710

 Excited State   5:      Singlet-A      1.9683 eV  629.89 nm  f=0.0729  <S**2>=0.000
     241 -> 247        0.13728
     243 -> 247       -0.17567
     245 -> 247        0.62415
     246 -> 248       -0.19487
     246 -> 249       -0.11579

 The electronic state is 1-A.
 Alpha  occ. eigenvalues --  -46.26643 -18.82826 -18.81443 -18.77110 -18.76860
 Alpha  occ. eigenvalues --  -18.75751 -18.75319 -14.03340 -14.03015 -14.01836
 Alpha  occ. eigenvalues --  -14.00517 -10.04371 -10.04094  -9.99438  -9.98683
 Alpha  occ. eigenvalues --   -9.97726  -9.97313  -9.96911  -9.96907  -9.96817
 Alpha  occ. eigenvalues --   -9.96777  -9.96666  -9.96240  -9.96171  -9.94816
 Alpha  occ. eigenvalues --   -9.94681  -9.94546  -9.94447  -9.94420  -9.94085
 Alpha  occ. eigenvalues --   -9.93950  -9.93884  -9.93645  -9.93614  -9.93613
 Alpha  occ. eigenvalues --   -9.93289  -9.93106  -9.92923  -9.92877  -9.92760
 Alpha  occ. eigenvalues --   -9.92639  -9.92370  -9.92286  -9.92239  -9.92091
 Alpha  occ. eigenvalues --   -9.92080  -9.91895  -9.91895  -9.91806  -9.91771
 Alpha  occ. eigenvalues --   -9.91620  -9.91420  -9.91402  -9.91161  -9.91074
 Alpha  occ. eigenvalues --   -9.91018  -9.91008  -9.90978  -9.90934  -9.90924
 Alpha  occ. eigenvalues --   -9.90801  -9.90796  -9.90792  -9.90766  -9.90722
 Alpha  occ. eigenvalues --   -9.90440  -2.91372  -1.71766  -1.71271  -1.71090
 Alpha  occ. eigenvalues --   -0.97760  -0.97733  -0.92875  -0.92253  -0.90108
 Alpha  occ. eigenvalues --   -0.89706  -0.85996  -0.84901  -0.84207  -0.83224
 Alpha  occ. eigenvalues --   -0.75391  -0.73708  -0.73042  -0.72798  -0.72482
 Alpha  occ. eigenvalues --   -0.71911  -0.71669  -0.71402  -0.70405  -0.70074
 Alpha  occ. eigenvalues --   -0.69995  -0.69536  -0.68035  -0.67788  -0.67277
 Alpha  occ. eigenvalues --   -0.66315  -0.65876  -0.65527  -0.64963  -0.64254
 Alpha  occ. eigenvalues --   -0.63471  -0.62797  -0.62575  -0.61819  -0.60954
 Alpha  occ. eigenvalues --   -0.60745  -0.59995  -0.59959  -0.59332  -0.58822
 Alpha  occ. eigenvalues --   -0.58076  -0.57725  -0.56982  -0.55638  -0.55047
 Alpha  occ. eigenvalues --   -0.54486  -0.53822  -0.53598  -0.52848  -0.51430
 Alpha  occ. eigenvalues --   -0.51208  -0.50765  -0.50471  -0.50412  -0.49554
 Alpha  occ. eigenvalues --   -0.49213  -0.48906  -0.48842  -0.48385  -0.46546
 Alpha  occ. eigenvalues --   -0.45932  -0.45689  -0.45520  -0.45302  -0.44596
 Alpha  occ. eigenvalues --   -0.44491  -0.44105  -0.43017  -0.42742  -0.42242
 Alpha  occ. eigenvalues --   -0.42059  -0.41955  -0.41764  -0.41611  -0.41357
 Alpha  occ. eigenvalues --   -0.41159  -0.40573  -0.40201  -0.40075  -0.40030
 Alpha  occ. eigenvalues --   -0.40024  -0.39725  -0.39607  -0.39535  -0.39212
 Alpha  occ. eigenvalues --   -0.39097  -0.38928  -0.38538  -0.38401  -0.38274
 Alpha  occ. eigenvalues --   -0.38016  -0.37809  -0.37703  -0.37298  -0.37251
 Alpha  occ. eigenvalues --   -0.37221  -0.36860  -0.36762  -0.36500  -0.36457
 Alpha  occ. eigenvalues --   -0.36107  -0.36023  -0.35994  -0.35850  -0.35721
 Alpha  occ. eigenvalues --   -0.35537  -0.35442  -0.35363  -0.34887  -0.34543
 Alpha  occ. eigenvalues --   -0.34510  -0.34363  -0.34166  -0.34068  -0.34026
 Alpha  occ. eigenvalues --   -0.33777  -0.33546  -0.33170  -0.33011  -0.32981
 Alpha  occ. eigenvalues --   -0.32891  -0.32537  -0.32238  -0.32055  -0.31973
 Alpha  occ. eigenvalues --   -0.31801  -0.31676  -0.31598  -0.31467  -0.31402
 Alpha  occ. eigenvalues --   -0.31251  -0.31224  -0.30938  -0.30875  -0.30668
 Alpha  occ. eigenvalues --   -0.30471  -0.30399  -0.30218  -0.30109  -0.30055
 Alpha  occ. eigenvalues --   -0.29792  -0.29516  -0.29401  -0.29331  -0.28936
 Alpha  occ. eigenvalues --   -0.28822  -0.28557  -0.28552  -0.28391  -0.28069
 Alpha  occ. eigenvalues --   -0.27659  -0.27552  -0.27192  -0.26859  -0.26792
 Alpha  occ. eigenvalues --   -0.26498  -0.26189  -0.26021  -0.25614  -0.25398
 Alpha  occ. eigenvalues --   -0.25307  -0.24529  -0.24353  -0.23613  -0.23482
 Alpha  occ. eigenvalues --   -0.23323  -0.22560  -0.22164  -0.21943  -0.20983
 Alpha  occ. eigenvalues --   -0.19775  -0.19252  -0.18901  -0.18715  -0.17637
 Alpha  occ. eigenvalues --   -0.16138
 Alpha virt. eigenvalues --   -0.12115  -0.07377  -0.06265  -0.04809  -0.03197
 Alpha virt. eigenvalues --   -0.02947  -0.02534  -0.02340  -0.00512   0.00358
 Alpha virt. eigenvalues --    0.01373   0.01802   0.01956   0.02369   0.02585

 Mulliken charges:
               1
     1  Mg   0.688205
     2  C   -0.027640
     3  C   -0.064182
     4  C   -0.031765
     5  C   -0.123302
     6  N   -0.236517
     7  C   -0.097648
     8  C    0.025381
     9  C    0.037298
    10  C    0.037576
    11  C    0.140663
    12  C    0.125731
    13  C    0.130859
    14  C    0.059651
    15  O   -0.189269
    16  O   -0.271965
    17  N   -0.330048
    18  C    0.166172
    19  C   -0.145609
    20  C    0.084070
    21  C    0.123949
    22  C    0.158709
    23  C   -0.143978
    24  O   -0.136407
    25  C    0.108633
    26  N   -0.287685
    27  C    0.025133
    28  C    0.044143
    29  C    0.053420
    30  C    0.026769
    31  C    0.133712
    32  C    0.040785
    33  C    0.049303
    34  N   -0.278507
    35  C    0.232406
    36  C   -0.169123
    37  C    0.089419
    38  C    0.118708
    39  C    0.178581
    40  C   -0.070388
    41  O   -0.104588
    42  C    0.062674
    43  C    0.114243
    44  O   -0.174888
    45  O   -0.272281
    46  C    0.215643
    47  C    0.310127
    48  C   -0.133171
    49  C   -0.197077
    50  C    0.178330
    51  C    0.177194
    52  C    0.036964
    53  C    0.048794
    54  C   -0.052485
    55  C    0.095360
    56  C    0.105943
    57  C    0.034764
    58  C    0.090611
    59  C   -0.076181
    60  C    0.108887
    61  C    0.088889
    62  C    0.087737
    63  C    0.124640
    64  C   -0.099811
    65  C    0.060458
    66  C    0.071985
    67  H   -0.070996
    68  H   -0.042439
    69  H   -0.068431
    70  H   -0.010691
    71  H   -0.031967
    72  H   -0.016095
    73  H   -0.002442
    74  H   -0.022909
    75  H   -0.010448
    76  H   -0.030393
    77  H    0.020209
    78  H    0.000171
    79  H    0.022928
    80  H    0.008774
    81  H   -0.000328
    82  H    0.010279
    83  H    0.008560
    84  H   -0.028597
    85  H   -0.029005
    86  H   -0.038906
    87  H   -0.009529
    88  H   -0.010348
    89  H    0.012762
    90  H   -0.014158
    91  H   -0.024913
    92  H   -0.005373
    93  H    0.012418
    94  H   -0.005093
    95  H   -0.012761
    96  H    0.009503
    97  H    0.008280
    98  H   -0.008158
    99  H    0.022392
   100  H   -0.000165
   101  H    0.009385
   102  H    0.010107
   103  H   -0.006119
   104  H   -0.039382
   105  H   -0.014982
   106  H    0.011909
   107  H   -0.006916
   108  H   -0.035809
   109  H   -0.050567
   110  H   -0.019999
   111  H   -0.006484
   112  H   -0.013824
   113  H   -0.037844
   114  H   -0.027127
   115  H   -0.018126
   116  H    0.002520
   117  H   -0.022888
   118  H   -0.024582
   119  H   -0.016399
   120  H   -0.029736
   121  H   -0.046989
   122  H   -0.036284
   123  H   -0.041365
   124  H   -0.027751
   125  H   -0.017262
   126  H   -0.015294
   127  H   -0.018112
   128  H   -0.035533
   129  H   -0.037247
   130  H   -0.022668
   131  H   -0.034436
   132  H   -0.044282
   133  H   -0.041196
   134  H   -0.018485
   135  H   -0.012097
   136  H   -0.014391
   137  H   -0.008736
   138  H   -0.009382
   139  H    0.005408
   140  H   -0.007161
 Sum of Mulliken charges =  -0.00000

 Dipole moment (field-independent basis, Debye):
    X=              2.2854    Y=              2.8637    Z=             -0.5863  Tot=              3.7105
 Quadrupole moment (field-independent basis, Debye-Ang):
   XX=           -383.3978   YY=           -425.2510   ZZ=           -403.4965
   XY=              5.9724   XZ=             22.7533   YZ=              3.5407

 Normal termination of Gaussian 16 at Thu May  5 14:09:33 2022.
