 Gaussian 16, Revision A.03,
 Gaussian 16:  ES64L-G16RevA.03 25-Dec-2016

 -----------------------------------
 #p cam-b3lyp/Def2SVP td=(nstates=5)
 -----------------------------------

 -------------------------------------------------------
 step_901_chromophore_13 TDDFT with cam-b3lyp functional
 -------------------------------------------------------
 Symbolic Z-matrix:
 Charge =  0 Multiplicity = 1

                         Standard orientation:
 ---------------------------------------------------------------------
 Center     Atomic      Atomic             Coordinates (Angstroms)
 Number     Number       Type             X           Y           Z
 ---------------------------------------------------------------------
      1         12           0       -5.861106    0.421414   -0.324924
      2          6           0       -3.416473   -2.276422    0.073202
      3          6           0       -3.352111    2.589961    0.625552
      4          6           0       -8.192466    2.732002    0.155995
      5          6           0       -8.179505   -2.000831   -0.988846
      6          7           0       -3.696955    0.130271    0.430997
      7          6           0       -2.884736   -1.005658    0.316232
      8          6           0       -1.416780   -0.679152    0.773635
      9          6           0       -1.501947    0.848865    0.997794
     10          6           0       -2.890075    1.286416    0.600482
     11          6           0       -1.042649    1.353563    2.330823
     12          6           0       -0.385119   -1.091563   -0.324598
     13          6           0        0.701040   -2.106043   -0.113179
     14          6           0        2.061691   -1.799977   -0.705304
     15          8           0        2.342283   -1.012230   -1.607015
     16          8           0        3.075600   -2.429595    0.012679
     17          7           0       -5.765492    2.395302    0.205401
     18          6           0       -4.623004    3.131862    0.525077
     19          6           0       -4.994487    4.575030    0.837653
     20          6           0       -6.465992    4.631218    0.621044
     21          6           0       -6.906131    3.215956    0.340866
     22          6           0       -3.931346    5.695971    1.223189
     23          6           0       -7.360853    5.705361    0.812535
     24          8           0       -8.557079    5.640656    0.847482
     25          6           0       -6.708692    7.032012    1.114086
     26          7           0       -7.896912    0.308762   -0.210347
     27          6           0       -8.692537    1.463429   -0.118507
     28          6           0      -10.156662    1.029921   -0.336052
     29          6           0      -10.043735   -0.286282   -1.081334
     30          6           0       -8.595489   -0.726327   -0.781786
     31          6           0      -10.813272    0.914973    1.062563
     32          6           0      -10.377691   -0.227681   -2.584532
     33          6           0       -9.178622    0.249810   -3.507363
     34          7           0       -5.885270   -1.669305   -0.595765
     35          6           0       -6.963340   -2.490811   -0.842973
     36          6           0       -6.483822   -3.830588   -1.027035
     37          6           0       -5.076931   -3.799622   -0.621244
     38          6           0       -4.801652   -2.495485   -0.357204
     39          6           0       -7.280559   -5.035598   -1.394185
     40          6           0       -3.998617   -4.653506   -0.303427
     41          8           0       -3.848294   -5.846055   -0.353133
     42          6           0       -2.780099   -3.689988    0.166760
     43          6           0       -2.426577   -3.912219    1.599927
     44          8           0       -3.251226   -4.010640    2.498163
     45          8           0       -1.059877   -4.103614    1.737289
     46          6           0       -0.580162   -4.314918    3.087522
     47          6           0        4.374308   -2.459624   -0.574458
     48          6           0        5.222224   -1.465048    0.191666
     49          6           0        6.502968   -1.091752    0.047179
     50          6           0        7.475323   -1.697894   -0.929884
     51          6           0        6.938037    0.195890    0.683860
     52          6           0        7.397225    1.336142   -0.231073
     53          6           0        8.897348    1.568342   -0.177493
     54          6           0        9.346281    2.402906   -1.405201
     55          6           0        8.402085    3.579290   -1.914754
     56          6           0        9.702515    1.442280   -2.637816
     57          6           0       11.116699    1.870901   -3.223277
     58          6           0       12.289459    0.862172   -2.965757
     59          6           0       12.881166    1.104660   -1.505528
     60          6           0       14.324674    1.618276   -1.720411
     61          6           0       12.792128   -0.228952   -0.743484
     62          6           0       13.393584   -0.096611    0.639353
     63          6           0       12.617607   -0.808285    1.761132
     64          6           0       11.722532    0.149188    2.599025
     65          6           0       12.443860    0.311974    4.083399
     66          6           0       10.323556   -0.522722    2.782363
     67          1           0       -2.541241    3.308481    0.763019
     68          1           0       -8.988309    3.453810    0.351023
     69          1           0       -8.952598   -2.610547   -1.461956
     70          1           0       -1.300461   -1.207906    1.719639
     71          1           0       -0.767811    1.238699    0.293173
     72          1           0       -1.876771    1.751489    2.909021
     73          1           0       -0.262751    2.112279    2.256080
     74          1           0       -0.755566    0.549877    3.009251
     75          1           0        0.012011   -0.228467   -0.857365
     76          1           0       -0.995815   -1.601431   -1.068610
     77          1           0        0.422876   -3.072814   -0.533487
     78          1           0        0.837535   -2.230578    0.960771
     79          1           0       -4.005958    5.884326    2.293989
     80          1           0       -4.193882    6.598474    0.671917
     81          1           0       -2.928675    5.390865    0.923832
     82          1           0       -6.237924    7.529575    0.266047
     83          1           0       -6.102380    6.972549    2.018066
     84          1           0       -7.557325    7.695043    1.279041
     85          1           0      -10.737689    1.735878   -0.928501
     86          1           0      -10.744040   -1.049870   -0.744271
     87          1           0      -11.085799   -0.116945    1.284057
     88          1           0      -11.749987    1.438661    0.872582
     89          1           0      -10.321561    1.366296    1.924901
     90          1           0      -11.204584    0.397585   -2.922925
     91          1           0      -10.601759   -1.249462   -2.891295
     92          1           0       -8.641893   -0.667146   -3.752138
     93          1           0       -8.552921    0.906621   -2.903185
     94          1           0       -9.496782    0.745534   -4.425113
     95          1           0       -8.200449   -4.805259   -1.933211
     96          1           0       -7.565233   -5.471776   -0.436642
     97          1           0       -6.703770   -5.808887   -1.900135
     98          1           0       -1.923110   -3.885733   -0.478444
     99          1           0       -0.678897   -5.307491    3.526654
    100          1           0       -1.107005   -3.639867    3.762552
    101          1           0        0.452115   -3.983785    3.202272
    102          1           0        4.339126   -2.207225   -1.633876
    103          1           0        4.788223   -3.459617   -0.445566
    104          1           0        4.575907   -0.858852    0.826531
    105          1           0        6.822271   -2.209074   -1.636182
    106          1           0        8.112321   -2.292479   -0.273586
    107          1           0        7.962300   -0.860092   -1.428408
    108          1           0        7.728065   -0.141290    1.355978
    109          1           0        6.116159    0.574715    1.290205
    110          1           0        6.935203    2.243811    0.157555
    111          1           0        7.152254    1.181090   -1.281946
    112          1           0        9.356873    0.595445   -0.004256
    113          1           0        9.071269    2.142361    0.733072
    114          1           0       10.227384    2.889267   -0.985443
    115          1           0        8.801732    4.509079   -1.509323
    116          1           0        7.326322    3.458361   -1.784123
    117          1           0        8.490293    3.721011   -2.992071
    118          1           0        8.945160    1.453694   -3.421694
    119          1           0        9.806459    0.386121   -2.389756
    120          1           0       11.488130    2.814569   -2.821344
    121          1           0       11.090693    2.079127   -4.292967
    122          1           0       12.985122    0.980611   -3.797571
    123          1           0       11.889189   -0.149568   -3.030322
    124          1           0       12.226506    1.829114   -1.022579
    125          1           0       14.329088    2.490708   -2.374528
    126          1           0       14.888272    0.812790   -2.191385
    127          1           0       14.835679    1.944623   -0.814000
    128          1           0       13.247498   -1.026226   -1.331455
    129          1           0       11.746188   -0.533360   -0.717159
    130          1           0       13.489317    0.922908    1.012946
    131          1           0       14.392400   -0.505848    0.491137
    132          1           0       13.344813   -1.251368    2.441500
    133          1           0       11.976066   -1.612858    1.400907
    134          1           0       11.631488    1.136460    2.146259
    135          1           0       11.798862    0.763778    4.836953
    136          1           0       13.351286    0.911203    4.007598
    137          1           0       12.767544   -0.673058    4.419190
    138          1           0       10.275228   -1.408074    3.416117
    139          1           0        9.940501   -0.819170    1.806658
    140          1           0        9.696588    0.280020    3.172419
 ---------------------------------------------------------------------

 SCF Done:  E(RCAM-B3LYP) =  -3007.16087306     A.U. after   19 cycles

 Excitation energies and oscillator strengths:

 Excited State   1:      Singlet-A      1.6461 eV  753.18 nm  f=0.3835  <S**2>=0.000
     245 -> 248       -0.16536
     246 -> 247        0.68766
     245 <- 248       -0.10417
 This state for optimization and/or second-order correction.
 Total Energy, E(TD-HF/TD-DFT) =  -3007.10037828
 Copying the excited state density for this state as the 1-particle RhoCI density.

 Excited State   2:      Singlet-A      2.1736 eV  570.41 nm  f=0.1204  <S**2>=0.000
     245 -> 247        0.64275
     246 -> 248        0.26777

 Excited State   3:      Singlet-A      3.0402 eV  407.81 nm  f=0.0085  <S**2>=0.000
     244 -> 247        0.68467

 Excited State   4:      Singlet-A      3.4022 eV  364.43 nm  f=0.0857  <S**2>=0.000
     240 -> 247        0.12584
     242 -> 247        0.55031
     246 -> 248       -0.37474

 Excited State   5:      Singlet-A      3.4904 eV  355.22 nm  f=0.0518  <S**2>=0.000
     239 -> 247        0.21679
     239 -> 249        0.11393
     240 -> 247        0.51140
     240 -> 248       -0.16361
     240 -> 249        0.25116
     240 -> 250        0.10933
     246 -> 248        0.19131

 The electronic state is 1-A.
 Alpha  occ. eigenvalues --  -46.88109 -19.25826 -19.24304 -19.20146 -19.19956
 Alpha  occ. eigenvalues --  -19.18749 -19.18659 -14.42244 -14.41891 -14.40493
 Alpha  occ. eigenvalues --  -14.38662 -10.39747 -10.39554 -10.34575 -10.34001
 Alpha  occ. eigenvalues --  -10.31723 -10.31579 -10.31530 -10.31520 -10.31463
 Alpha  occ. eigenvalues --  -10.31409 -10.31336 -10.31266 -10.30408 -10.28980
 Alpha  occ. eigenvalues --  -10.28703 -10.28642 -10.28631 -10.28485 -10.28413
 Alpha  occ. eigenvalues --  -10.28131 -10.27978 -10.27777 -10.27625 -10.27586
 Alpha  occ. eigenvalues --  -10.27420 -10.27286 -10.26735 -10.26576 -10.26545
 Alpha  occ. eigenvalues --  -10.26538 -10.26367 -10.26018 -10.25827 -10.25792
 Alpha  occ. eigenvalues --  -10.25726 -10.25700 -10.25691 -10.25646 -10.25513
 Alpha  occ. eigenvalues --  -10.25365 -10.25254 -10.25076 -10.25051 -10.24800
 Alpha  occ. eigenvalues --  -10.24763 -10.24684 -10.24664 -10.24604 -10.24543
 Alpha  occ. eigenvalues --  -10.24533 -10.24505 -10.24436 -10.24383 -10.24378
 Alpha  occ. eigenvalues --  -10.24374  -3.16745  -1.91614  -1.91215  -1.91053
 Alpha  occ. eigenvalues --   -1.16288  -1.16208  -1.11569  -1.10470  -1.08066
 Alpha  occ. eigenvalues --   -1.07588  -1.03537  -1.02371  -1.01867  -1.00780
 Alpha  occ. eigenvalues --   -0.92385  -0.90620  -0.89843  -0.89600  -0.89153
 Alpha  occ. eigenvalues --   -0.88505  -0.88301  -0.88059  -0.87026  -0.86949
 Alpha  occ. eigenvalues --   -0.86536  -0.85798  -0.84201  -0.83994  -0.83456
 Alpha  occ. eigenvalues --   -0.82311  -0.81843  -0.81557  -0.80907  -0.80142
 Alpha  occ. eigenvalues --   -0.79216  -0.78790  -0.78174  -0.77280  -0.76362
 Alpha  occ. eigenvalues --   -0.76147  -0.75334  -0.75207  -0.74600  -0.74018
 Alpha  occ. eigenvalues --   -0.73142  -0.72670  -0.71881  -0.70506  -0.69610
 Alpha  occ. eigenvalues --   -0.69189  -0.68404  -0.68257  -0.67288  -0.65629
 Alpha  occ. eigenvalues --   -0.65323  -0.64682  -0.64576  -0.64293  -0.63544
 Alpha  occ. eigenvalues --   -0.63150  -0.62656  -0.62541  -0.62190  -0.60287
 Alpha  occ. eigenvalues --   -0.59503  -0.59220  -0.58932  -0.58557  -0.58135
 Alpha  occ. eigenvalues --   -0.58071  -0.57462  -0.56163  -0.55773  -0.55322
 Alpha  occ. eigenvalues --   -0.55194  -0.55099  -0.54887  -0.54615  -0.54407
 Alpha  occ. eigenvalues --   -0.54115  -0.53477  -0.53210  -0.52908  -0.52698
 Alpha  occ. eigenvalues --   -0.52602  -0.52372  -0.52260  -0.52106  -0.51849
 Alpha  occ. eigenvalues --   -0.51737  -0.51446  -0.50993  -0.50935  -0.50813
 Alpha  occ. eigenvalues --   -0.50440  -0.50269  -0.49977  -0.49851  -0.49617
 Alpha  occ. eigenvalues --   -0.49494  -0.49401  -0.49307  -0.48977  -0.48875
 Alpha  occ. eigenvalues --   -0.48401  -0.48215  -0.48030  -0.47982  -0.47966
 Alpha  occ. eigenvalues --   -0.47734  -0.47519  -0.47309  -0.46782  -0.46404
 Alpha  occ. eigenvalues --   -0.46329  -0.46127  -0.46059  -0.45908  -0.45751
 Alpha  occ. eigenvalues --   -0.45586  -0.45329  -0.44961  -0.44823  -0.44768
 Alpha  occ. eigenvalues --   -0.44488  -0.44028  -0.43922  -0.43716  -0.43543
 Alpha  occ. eigenvalues --   -0.43474  -0.43253  -0.43227  -0.43008  -0.42866
 Alpha  occ. eigenvalues --   -0.42789  -0.42577  -0.42514  -0.42335  -0.42257
 Alpha  occ. eigenvalues --   -0.42005  -0.41788  -0.41731  -0.41429  -0.41337
 Alpha  occ. eigenvalues --   -0.41246  -0.41069  -0.40562  -0.40391  -0.40084
 Alpha  occ. eigenvalues --   -0.39866  -0.39464  -0.39420  -0.39287  -0.39074
 Alpha  occ. eigenvalues --   -0.38655  -0.38464  -0.38011  -0.37909  -0.37618
 Alpha  occ. eigenvalues --   -0.37514  -0.37068  -0.36913  -0.36723  -0.36356
 Alpha  occ. eigenvalues --   -0.35927  -0.35611  -0.34708  -0.34401  -0.34275
 Alpha  occ. eigenvalues --   -0.34022  -0.33721  -0.33690  -0.31554  -0.31148
 Alpha  occ. eigenvalues --   -0.30605  -0.30461  -0.28884  -0.28707  -0.24461
 Alpha  occ. eigenvalues --   -0.21415
 Alpha virt. eigenvalues --   -0.09346  -0.02128  -0.00041   0.02204   0.02465
 Alpha virt. eigenvalues --    0.04631   0.04816   0.05089   0.06956   0.07156
 Alpha virt. eigenvalues --    0.07952   0.08079   0.08424   0.08740   0.08952

 Mulliken charges:
               1
     1  Mg   0.818526
     2  C   -0.056320
     3  C   -0.088404
     4  C   -0.055801
     5  C   -0.120212
     6  N   -0.299499
     7  C   -0.052768
     8  C   -0.027110
     9  C   -0.017048
    10  C    0.059900
    11  C    0.075414
    12  C    0.068944
    13  C    0.060538
    14  C    0.147647
    15  O   -0.230807
    16  O   -0.336808
    17  N   -0.417452
    18  C    0.179165
    19  C   -0.144645
    20  C    0.012008
    21  C    0.153998
    22  C    0.106765
    23  C   -0.063571
    24  O   -0.177867
    25  C    0.021163
    26  N   -0.354790
    27  C    0.039341
    28  C   -0.009107
    29  C   -0.006783
    30  C    0.036270
    31  C    0.076020
    32  C   -0.006772
    33  C   -0.008131
    34  N   -0.366337
    35  C    0.222643
    36  C   -0.157152
    37  C    0.000189
    38  C    0.157520
    39  C    0.125595
    40  C    0.030266
    41  O   -0.146292
    42  C   -0.010411
    43  C    0.205048
    44  O   -0.210701
    45  O   -0.336819
    46  C    0.175363
    47  C    0.275270
    48  C   -0.153144
    49  C   -0.210271
    50  C    0.123361
    51  C    0.118509
    52  C   -0.025537
    53  C    0.014831
    54  C   -0.113316
    55  C    0.040525
    56  C    0.050296
    57  C   -0.012915
    58  C    0.037804
    59  C   -0.131124
    60  C    0.051784
    61  C    0.044445
    62  C    0.030413
    63  C    0.066906
    64  C   -0.155691
    65  C    0.007319
    66  C    0.019034
    67  H   -0.035736
    68  H   -0.000887
    69  H   -0.033518
    70  H    0.019783
    71  H    0.004991
    72  H    0.012232
    73  H    0.022167
    74  H    0.004193
    75  H    0.024145
    76  H    0.003059
    77  H    0.049638
    78  H    0.031473
    79  H    0.049667
    80  H    0.035044
    81  H    0.027425
    82  H    0.040043
    83  H    0.036244
    84  H    0.010182
    85  H    0.007112
    86  H   -0.000890
    87  H    0.015776
    88  H    0.013475
    89  H    0.038018
    90  H    0.013770
    91  H    0.002403
    92  H    0.017493
    93  H    0.028699
    94  H    0.019716
    95  H    0.010086
    96  H    0.035407
    97  H    0.034485
    98  H    0.032633
    99  H    0.045607
   100  H    0.024308
   101  H    0.031178
   102  H    0.040968
   103  H    0.021969
   104  H   -0.006926
   105  H    0.008720
   106  H    0.035246
   107  H    0.011371
   108  H   -0.009332
   109  H   -0.017098
   110  H    0.009143
   111  H    0.018901
   112  H    0.003890
   113  H   -0.010248
   114  H    0.003859
   115  H    0.006421
   116  H    0.025577
   117  H    0.001932
   118  H    0.004332
   119  H    0.006803
   120  H   -0.004361
   121  H   -0.016351
   122  H   -0.005677
   123  H   -0.012451
   124  H   -0.001866
   125  H    0.006700
   126  H    0.007804
   127  H    0.006473
   128  H   -0.006306
   129  H   -0.013744
   130  H    0.002965
   131  H   -0.004425
   132  H   -0.013130
   133  H   -0.011202
   134  H    0.008845
   135  H    0.011636
   136  H    0.008933
   137  H    0.012470
   138  H    0.015435
   139  H    0.018725
   140  H    0.015362
 Sum of Mulliken charges =  -0.00000

 Dipole moment (field-independent basis, Debye):
    X=              2.3347    Y=              3.9565    Z=             -0.4014  Tot=              4.6114
 Quadrupole moment (field-independent basis, Debye-Ang):
   XX=           -383.4713   YY=           -420.5006   ZZ=           -402.9932
   XY=              0.1910   XZ=             22.7805   YZ=              4.7062

 Normal termination of Gaussian 16 at Thu May  5 12:37:50 2022.
