 Gaussian 16, Revision A.03,
 Gaussian 16:  ES64L-G16RevA.03 25-Dec-2016

 ---------------------------------
 #p PBE1PBE/Def2SVP td=(nstates=5)
 ---------------------------------

 -----------------------------------------------------
 step_901_chromophore_13 TDDFT with PBE1PBE functional
 -----------------------------------------------------
 Symbolic Z-matrix:
 Charge =  0 Multiplicity = 1

                         Standard orientation:
 ---------------------------------------------------------------------
 Center     Atomic      Atomic             Coordinates (Angstroms)
 Number     Number       Type             X           Y           Z
 ---------------------------------------------------------------------
      1         12           0       -5.861106    0.421414   -0.324924
      2          6           0       -3.416473   -2.276422    0.073202
      3          6           0       -3.352111    2.589961    0.625552
      4          6           0       -8.192466    2.732002    0.155995
      5          6           0       -8.179505   -2.000831   -0.988846
      6          7           0       -3.696955    0.130271    0.430997
      7          6           0       -2.884736   -1.005658    0.316232
      8          6           0       -1.416780   -0.679152    0.773635
      9          6           0       -1.501947    0.848865    0.997794
     10          6           0       -2.890075    1.286416    0.600482
     11          6           0       -1.042649    1.353563    2.330823
     12          6           0       -0.385119   -1.091563   -0.324598
     13          6           0        0.701040   -2.106043   -0.113179
     14          6           0        2.061691   -1.799977   -0.705304
     15          8           0        2.342283   -1.012230   -1.607015
     16          8           0        3.075600   -2.429595    0.012679
     17          7           0       -5.765492    2.395302    0.205401
     18          6           0       -4.623004    3.131862    0.525077
     19          6           0       -4.994487    4.575030    0.837653
     20          6           0       -6.465992    4.631218    0.621044
     21          6           0       -6.906131    3.215956    0.340866
     22          6           0       -3.931346    5.695971    1.223189
     23          6           0       -7.360853    5.705361    0.812535
     24          8           0       -8.557079    5.640656    0.847482
     25          6           0       -6.708692    7.032012    1.114086
     26          7           0       -7.896912    0.308762   -0.210347
     27          6           0       -8.692537    1.463429   -0.118507
     28          6           0      -10.156662    1.029921   -0.336052
     29          6           0      -10.043735   -0.286282   -1.081334
     30          6           0       -8.595489   -0.726327   -0.781786
     31          6           0      -10.813272    0.914973    1.062563
     32          6           0      -10.377691   -0.227681   -2.584532
     33          6           0       -9.178622    0.249810   -3.507363
     34          7           0       -5.885270   -1.669305   -0.595765
     35          6           0       -6.963340   -2.490811   -0.842973
     36          6           0       -6.483822   -3.830588   -1.027035
     37          6           0       -5.076931   -3.799622   -0.621244
     38          6           0       -4.801652   -2.495485   -0.357204
     39          6           0       -7.280559   -5.035598   -1.394185
     40          6           0       -3.998617   -4.653506   -0.303427
     41          8           0       -3.848294   -5.846055   -0.353133
     42          6           0       -2.780099   -3.689988    0.166760
     43          6           0       -2.426577   -3.912219    1.599927
     44          8           0       -3.251226   -4.010640    2.498163
     45          8           0       -1.059877   -4.103614    1.737289
     46          6           0       -0.580162   -4.314918    3.087522
     47          6           0        4.374308   -2.459624   -0.574458
     48          6           0        5.222224   -1.465048    0.191666
     49          6           0        6.502968   -1.091752    0.047179
     50          6           0        7.475323   -1.697894   -0.929884
     51          6           0        6.938037    0.195890    0.683860
     52          6           0        7.397225    1.336142   -0.231073
     53          6           0        8.897348    1.568342   -0.177493
     54          6           0        9.346281    2.402906   -1.405201
     55          6           0        8.402085    3.579290   -1.914754
     56          6           0        9.702515    1.442280   -2.637816
     57          6           0       11.116699    1.870901   -3.223277
     58          6           0       12.289459    0.862172   -2.965757
     59          6           0       12.881166    1.104660   -1.505528
     60          6           0       14.324674    1.618276   -1.720411
     61          6           0       12.792128   -0.228952   -0.743484
     62          6           0       13.393584   -0.096611    0.639353
     63          6           0       12.617607   -0.808285    1.761132
     64          6           0       11.722532    0.149188    2.599025
     65          6           0       12.443860    0.311974    4.083399
     66          6           0       10.323556   -0.522722    2.782363
     67          1           0       -2.541241    3.308481    0.763019
     68          1           0       -8.988309    3.453810    0.351023
     69          1           0       -8.952598   -2.610547   -1.461956
     70          1           0       -1.300461   -1.207906    1.719639
     71          1           0       -0.767811    1.238699    0.293173
     72          1           0       -1.876771    1.751489    2.909021
     73          1           0       -0.262751    2.112279    2.256080
     74          1           0       -0.755566    0.549877    3.009251
     75          1           0        0.012011   -0.228467   -0.857365
     76          1           0       -0.995815   -1.601431   -1.068610
     77          1           0        0.422876   -3.072814   -0.533487
     78          1           0        0.837535   -2.230578    0.960771
     79          1           0       -4.005958    5.884326    2.293989
     80          1           0       -4.193882    6.598474    0.671917
     81          1           0       -2.928675    5.390865    0.923832
     82          1           0       -6.237924    7.529575    0.266047
     83          1           0       -6.102380    6.972549    2.018066
     84          1           0       -7.557325    7.695043    1.279041
     85          1           0      -10.737689    1.735878   -0.928501
     86          1           0      -10.744040   -1.049870   -0.744271
     87          1           0      -11.085799   -0.116945    1.284057
     88          1           0      -11.749987    1.438661    0.872582
     89          1           0      -10.321561    1.366296    1.924901
     90          1           0      -11.204584    0.397585   -2.922925
     91          1           0      -10.601759   -1.249462   -2.891295
     92          1           0       -8.641893   -0.667146   -3.752138
     93          1           0       -8.552921    0.906621   -2.903185
     94          1           0       -9.496782    0.745534   -4.425113
     95          1           0       -8.200449   -4.805259   -1.933211
     96          1           0       -7.565233   -5.471776   -0.436642
     97          1           0       -6.703770   -5.808887   -1.900135
     98          1           0       -1.923110   -3.885733   -0.478444
     99          1           0       -0.678897   -5.307491    3.526654
    100          1           0       -1.107005   -3.639867    3.762552
    101          1           0        0.452115   -3.983785    3.202272
    102          1           0        4.339126   -2.207225   -1.633876
    103          1           0        4.788223   -3.459617   -0.445566
    104          1           0        4.575907   -0.858852    0.826531
    105          1           0        6.822271   -2.209074   -1.636182
    106          1           0        8.112321   -2.292479   -0.273586
    107          1           0        7.962300   -0.860092   -1.428408
    108          1           0        7.728065   -0.141290    1.355978
    109          1           0        6.116159    0.574715    1.290205
    110          1           0        6.935203    2.243811    0.157555
    111          1           0        7.152254    1.181090   -1.281946
    112          1           0        9.356873    0.595445   -0.004256
    113          1           0        9.071269    2.142361    0.733072
    114          1           0       10.227384    2.889267   -0.985443
    115          1           0        8.801732    4.509079   -1.509323
    116          1           0        7.326322    3.458361   -1.784123
    117          1           0        8.490293    3.721011   -2.992071
    118          1           0        8.945160    1.453694   -3.421694
    119          1           0        9.806459    0.386121   -2.389756
    120          1           0       11.488130    2.814569   -2.821344
    121          1           0       11.090693    2.079127   -4.292967
    122          1           0       12.985122    0.980611   -3.797571
    123          1           0       11.889189   -0.149568   -3.030322
    124          1           0       12.226506    1.829114   -1.022579
    125          1           0       14.329088    2.490708   -2.374528
    126          1           0       14.888272    0.812790   -2.191385
    127          1           0       14.835679    1.944623   -0.814000
    128          1           0       13.247498   -1.026226   -1.331455
    129          1           0       11.746188   -0.533360   -0.717159
    130          1           0       13.489317    0.922908    1.012946
    131          1           0       14.392400   -0.505848    0.491137
    132          1           0       13.344813   -1.251368    2.441500
    133          1           0       11.976066   -1.612858    1.400907
    134          1           0       11.631488    1.136460    2.146259
    135          1           0       11.798862    0.763778    4.836953
    136          1           0       13.351286    0.911203    4.007598
    137          1           0       12.767544   -0.673058    4.419190
    138          1           0       10.275228   -1.408074    3.416117
    139          1           0        9.940501   -0.819170    1.806658
    140          1           0        9.696588    0.280020    3.172419
 ---------------------------------------------------------------------

 SCF Done:  E(RPBE1PBE) =  -3005.34944263     A.U. after   16 cycles

 Excitation energies and oscillator strengths:

 Excited State   1:      Singlet-A      1.8018 eV  688.10 nm  f=0.3679  <S**2>=0.000
     245 -> 248        0.15853
     246 -> 247        0.69553
     246 <- 247       -0.11811
 This state for optimization and/or second-order correction.
 Total Energy, E(TD-HF/TD-DFT) =  -3005.28322672
 Copying the excited state density for this state as the 1-particle RhoCI density.

 Excited State   2:      Singlet-A      2.1787 eV  569.08 nm  f=0.1133  <S**2>=0.000
     245 -> 247        0.65260
     246 -> 248       -0.23497

 Excited State   3:      Singlet-A      2.7203 eV  455.77 nm  f=0.0115  <S**2>=0.000
     243 -> 247        0.69300

 Excited State   4:      Singlet-A      2.9192 eV  424.72 nm  f=0.0002  <S**2>=0.000
     240 -> 247       -0.17356
     241 -> 247        0.65426
     241 -> 248       -0.10449
     241 -> 249        0.12729

 Excited State   5:      Singlet-A      2.9403 eV  421.67 nm  f=0.0003  <S**2>=0.000
     242 -> 247        0.68688
     242 -> 249       -0.11576
     242 -> 250       -0.10133

 The electronic state is 1-A.
 Alpha  occ. eigenvalues --  -46.91535 -19.26472 -19.25034 -19.20441 -19.20196
 Alpha  occ. eigenvalues --  -19.19054 -19.18795 -14.41816 -14.41441 -14.40097
 Alpha  occ. eigenvalues --  -14.38500 -10.36806 -10.36599 -10.31841 -10.30892
 Alpha  occ. eigenvalues --  -10.29244 -10.29203 -10.29116 -10.29025 -10.28967
 Alpha  occ. eigenvalues --  -10.28959 -10.28955 -10.28682 -10.28312 -10.26830
 Alpha  occ. eigenvalues --  -10.26589 -10.26481 -10.26373 -10.26149 -10.26059
 Alpha  occ. eigenvalues --  -10.25986 -10.25573 -10.25501 -10.25326 -10.25297
 Alpha  occ. eigenvalues --  -10.25125 -10.24838 -10.24443 -10.24336 -10.24240
 Alpha  occ. eigenvalues --  -10.24181 -10.23937 -10.23436 -10.23413 -10.23396
 Alpha  occ. eigenvalues --  -10.23345 -10.23345 -10.23195 -10.23122 -10.23103
 Alpha  occ. eigenvalues --  -10.22826 -10.22505 -10.22479 -10.22461 -10.22413
 Alpha  occ. eigenvalues --  -10.22351 -10.22235 -10.22223 -10.22204 -10.22169
 Alpha  occ. eigenvalues --  -10.22110 -10.21960 -10.21937 -10.21936 -10.21922
 Alpha  occ. eigenvalues --  -10.21898  -3.13749  -1.86558  -1.86138  -1.85980
 Alpha  occ. eigenvalues --   -1.11065  -1.11040  -1.06153  -1.05386  -1.02899
 Alpha  occ. eigenvalues --   -1.02469  -0.98235  -0.97057  -0.96395  -0.95326
 Alpha  occ. eigenvalues --   -0.86833  -0.84743  -0.84074  -0.83677  -0.83471
 Alpha  occ. eigenvalues --   -0.82857  -0.82632  -0.82181  -0.81087  -0.81045
 Alpha  occ. eigenvalues --   -0.80806  -0.80232  -0.78552  -0.78199  -0.77677
 Alpha  occ. eigenvalues --   -0.76541  -0.76066  -0.75798  -0.75089  -0.74428
 Alpha  occ. eigenvalues --   -0.73369  -0.72918  -0.72475  -0.71612  -0.70694
 Alpha  occ. eigenvalues --   -0.70300  -0.69562  -0.69405  -0.68715  -0.68199
 Alpha  occ. eigenvalues --   -0.67480  -0.67142  -0.66304  -0.64793  -0.63998
 Alpha  occ. eigenvalues --   -0.63603  -0.62749  -0.62567  -0.61523  -0.60119
 Alpha  occ. eigenvalues --   -0.59839  -0.59211  -0.58842  -0.58769  -0.57664
 Alpha  occ. eigenvalues --   -0.57348  -0.57180  -0.57098  -0.56435  -0.54738
 Alpha  occ. eigenvalues --   -0.53977  -0.53695  -0.53552  -0.53235  -0.52653
 Alpha  occ. eigenvalues --   -0.52489  -0.52071  -0.50748  -0.50176  -0.49905
 Alpha  occ. eigenvalues --   -0.49733  -0.49510  -0.49383  -0.49126  -0.49018
 Alpha  occ. eigenvalues --   -0.48439  -0.48184  -0.47595  -0.47343  -0.47242
 Alpha  occ. eigenvalues --   -0.47008  -0.46939  -0.46757  -0.46613  -0.46501
 Alpha  occ. eigenvalues --   -0.46408  -0.45926  -0.45563  -0.45478  -0.45349
 Alpha  occ. eigenvalues --   -0.44931  -0.44816  -0.44516  -0.44289  -0.44238
 Alpha  occ. eigenvalues --   -0.44103  -0.43959  -0.43928  -0.43532  -0.43492
 Alpha  occ. eigenvalues --   -0.43065  -0.42842  -0.42687  -0.42553  -0.42513
 Alpha  occ. eigenvalues --   -0.42329  -0.42142  -0.41955  -0.41546  -0.41152
 Alpha  occ. eigenvalues --   -0.41080  -0.40904  -0.40781  -0.40646  -0.40323
 Alpha  occ. eigenvalues --   -0.40248  -0.40184  -0.39738  -0.39562  -0.39514
 Alpha  occ. eigenvalues --   -0.39124  -0.38756  -0.38715  -0.38511  -0.38238
 Alpha  occ. eigenvalues --   -0.38156  -0.38028  -0.37927  -0.37852  -0.37720
 Alpha  occ. eigenvalues --   -0.37567  -0.37294  -0.37202  -0.37058  -0.36970
 Alpha  occ. eigenvalues --   -0.36804  -0.36626  -0.36478  -0.36316  -0.36232
 Alpha  occ. eigenvalues --   -0.36021  -0.35980  -0.35499  -0.35175  -0.35007
 Alpha  occ. eigenvalues --   -0.34646  -0.34348  -0.34244  -0.34062  -0.34007
 Alpha  occ. eigenvalues --   -0.33608  -0.33320  -0.32922  -0.32808  -0.32532
 Alpha  occ. eigenvalues --   -0.32465  -0.31961  -0.31925  -0.31593  -0.31395
 Alpha  occ. eigenvalues --   -0.30826  -0.30559  -0.29743  -0.29418  -0.29286
 Alpha  occ. eigenvalues --   -0.29135  -0.28999  -0.28635  -0.27167  -0.26058
 Alpha  occ. eigenvalues --   -0.25730  -0.25654  -0.24557  -0.24165  -0.21371
 Alpha  occ. eigenvalues --   -0.19065
 Alpha virt. eigenvalues --   -0.11768  -0.05685  -0.04129  -0.02250  -0.00360
 Alpha virt. eigenvalues --   -0.00031   0.00243   0.00502   0.02525   0.03316
 Alpha virt. eigenvalues --    0.04395   0.04595   0.04873   0.05164   0.05442

 Mulliken charges:
               1
     1  Mg   0.967518
     2  C   -0.064454
     3  C   -0.089373
     4  C   -0.053383
     5  C   -0.108179
     6  N   -0.390046
     7  C    0.017347
     8  C   -0.109490
     9  C   -0.089918
    10  C    0.092290
    11  C    0.019001
    12  C    0.027556
    13  C   -0.022834
    14  C    0.217667
    15  O   -0.263819
    16  O   -0.369222
    17  N   -0.528150
    18  C    0.198614
    19  C   -0.159709
    20  C   -0.037363
    21  C    0.185856
    22  C    0.041742
    23  C   -0.014294
    24  O   -0.219599
    25  C   -0.055113
    26  N   -0.454211
    27  C    0.064150
    28  C   -0.088320
    29  C   -0.083489
    30  C    0.072884
    31  C    0.024561
    32  C   -0.060745
    33  C   -0.087897
    34  N   -0.486943
    35  C    0.234032
    36  C   -0.164270
    37  C   -0.054168
    38  C    0.209989
    39  C    0.073425
    40  C    0.127625
    41  O   -0.192687
    42  C   -0.123463
    43  C    0.297432
    44  O   -0.244684
    45  O   -0.369576
    46  C    0.120574
    47  C    0.235492
    48  C   -0.158499
    49  C   -0.252208
    50  C    0.047841
    51  C    0.049494
    52  C   -0.094685
    53  C   -0.044625
    54  C   -0.203248
    55  C   -0.014943
    56  C   -0.003495
    57  C   -0.075445
    58  C   -0.013462
    59  C   -0.226400
    60  C   -0.007312
    61  C   -0.006429
    62  C   -0.036622
    63  C    0.014879
    64  C   -0.246646
    65  C   -0.054025
    66  C   -0.045323
    67  H   -0.001758
    68  H    0.031012
    69  H   -0.001904
    70  H    0.059536
    71  H    0.043554
    72  H    0.041047
    73  H    0.048327
    74  H    0.031505
    75  H    0.053943
    76  H    0.038234
    77  H    0.081976
    78  H    0.065711
    79  H    0.076040
    80  H    0.062155
    81  H    0.053500
    82  H    0.065944
    83  H    0.063644
    84  H    0.038454
    85  H    0.042844
    86  H    0.036186
    87  H    0.042755
    88  H    0.041453
    89  H    0.065124
    90  H    0.046278
    91  H    0.035155
    92  H    0.046578
    93  H    0.063729
    94  H    0.048298
    95  H    0.037575
    96  H    0.065026
    97  H    0.062282
    98  H    0.070088
    99  H    0.067630
   100  H    0.045676
   101  H    0.052358
   102  H    0.066449
   103  H    0.049805
   104  H    0.023073
   105  H    0.038034
   106  H    0.063670
   107  H    0.046062
   108  H    0.031293
   109  H    0.015305
   110  H    0.043102
   111  H    0.052662
   112  H    0.043810
   113  H    0.023937
   114  H    0.040397
   115  H    0.034169
   116  H    0.050415
   117  H    0.029878
   118  H    0.035399
   119  H    0.038904
   120  H    0.029204
   121  H    0.016878
   122  H    0.025991
   123  H    0.020152
   124  H    0.040957
   125  H    0.035247
   126  H    0.035479
   127  H    0.033873
   128  H    0.025702
   129  H    0.021530
   130  H    0.035029
   131  H    0.028973
   132  H    0.019757
   133  H    0.020712
   134  H    0.044844
   135  H    0.039236
   136  H    0.037420
   137  H    0.039286
   138  H    0.042866
   139  H    0.045997
   140  H    0.043343
 Sum of Mulliken charges =  -0.00000

 Dipole moment (field-independent basis, Debye):
    X=              2.2580    Y=              3.5238    Z=             -0.5242  Tot=              4.2179
 Quadrupole moment (field-independent basis, Debye-Ang):
   XX=           -377.0696   YY=           -418.2988   ZZ=           -400.2497
   XY=              3.6483   XZ=             23.8295   YZ=              4.8595

 Normal termination of Gaussian 16 at Thu May  5 13:01:26 2022.
