 Gaussian 16, Revision A.03,
 Gaussian 16:  ES64L-G16RevA.03 25-Dec-2016

 --------------------------------
 #p wB97XD/Def2SVP td=(nstates=5)
 --------------------------------

 ----------------------------------------------------
 step_901_chromophore_13 TDDFT with wB97XD functional
 ----------------------------------------------------
 Symbolic Z-matrix:
 Charge =  0 Multiplicity = 1

                         Standard orientation:
 ---------------------------------------------------------------------
 Center     Atomic      Atomic             Coordinates (Angstroms)
 Number     Number       Type             X           Y           Z
 ---------------------------------------------------------------------
      1         12           0       -5.861106    0.421414   -0.324924
      2          6           0       -3.416473   -2.276422    0.073202
      3          6           0       -3.352111    2.589961    0.625552
      4          6           0       -8.192466    2.732002    0.155995
      5          6           0       -8.179505   -2.000831   -0.988846
      6          7           0       -3.696955    0.130271    0.430997
      7          6           0       -2.884736   -1.005658    0.316232
      8          6           0       -1.416780   -0.679152    0.773635
      9          6           0       -1.501947    0.848865    0.997794
     10          6           0       -2.890075    1.286416    0.600482
     11          6           0       -1.042649    1.353563    2.330823
     12          6           0       -0.385119   -1.091563   -0.324598
     13          6           0        0.701040   -2.106043   -0.113179
     14          6           0        2.061691   -1.799977   -0.705304
     15          8           0        2.342283   -1.012230   -1.607015
     16          8           0        3.075600   -2.429595    0.012679
     17          7           0       -5.765492    2.395302    0.205401
     18          6           0       -4.623004    3.131862    0.525077
     19          6           0       -4.994487    4.575030    0.837653
     20          6           0       -6.465992    4.631218    0.621044
     21          6           0       -6.906131    3.215956    0.340866
     22          6           0       -3.931346    5.695971    1.223189
     23          6           0       -7.360853    5.705361    0.812535
     24          8           0       -8.557079    5.640656    0.847482
     25          6           0       -6.708692    7.032012    1.114086
     26          7           0       -7.896912    0.308762   -0.210347
     27          6           0       -8.692537    1.463429   -0.118507
     28          6           0      -10.156662    1.029921   -0.336052
     29          6           0      -10.043735   -0.286282   -1.081334
     30          6           0       -8.595489   -0.726327   -0.781786
     31          6           0      -10.813272    0.914973    1.062563
     32          6           0      -10.377691   -0.227681   -2.584532
     33          6           0       -9.178622    0.249810   -3.507363
     34          7           0       -5.885270   -1.669305   -0.595765
     35          6           0       -6.963340   -2.490811   -0.842973
     36          6           0       -6.483822   -3.830588   -1.027035
     37          6           0       -5.076931   -3.799622   -0.621244
     38          6           0       -4.801652   -2.495485   -0.357204
     39          6           0       -7.280559   -5.035598   -1.394185
     40          6           0       -3.998617   -4.653506   -0.303427
     41          8           0       -3.848294   -5.846055   -0.353133
     42          6           0       -2.780099   -3.689988    0.166760
     43          6           0       -2.426577   -3.912219    1.599927
     44          8           0       -3.251226   -4.010640    2.498163
     45          8           0       -1.059877   -4.103614    1.737289
     46          6           0       -0.580162   -4.314918    3.087522
     47          6           0        4.374308   -2.459624   -0.574458
     48          6           0        5.222224   -1.465048    0.191666
     49          6           0        6.502968   -1.091752    0.047179
     50          6           0        7.475323   -1.697894   -0.929884
     51          6           0        6.938037    0.195890    0.683860
     52          6           0        7.397225    1.336142   -0.231073
     53          6           0        8.897348    1.568342   -0.177493
     54          6           0        9.346281    2.402906   -1.405201
     55          6           0        8.402085    3.579290   -1.914754
     56          6           0        9.702515    1.442280   -2.637816
     57          6           0       11.116699    1.870901   -3.223277
     58          6           0       12.289459    0.862172   -2.965757
     59          6           0       12.881166    1.104660   -1.505528
     60          6           0       14.324674    1.618276   -1.720411
     61          6           0       12.792128   -0.228952   -0.743484
     62          6           0       13.393584   -0.096611    0.639353
     63          6           0       12.617607   -0.808285    1.761132
     64          6           0       11.722532    0.149188    2.599025
     65          6           0       12.443860    0.311974    4.083399
     66          6           0       10.323556   -0.522722    2.782363
     67          1           0       -2.541241    3.308481    0.763019
     68          1           0       -8.988309    3.453810    0.351023
     69          1           0       -8.952598   -2.610547   -1.461956
     70          1           0       -1.300461   -1.207906    1.719639
     71          1           0       -0.767811    1.238699    0.293173
     72          1           0       -1.876771    1.751489    2.909021
     73          1           0       -0.262751    2.112279    2.256080
     74          1           0       -0.755566    0.549877    3.009251
     75          1           0        0.012011   -0.228467   -0.857365
     76          1           0       -0.995815   -1.601431   -1.068610
     77          1           0        0.422876   -3.072814   -0.533487
     78          1           0        0.837535   -2.230578    0.960771
     79          1           0       -4.005958    5.884326    2.293989
     80          1           0       -4.193882    6.598474    0.671917
     81          1           0       -2.928675    5.390865    0.923832
     82          1           0       -6.237924    7.529575    0.266047
     83          1           0       -6.102380    6.972549    2.018066
     84          1           0       -7.557325    7.695043    1.279041
     85          1           0      -10.737689    1.735878   -0.928501
     86          1           0      -10.744040   -1.049870   -0.744271
     87          1           0      -11.085799   -0.116945    1.284057
     88          1           0      -11.749987    1.438661    0.872582
     89          1           0      -10.321561    1.366296    1.924901
     90          1           0      -11.204584    0.397585   -2.922925
     91          1           0      -10.601759   -1.249462   -2.891295
     92          1           0       -8.641893   -0.667146   -3.752138
     93          1           0       -8.552921    0.906621   -2.903185
     94          1           0       -9.496782    0.745534   -4.425113
     95          1           0       -8.200449   -4.805259   -1.933211
     96          1           0       -7.565233   -5.471776   -0.436642
     97          1           0       -6.703770   -5.808887   -1.900135
     98          1           0       -1.923110   -3.885733   -0.478444
     99          1           0       -0.678897   -5.307491    3.526654
    100          1           0       -1.107005   -3.639867    3.762552
    101          1           0        0.452115   -3.983785    3.202272
    102          1           0        4.339126   -2.207225   -1.633876
    103          1           0        4.788223   -3.459617   -0.445566
    104          1           0        4.575907   -0.858852    0.826531
    105          1           0        6.822271   -2.209074   -1.636182
    106          1           0        8.112321   -2.292479   -0.273586
    107          1           0        7.962300   -0.860092   -1.428408
    108          1           0        7.728065   -0.141290    1.355978
    109          1           0        6.116159    0.574715    1.290205
    110          1           0        6.935203    2.243811    0.157555
    111          1           0        7.152254    1.181090   -1.281946
    112          1           0        9.356873    0.595445   -0.004256
    113          1           0        9.071269    2.142361    0.733072
    114          1           0       10.227384    2.889267   -0.985443
    115          1           0        8.801732    4.509079   -1.509323
    116          1           0        7.326322    3.458361   -1.784123
    117          1           0        8.490293    3.721011   -2.992071
    118          1           0        8.945160    1.453694   -3.421694
    119          1           0        9.806459    0.386121   -2.389756
    120          1           0       11.488130    2.814569   -2.821344
    121          1           0       11.090693    2.079127   -4.292967
    122          1           0       12.985122    0.980611   -3.797571
    123          1           0       11.889189   -0.149568   -3.030322
    124          1           0       12.226506    1.829114   -1.022579
    125          1           0       14.329088    2.490708   -2.374528
    126          1           0       14.888272    0.812790   -2.191385
    127          1           0       14.835679    1.944623   -0.814000
    128          1           0       13.247498   -1.026226   -1.331455
    129          1           0       11.746188   -0.533360   -0.717159
    130          1           0       13.489317    0.922908    1.012946
    131          1           0       14.392400   -0.505848    0.491137
    132          1           0       13.344813   -1.251368    2.441500
    133          1           0       11.976066   -1.612858    1.400907
    134          1           0       11.631488    1.136460    2.146259
    135          1           0       11.798862    0.763778    4.836953
    136          1           0       13.351286    0.911203    4.007598
    137          1           0       12.767544   -0.673058    4.419190
    138          1           0       10.275228   -1.408074    3.416117
    139          1           0        9.940501   -0.819170    1.806658
    140          1           0        9.696588    0.280020    3.172419
 ---------------------------------------------------------------------

 SCF Done:  E(RwB97XD) =  -3007.86582646     A.U. after   20 cycles

 Excitation energies and oscillator strengths:

 Excited State   1:      Singlet-A      1.5893 eV  780.12 nm  f=0.3827  <S**2>=0.000
     245 -> 248       -0.17107
     246 -> 247        0.68519
     245 <- 248       -0.11348
 This state for optimization and/or second-order correction.
 Total Energy, E(TD-HF/TD-DFT) =  -3007.80742065
 Copying the excited state density for this state as the 1-particle RhoCI density.

 Excited State   2:      Singlet-A      2.1158 eV  586.00 nm  f=0.1158  <S**2>=0.000
     245 -> 247        0.63991
     246 -> 248        0.27122

 Excited State   3:      Singlet-A      3.0749 eV  403.21 nm  f=0.0068  <S**2>=0.000
     244 -> 247        0.67578

 Excited State   4:      Singlet-A      3.4126 eV  363.31 nm  f=0.1016  <S**2>=0.000
     241 -> 247        0.51767
     242 -> 247        0.17016
     245 -> 247        0.10273
     246 -> 248       -0.38421

 Excited State   5:      Singlet-A      3.4965 eV  354.59 nm  f=0.0538  <S**2>=0.000
     239 -> 247        0.12661
     240 -> 247        0.53069
     240 -> 248       -0.17256
     240 -> 249        0.28509
     240 -> 250       -0.11443
     246 -> 248        0.19740

 The electronic state is 1-A.
 Alpha  occ. eigenvalues --  -46.94463 -19.31030 -19.29577 -19.25105 -19.24874
 Alpha  occ. eigenvalues --  -19.23793 -19.23681 -14.46886 -14.46508 -14.45140
 Alpha  occ. eigenvalues --  -14.43256 -10.43578 -10.43385 -10.38555 -10.37943
 Alpha  occ. eigenvalues --  -10.35748 -10.35653 -10.35623 -10.35594 -10.35506
 Alpha  occ. eigenvalues --  -10.35452 -10.35364 -10.35151 -10.34366 -10.32955
 Alpha  occ. eigenvalues --  -10.32768 -10.32720 -10.32705 -10.32460 -10.32401
 Alpha  occ. eigenvalues --  -10.32221 -10.32128 -10.31806 -10.31621 -10.31550
 Alpha  occ. eigenvalues --  -10.31441 -10.31339 -10.30712 -10.30604 -10.30523
 Alpha  occ. eigenvalues --  -10.30469 -10.30419 -10.29876 -10.29739 -10.29683
 Alpha  occ. eigenvalues --  -10.29664 -10.29633 -10.29550 -10.29545 -10.29479
 Alpha  occ. eigenvalues --  -10.29192 -10.29152 -10.28924 -10.28908 -10.28694
 Alpha  occ. eigenvalues --  -10.28655 -10.28617 -10.28606 -10.28549 -10.28529
 Alpha  occ. eigenvalues --  -10.28446 -10.28378 -10.28350 -10.28321 -10.28294
 Alpha  occ. eigenvalues --  -10.28286  -3.20531  -1.94088  -1.93672  -1.93512
 Alpha  occ. eigenvalues --   -1.18441  -1.18406  -1.13806  -1.12687  -1.10240
 Alpha  occ. eigenvalues --   -1.09806  -1.05512  -1.04368  -1.03882  -1.02825
 Alpha  occ. eigenvalues --   -0.94333  -0.92416  -0.91698  -0.91356  -0.91056
 Alpha  occ. eigenvalues --   -0.90420  -0.90229  -0.89853  -0.89009  -0.88746
 Alpha  occ. eigenvalues --   -0.88429  -0.87705  -0.86129  -0.85846  -0.85328
 Alpha  occ. eigenvalues --   -0.84194  -0.83734  -0.83500  -0.82800  -0.82080
 Alpha  occ. eigenvalues --   -0.81043  -0.80757  -0.80077  -0.79188  -0.78289
 Alpha  occ. eigenvalues --   -0.77984  -0.77144  -0.77124  -0.76409  -0.75866
 Alpha  occ. eigenvalues --   -0.75060  -0.74644  -0.73848  -0.72433  -0.71515
 Alpha  occ. eigenvalues --   -0.71181  -0.70325  -0.70218  -0.69164  -0.67617
 Alpha  occ. eigenvalues --   -0.67291  -0.66641  -0.66420  -0.66269  -0.65347
 Alpha  occ. eigenvalues --   -0.64980  -0.64631  -0.64518  -0.64052  -0.62302
 Alpha  occ. eigenvalues --   -0.61423  -0.61145  -0.60926  -0.60545  -0.60069
 Alpha  occ. eigenvalues --   -0.59992  -0.59450  -0.58142  -0.57667  -0.57297
 Alpha  occ. eigenvalues --   -0.57150  -0.56963  -0.56806  -0.56567  -0.56367
 Alpha  occ. eigenvalues --   -0.55959  -0.55412  -0.55167  -0.54845  -0.54604
 Alpha  occ. eigenvalues --   -0.54462  -0.54295  -0.54178  -0.53991  -0.53797
 Alpha  occ. eigenvalues --   -0.53680  -0.53312  -0.52900  -0.52831  -0.52689
 Alpha  occ. eigenvalues --   -0.52425  -0.52167  -0.51879  -0.51810  -0.51525
 Alpha  occ. eigenvalues --   -0.51399  -0.51288  -0.51240  -0.50852  -0.50781
 Alpha  occ. eigenvalues --   -0.50298  -0.50173  -0.49950  -0.49915  -0.49840
 Alpha  occ. eigenvalues --   -0.49657  -0.49440  -0.49201  -0.48701  -0.48316
 Alpha  occ. eigenvalues --   -0.48235  -0.48035  -0.47957  -0.47842  -0.47596
 Alpha  occ. eigenvalues --   -0.47466  -0.47226  -0.46889  -0.46791  -0.46685
 Alpha  occ. eigenvalues --   -0.46341  -0.45908  -0.45870  -0.45665  -0.45506
 Alpha  occ. eigenvalues --   -0.45336  -0.45184  -0.45117  -0.44909  -0.44731
 Alpha  occ. eigenvalues --   -0.44709  -0.44494  -0.44405  -0.44297  -0.44125
 Alpha  occ. eigenvalues --   -0.43930  -0.43715  -0.43598  -0.43338  -0.43253
 Alpha  occ. eigenvalues --   -0.43115  -0.43055  -0.42461  -0.42231  -0.42001
 Alpha  occ. eigenvalues --   -0.41717  -0.41298  -0.41289  -0.41128  -0.41007
 Alpha  occ. eigenvalues --   -0.40575  -0.40338  -0.39858  -0.39850  -0.39548
 Alpha  occ. eigenvalues --   -0.39473  -0.38993  -0.38957  -0.38576  -0.38261
 Alpha  occ. eigenvalues --   -0.37759  -0.37529  -0.36656  -0.36332  -0.36239
 Alpha  occ. eigenvalues --   -0.35953  -0.35875  -0.35524  -0.33757  -0.33141
 Alpha  occ. eigenvalues --   -0.32692  -0.32567  -0.30923  -0.30856  -0.26388
 Alpha  occ. eigenvalues --   -0.23209
 Alpha virt. eigenvalues --   -0.07702  -0.00203   0.01996   0.04328   0.05495
 Alpha virt. eigenvalues --    0.06796   0.07097   0.07350   0.09214   0.09938
 Alpha virt. eigenvalues --    0.11049   0.11153   0.11604   0.11747   0.12075

 Mulliken charges:
               1
     1  Mg   0.955071
     2  C   -0.069139
     3  C   -0.104127
     4  C   -0.069320
     5  C   -0.124675
     6  N   -0.361752
     7  C   -0.007581
     8  C   -0.081756
     9  C   -0.065035
    10  C    0.083190
    11  C    0.027543
    12  C    0.039675
    13  C   -0.004943
    14  C    0.207002
    15  O   -0.260928
    16  O   -0.367917
    17  N   -0.500105
    18  C    0.195699
    19  C   -0.157209
    20  C   -0.030886
    21  C    0.179401
    22  C    0.058532
    23  C   -0.015289
    24  O   -0.212122
    25  C   -0.042559
    26  N   -0.424863
    27  C    0.056843
    28  C   -0.063169
    29  C   -0.054329
    30  C    0.058597
    31  C    0.029814
    32  C   -0.053369
    33  C   -0.061796
    34  N   -0.452026
    35  C    0.228504
    36  C   -0.165077
    37  C   -0.049386
    38  C    0.191569
    39  C    0.082842
    40  C    0.109714
    41  O   -0.184732
    42  C   -0.082839
    43  C    0.273609
    44  O   -0.239778
    45  O   -0.366863
    46  C    0.135054
    47  C    0.248993
    48  C   -0.168667
    49  C   -0.239082
    50  C    0.073295
    51  C    0.077672
    52  C   -0.073414
    53  C   -0.016697
    54  C   -0.168321
    55  C   -0.005463
    56  C    0.008927
    57  C   -0.051799
    58  C   -0.002117
    59  C   -0.187687
    60  C    0.005185
    61  C    0.010623
    62  C   -0.015855
    63  C    0.028121
    64  C   -0.218669
    65  C   -0.038989
    66  C   -0.026074
    67  H   -0.010194
    68  H    0.027205
    69  H   -0.008793
    70  H    0.043470
    71  H    0.032472
    72  H    0.033776
    73  H    0.044334
    74  H    0.026701
    75  H    0.046787
    76  H    0.027045
    77  H    0.075568
    78  H    0.056938
    79  H    0.072712
    80  H    0.056403
    81  H    0.050663
    82  H    0.062270
    83  H    0.057317
    84  H    0.036977
    85  H    0.034518
    86  H    0.026567
    87  H    0.037467
    88  H    0.035787
    89  H    0.059865
    90  H    0.038891
    91  H    0.027286
    92  H    0.038609
    93  H    0.047743
    94  H    0.043798
    95  H    0.031407
    96  H    0.058562
    97  H    0.058122
    98  H    0.061968
    99  H    0.064450
   100  H    0.040687
   101  H    0.048958
   102  H    0.061383
   103  H    0.045645
   104  H    0.017576
   105  H    0.032015
   106  H    0.058392
   107  H    0.029649
   108  H    0.012077
   109  H    0.009063
   110  H    0.034418
   111  H    0.039238
   112  H    0.016038
   113  H    0.015245
   114  H    0.027409
   115  H    0.029335
   116  H    0.044575
   117  H    0.023260
   118  H    0.028744
   119  H    0.024373
   120  H    0.015602
   121  H    0.010265
   122  H    0.019061
   123  H    0.010378
   124  H    0.019188
   125  H    0.028531
   126  H    0.028171
   127  H    0.028225
   128  H    0.017823
   129  H    0.004796
   130  H    0.022321
   131  H    0.021648
   132  H    0.011454
   133  H    0.012016
   134  H    0.033170
   135  H    0.033889
   136  H    0.030986
   137  H    0.031223
   138  H    0.038244
   139  H    0.032367
   140  H    0.036792
 Sum of Mulliken charges =  -0.00000

 Dipole moment (field-independent basis, Debye):
    X=              2.3538    Y=              4.1449    Z=             -0.3967  Tot=              4.7831
 Quadrupole moment (field-independent basis, Debye-Ang):
   XX=           -378.5214   YY=           -416.0417   ZZ=           -399.8449
   XY=             -0.3104   XZ=             23.2051   YZ=              5.1180

 Normal termination of Gaussian 16 at Thu May  5 13:49:22 2022.
