 Gaussian 16, Revision A.03,
 Gaussian 16:  ES64L-G16RevA.03 25-Dec-2016

 --------------------
 #p ZINDO=(nstates=5)
 --------------------

 -----------------------------
 step_901_chromophore_13 ZINDO
 -----------------------------
 Symbolic Z-matrix:
 Charge =  0 Multiplicity = 1

                         Standard orientation:
 ---------------------------------------------------------------------
 Center     Atomic      Atomic             Coordinates (Angstroms)
 Number     Number       Type             X           Y           Z
 ---------------------------------------------------------------------
      1         12           0       -5.861106    0.421414   -0.324924
      2          6           0       -3.416473   -2.276422    0.073202
      3          6           0       -3.352111    2.589961    0.625552
      4          6           0       -8.192466    2.732002    0.155995
      5          6           0       -8.179505   -2.000831   -0.988846
      6          7           0       -3.696955    0.130271    0.430997
      7          6           0       -2.884736   -1.005658    0.316232
      8          6           0       -1.416780   -0.679152    0.773635
      9          6           0       -1.501947    0.848865    0.997794
     10          6           0       -2.890075    1.286416    0.600482
     11          6           0       -1.042649    1.353563    2.330823
     12          6           0       -0.385119   -1.091563   -0.324598
     13          6           0        0.701040   -2.106043   -0.113179
     14          6           0        2.061691   -1.799977   -0.705304
     15          8           0        2.342283   -1.012230   -1.607015
     16          8           0        3.075600   -2.429595    0.012679
     17          7           0       -5.765492    2.395302    0.205401
     18          6           0       -4.623004    3.131862    0.525077
     19          6           0       -4.994487    4.575030    0.837653
     20          6           0       -6.465992    4.631218    0.621044
     21          6           0       -6.906131    3.215956    0.340866
     22          6           0       -3.931346    5.695971    1.223189
     23          6           0       -7.360853    5.705361    0.812535
     24          8           0       -8.557079    5.640656    0.847482
     25          6           0       -6.708692    7.032012    1.114086
     26          7           0       -7.896912    0.308762   -0.210347
     27          6           0       -8.692537    1.463429   -0.118507
     28          6           0      -10.156662    1.029921   -0.336052
     29          6           0      -10.043735   -0.286282   -1.081334
     30          6           0       -8.595489   -0.726327   -0.781786
     31          6           0      -10.813272    0.914973    1.062563
     32          6           0      -10.377691   -0.227681   -2.584532
     33          6           0       -9.178622    0.249810   -3.507363
     34          7           0       -5.885270   -1.669305   -0.595765
     35          6           0       -6.963340   -2.490811   -0.842973
     36          6           0       -6.483822   -3.830588   -1.027035
     37          6           0       -5.076931   -3.799622   -0.621244
     38          6           0       -4.801652   -2.495485   -0.357204
     39          6           0       -7.280559   -5.035598   -1.394185
     40          6           0       -3.998617   -4.653506   -0.303427
     41          8           0       -3.848294   -5.846055   -0.353133
     42          6           0       -2.780099   -3.689988    0.166760
     43          6           0       -2.426577   -3.912219    1.599927
     44          8           0       -3.251226   -4.010640    2.498163
     45          8           0       -1.059877   -4.103614    1.737289
     46          6           0       -0.580162   -4.314918    3.087522
     47          6           0        4.374308   -2.459624   -0.574458
     48          6           0        5.222224   -1.465048    0.191666
     49          6           0        6.502968   -1.091752    0.047179
     50          6           0        7.475323   -1.697894   -0.929884
     51          6           0        6.938037    0.195890    0.683860
     52          6           0        7.397225    1.336142   -0.231073
     53          6           0        8.897348    1.568342   -0.177493
     54          6           0        9.346281    2.402906   -1.405201
     55          6           0        8.402085    3.579290   -1.914754
     56          6           0        9.702515    1.442280   -2.637816
     57          6           0       11.116699    1.870901   -3.223277
     58          6           0       12.289459    0.862172   -2.965757
     59          6           0       12.881166    1.104660   -1.505528
     60          6           0       14.324674    1.618276   -1.720411
     61          6           0       12.792128   -0.228952   -0.743484
     62          6           0       13.393584   -0.096611    0.639353
     63          6           0       12.617607   -0.808285    1.761132
     64          6           0       11.722532    0.149188    2.599025
     65          6           0       12.443860    0.311974    4.083399
     66          6           0       10.323556   -0.522722    2.782363
     67          1           0       -2.541241    3.308481    0.763019
     68          1           0       -8.988309    3.453810    0.351023
     69          1           0       -8.952598   -2.610547   -1.461956
     70          1           0       -1.300461   -1.207906    1.719639
     71          1           0       -0.767811    1.238699    0.293173
     72          1           0       -1.876771    1.751489    2.909021
     73          1           0       -0.262751    2.112279    2.256080
     74          1           0       -0.755566    0.549877    3.009251
     75          1           0        0.012011   -0.228467   -0.857365
     76          1           0       -0.995815   -1.601431   -1.068610
     77          1           0        0.422876   -3.072814   -0.533487
     78          1           0        0.837535   -2.230578    0.960771
     79          1           0       -4.005958    5.884326    2.293989
     80          1           0       -4.193882    6.598474    0.671917
     81          1           0       -2.928675    5.390865    0.923832
     82          1           0       -6.237924    7.529575    0.266047
     83          1           0       -6.102380    6.972549    2.018066
     84          1           0       -7.557325    7.695043    1.279041
     85          1           0      -10.737689    1.735878   -0.928501
     86          1           0      -10.744040   -1.049870   -0.744271
     87          1           0      -11.085799   -0.116945    1.284057
     88          1           0      -11.749987    1.438661    0.872582
     89          1           0      -10.321561    1.366296    1.924901
     90          1           0      -11.204584    0.397585   -2.922925
     91          1           0      -10.601759   -1.249462   -2.891295
     92          1           0       -8.641893   -0.667146   -3.752138
     93          1           0       -8.552921    0.906621   -2.903185
     94          1           0       -9.496782    0.745534   -4.425113
     95          1           0       -8.200449   -4.805259   -1.933211
     96          1           0       -7.565233   -5.471776   -0.436642
     97          1           0       -6.703770   -5.808887   -1.900135
     98          1           0       -1.923110   -3.885733   -0.478444
     99          1           0       -0.678897   -5.307491    3.526654
    100          1           0       -1.107005   -3.639867    3.762552
    101          1           0        0.452115   -3.983785    3.202272
    102          1           0        4.339126   -2.207225   -1.633876
    103          1           0        4.788223   -3.459617   -0.445566
    104          1           0        4.575907   -0.858852    0.826531
    105          1           0        6.822271   -2.209074   -1.636182
    106          1           0        8.112321   -2.292479   -0.273586
    107          1           0        7.962300   -0.860092   -1.428408
    108          1           0        7.728065   -0.141290    1.355978
    109          1           0        6.116159    0.574715    1.290205
    110          1           0        6.935203    2.243811    0.157555
    111          1           0        7.152254    1.181090   -1.281946
    112          1           0        9.356873    0.595445   -0.004256
    113          1           0        9.071269    2.142361    0.733072
    114          1           0       10.227384    2.889267   -0.985443
    115          1           0        8.801732    4.509079   -1.509323
    116          1           0        7.326322    3.458361   -1.784123
    117          1           0        8.490293    3.721011   -2.992071
    118          1           0        8.945160    1.453694   -3.421694
    119          1           0        9.806459    0.386121   -2.389756
    120          1           0       11.488130    2.814569   -2.821344
    121          1           0       11.090693    2.079127   -4.292967
    122          1           0       12.985122    0.980611   -3.797571
    123          1           0       11.889189   -0.149568   -3.030322
    124          1           0       12.226506    1.829114   -1.022579
    125          1           0       14.329088    2.490708   -2.374528
    126          1           0       14.888272    0.812790   -2.191385
    127          1           0       14.835679    1.944623   -0.814000
    128          1           0       13.247498   -1.026226   -1.331455
    129          1           0       11.746188   -0.533360   -0.717159
    130          1           0       13.489317    0.922908    1.012946
    131          1           0       14.392400   -0.505848    0.491137
    132          1           0       13.344813   -1.251368    2.441500
    133          1           0       11.976066   -1.612858    1.400907
    134          1           0       11.631488    1.136460    2.146259
    135          1           0       11.798862    0.763778    4.836953
    136          1           0       13.351286    0.911203    4.007598
    137          1           0       12.767544   -0.673058    4.419190
    138          1           0       10.275228   -1.408074    3.416117
    139          1           0        9.940501   -0.819170    1.806658
    140          1           0        9.696588    0.280020    3.172419
 ---------------------------------------------------------------------

 SCF Done:  E(RZINDO/S) =  -474.225027236     A.U. after   20 cycles

 Excitation energies and oscillator strengths:

 Excited State   1:      Singlet-A      1.2016 eV 1031.79 nm  f=0.6233  <S**2>=0.000
     175 ->178         0.17369
     176 ->177         0.66596
 This state for optimization and/or second-order correction.
 Total Energy, E(CIS/TDA) =  -474.180867546
 Copying the excited state density for this state as the 1-particle RhoCI density.

 Excited State   2:      Singlet-A      1.8828 eV  658.50 nm  f=0.0555  <S**2>=0.000
     175 ->177         0.55873
     176 ->178        -0.39895

 Excited State   3:      Singlet-A      2.8270 eV  438.58 nm  f=0.0344  <S**2>=0.000
     168 ->177         0.25064
     168 ->178        -0.11878
     168 ->179         0.26797
     168 ->180         0.10958
     168 ->186        -0.14811
     169 ->177         0.24520
     169 ->178        -0.12106
     169 ->179         0.26455
     169 ->180         0.11367
     169 ->186        -0.13818
     171 ->177        -0.13649
     176 ->178         0.14587
     176 ->179        -0.13169

 Excited State   4:      Singlet-A      2.9075 eV  426.43 nm  f=0.6746  <S**2>=0.000
     168 ->179        -0.12108
     169 ->177        -0.10170
     175 ->177         0.31229
     176 ->178         0.48404
     176 ->179        -0.28239

 Excited State   5:      Singlet-A      2.9818 eV  415.81 nm  f=0.0911  <S**2>=0.000
     172 ->177         0.18783
     174 ->177         0.55889
     176 ->178        -0.16635
     176 ->179        -0.26942

 The electronic state is 1-A.
 Alpha  occ. eigenvalues --   -1.83870  -1.79984  -1.77135  -1.74096  -1.71393
 Alpha  occ. eigenvalues --   -1.69207  -1.66267  -1.62025  -1.61193  -1.59017
 Alpha  occ. eigenvalues --   -1.55010  -1.51222  -1.48207  -1.48042  -1.45340
 Alpha  occ. eigenvalues --   -1.44164  -1.42730  -1.40237  -1.38213  -1.38153
 Alpha  occ. eigenvalues --   -1.36673  -1.33411  -1.32737  -1.31440  -1.29801
 Alpha  occ. eigenvalues --   -1.25403  -1.24965  -1.21929  -1.20106  -1.18019
 Alpha  occ. eigenvalues --   -1.17083  -1.16008  -1.15698  -1.14922  -1.12962
 Alpha  occ. eigenvalues --   -1.12421  -1.12052  -1.10172  -1.05221  -1.04187
 Alpha  occ. eigenvalues --   -1.03927  -1.00751  -0.99206  -0.98211  -0.98118
 Alpha  occ. eigenvalues --   -0.96619  -0.95361  -0.94182  -0.93028  -0.91499
 Alpha  occ. eigenvalues --   -0.90311  -0.89253  -0.88449  -0.87644  -0.85436
 Alpha  occ. eigenvalues --   -0.85366  -0.83646  -0.83025  -0.81255  -0.80507
 Alpha  occ. eigenvalues --   -0.79764  -0.79568  -0.77486  -0.76982  -0.76283
 Alpha  occ. eigenvalues --   -0.76053  -0.75314  -0.74807  -0.74346  -0.74032
 Alpha  occ. eigenvalues --   -0.73130  -0.72902  -0.72169  -0.71482  -0.70939
 Alpha  occ. eigenvalues --   -0.69932  -0.69655  -0.69061  -0.68393  -0.68252
 Alpha  occ. eigenvalues --   -0.67940  -0.67293  -0.66517  -0.66348  -0.65848
 Alpha  occ. eigenvalues --   -0.64995  -0.64576  -0.64467  -0.63405  -0.63313
 Alpha  occ. eigenvalues --   -0.62857  -0.62703  -0.62537  -0.62144  -0.61932
 Alpha  occ. eigenvalues --   -0.61701  -0.61327  -0.61214  -0.60730  -0.60121
 Alpha  occ. eigenvalues --   -0.59446  -0.59181  -0.59030  -0.58444  -0.58073
 Alpha  occ. eigenvalues --   -0.57956  -0.57402  -0.56916  -0.56754  -0.55953
 Alpha  occ. eigenvalues --   -0.55537  -0.55359  -0.55206  -0.54960  -0.53799
 Alpha  occ. eigenvalues --   -0.53548  -0.53176  -0.52895  -0.52564  -0.52471
 Alpha  occ. eigenvalues --   -0.52126  -0.51970  -0.51866  -0.51626  -0.51285
 Alpha  occ. eigenvalues --   -0.51164  -0.50555  -0.50358  -0.50184  -0.50048
 Alpha  occ. eigenvalues --   -0.49974  -0.49857  -0.49428  -0.49326  -0.48933
 Alpha  occ. eigenvalues --   -0.48688  -0.48567  -0.48471  -0.48306  -0.48029
 Alpha  occ. eigenvalues --   -0.47687  -0.47477  -0.47217  -0.47080  -0.46826
 Alpha  occ. eigenvalues --   -0.46665  -0.46250  -0.46077  -0.45804  -0.45716
 Alpha  occ. eigenvalues --   -0.45096  -0.44964  -0.44846  -0.44413  -0.44010
 Alpha  occ. eigenvalues --   -0.43805  -0.43689  -0.42276  -0.42104  -0.42014
 Alpha  occ. eigenvalues --   -0.41905  -0.41362  -0.40810  -0.39389  -0.39153
 Alpha  occ. eigenvalues --   -0.38219  -0.37331  -0.35460  -0.35052  -0.34157
 Alpha  occ. eigenvalues --   -0.33577  -0.32663  -0.31438  -0.31100  -0.26852
 Alpha  occ. eigenvalues --   -0.21741
 Alpha virt. eigenvalues --   -0.09019  -0.02215  -0.00928   0.01336   0.01615
 Alpha virt. eigenvalues --    0.02240   0.02599   0.02728   0.05117   0.05299
 Alpha virt. eigenvalues --    0.05998   0.06324   0.07347   0.07639   0.08424

 Mulliken charges:
               1
     1  Mg   0.423719
     2  C   -0.042818
     3  C   -0.067068
     4  C   -0.053669
     5  C   -0.034597
     6  N   -0.314870
     7  C    0.106207
     8  C    0.003815
     9  C    0.017946
    10  C    0.156990
    11  C   -0.046847
    12  C   -0.029732
    13  C    0.018122
    14  C    0.466362
    15  O   -0.520014
    16  O   -0.279677
    17  N   -0.334735
    18  C    0.134088
    19  C    0.004223
    20  C   -0.042614
    21  C    0.144109
    22  C   -0.034853
    23  C    0.341235
    24  O   -0.517989
    25  C   -0.045393
    26  N   -0.283557
    27  C    0.156138
    28  C    0.020806
    29  C    0.008443
    30  C    0.111792
    31  C   -0.050587
    32  C   -0.036815
    33  C   -0.063790
    34  N   -0.346555
    35  C    0.103444
    36  C    0.017476
    37  C   -0.059890
    38  C    0.121300
    39  C   -0.037137
    40  C    0.339262
    41  O   -0.521199
    42  C    0.046630
    43  C    0.488587
    44  O   -0.516675
    45  O   -0.273828
    46  C    0.074199
    47  C    0.110504
    48  C   -0.096540
    49  C   -0.012781
    50  C   -0.054218
    51  C   -0.024208
    52  C   -0.029189
    53  C   -0.036703
    54  C   -0.011197
    55  C   -0.059862
    56  C   -0.034701
    57  C   -0.047350
    58  C   -0.047320
    59  C   -0.013113
    60  C   -0.052110
    61  C   -0.026854
    62  C   -0.035441
    63  C   -0.036779
    64  C   -0.019723
    65  C   -0.067511
    66  C   -0.057890
    67  H    0.017873
    68  H    0.040361
    69  H    0.018603
    70  H    0.040546
    71  H    0.026223
    72  H    0.017114
    73  H    0.024203
    74  H    0.020069
    75  H    0.037328
    76  H    0.014711
    77  H    0.050883
    78  H    0.038257
    79  H    0.041455
    80  H    0.032270
    81  H    0.032648
    82  H    0.038866
    83  H    0.040375
    84  H    0.024091
    85  H    0.029589
    86  H    0.022562
    87  H    0.023401
    88  H    0.014649
    89  H    0.037012
    90  H    0.023079
    91  H    0.012980
    92  H    0.020852
    93  H    0.026875
    94  H    0.021447
    95  H    0.021454
    96  H    0.034538
    97  H    0.035989
    98  H    0.051604
    99  H    0.052357
   100  H    0.034425
   101  H    0.025939
   102  H    0.057784
   103  H    0.035466
   104  H    0.025141
   105  H    0.029141
   106  H    0.041436
   107  H    0.034571
   108  H    0.021460
   109  H    0.014114
   110  H    0.018189
   111  H    0.028089
   112  H    0.027522
   113  H    0.008792
   114  H    0.018854
   115  H    0.017998
   116  H    0.031379
   117  H    0.014007
   118  H    0.024364
   119  H    0.020011
   120  H    0.015937
   121  H    0.009369
   122  H    0.021060
   123  H    0.015219
   124  H    0.029709
   125  H    0.015215
   126  H    0.021554
   127  H    0.013912
   128  H    0.019685
   129  H    0.011690
   130  H    0.023306
   131  H    0.014890
   132  H    0.015800
   133  H    0.019421
   134  H    0.032118
   135  H    0.019293
   136  H    0.015831
   137  H    0.020883
   138  H    0.027992
   139  H    0.015078
   140  H    0.012092
 Sum of Mulliken charges =  -0.00000

 Dipole moment (field-independent basis, Debye):
    X=              3.8362    Y=              6.8969    Z=             -0.6015  Tot=              7.9149
 N-N= 4.334277001845D+03 E-N= 0.000000000000D+00  KE=-9.342950374689D+03
 Leave Link  601 at Thu May  5 14:09:44 2022, MaxMem=  6710886400 cpu:               1.3 elap:               0.1
 (Enter /sw/apps/gaussian-16.0/g16/l9999.exe)
 1\1\GINC-BP1-COMPUTE135\SP\RZINDO CIS\STO-3G\C55H74Mg1N4O6\OF15641\05-
 May-2022\0\\#p ZINDO=(nstates=5)\\step_901_chromophore_13 ZINDO\\0,1\M
 g,0,46.437,24.635,28.168\C,0,47.199,26.817,31.009\C,0,45.741,22.171,30
 .48\C,0,46.57,22.43,25.693\C,0,47.434,27.201,26.142\N,0,46.636,24.496,
 30.466\C,0,46.767,25.542,31.389\C,0,46.646,24.996,32.858\C,0,46.261,23
 .52,32.602\C,0,46.111,23.345,31.111\C,0,47.109,22.484,33.273\C,0,45.56
 8,25.791,33.662\C,0,45.864,26.579,34.905\C,0,44.858,26.497,36.035\O,0,

 Normal termination of Gaussian 16 at Thu May  5 14:09:45 2022.
