 Gaussian 16, Revision A.03,
 Gaussian 16:  ES64L-G16RevA.03 25-Dec-2016

 ------------------------------
 #p blyp/Def2SVP td=(nstates=5)
 ------------------------------

 --------------------------------------------------
 step_1051_chromophore_5 TDDFT with blyp functional
 --------------------------------------------------
 Symbolic Z-matrix:
 Charge =  0 Multiplicity = 1

                         Standard orientation:
 ---------------------------------------------------------------------
 Center     Atomic      Atomic             Coordinates (Angstroms)
 Number     Number       Type             X           Y           Z
 ---------------------------------------------------------------------
      1         12           0        4.914269    0.516631   -0.504869
      2          6           0        3.264665   -2.664199   -0.391948
      3          6           0        2.702632    1.453648   -2.822020
      4          6           0        5.911307    3.636978    0.250023
      5          6           0        6.776393   -0.691970    2.331250
      6          7           0        3.233554   -0.531043   -1.518983
      7          6           0        2.759769   -1.790451   -1.347866
      8          6           0        1.479973   -1.982127   -2.164201
      9          6           0        1.415628   -0.775221   -3.094365
     10          6           0        2.542347    0.105806   -2.426744
     11          6           0        1.842841   -1.094577   -4.575769
     12          6           0        0.285432   -2.205063   -1.262197
     13          6           0       -0.646805   -3.254088   -1.679561
     14          6           0       -1.830933   -3.449926   -0.731707
     15          8           0       -1.959840   -4.394414    0.031528
     16          8           0       -2.744193   -2.447059   -0.869280
     17          7           0        4.420314    2.273858   -1.267225
     18          6           0        3.533947    2.471153   -2.281598
     19          6           0        3.562680    3.785959   -2.708930
     20          6           0        4.585724    4.461579   -1.882421
     21          6           0        5.035929    3.465821   -0.862666
     22          6           0        2.904979    4.322451   -3.899929
     23          6           0        5.040049    5.881796   -2.125515
     24          8           0        4.681329    6.592349   -3.021343
     25          6           0        6.114289    6.541941   -1.235206
     26          7           0        6.418235    1.324394    0.945301
     27          6           0        6.551472    2.696237    1.050689
     28          6           0        7.343371    3.065215    2.286031
     29          6           0        7.733215    1.607824    2.813358
     30          6           0        6.887561    0.678143    2.010086
     31          6           0        8.396821    4.228411    1.990103
     32          6           0        7.572506    1.511581    4.384423
     33          6           0        8.636045    0.714178    5.129112
     34          7           0        5.031668   -1.271533    0.773017
     35          6           0        5.976451   -1.671935    1.696105
     36          6           0        5.855842   -3.103089    1.970432
     37          6           0        4.770881   -3.478772    1.243243
     38          6           0        4.356291   -2.357463    0.453278
     39          6           0        6.707298   -3.918800    2.991325
     40          6           0        3.981169   -4.580600    0.885456
     41          8           0        3.997014   -5.740126    1.341924
     42          6           0        2.944281   -4.076228   -0.151466
     43          6           0        2.832000   -4.868903   -1.422861
     44          8           0        1.855559   -5.360331   -1.938436
     45          8           0        4.083963   -4.929510   -1.904170
     46          6           0        4.178997   -5.633150   -3.192071
     47          6           0       -3.662564   -2.294284    0.261460
     48          6           0       -3.582927   -0.911641    0.870789
     49          6           0       -4.301146   -0.564033    1.979977
     50          6           0       -5.438094   -1.303245    2.637808
     51          6           0       -4.127435    0.912772    2.533113
     52          6           0       -4.511212    1.933350    1.406370
     53          6           0       -5.621671    2.780129    1.935421
     54          6           0       -6.514847    3.285529    0.685007
     55          6           0       -6.962643    4.756263    0.795589
     56          6           0       -7.803840    2.435504    0.702950
     57          6           0       -7.597506    1.243046   -0.241234
     58          6           0       -8.205170   -0.074425    0.432106
     59          6           0       -9.651064   -0.352973    0.046656
     60          6           0       -9.685945   -1.453692   -1.010330
     61          6           0      -10.729980   -0.627223    1.122803
     62          6           0      -12.262530   -0.662029    0.615526
     63          6           0      -13.191424    0.445273    1.180897
     64          6           0      -14.377463    0.668947    0.182817
     65          6           0      -13.881203    1.397410   -1.140960
     66          6           0      -15.622723    1.320425    0.838091
     67          1           0        2.089763    1.728952   -3.682395
     68          1           0        6.089819    4.670009    0.555738
     69          1           0        7.317993   -1.036741    3.214410
     70          1           0        1.691738   -2.832593   -2.812747
     71          1           0        0.423309   -0.330545   -3.163831
     72          1           0        1.191832   -0.611551   -5.303271
     73          1           0        1.579252   -2.128735   -4.799050
     74          1           0        2.908923   -0.900768   -4.697285
     75          1           0       -0.283571   -1.279838   -1.161844
     76          1           0        0.769734   -2.471116   -0.322035
     77          1           0       -0.107886   -4.201723   -1.647054
     78          1           0       -1.103122   -3.050779   -2.648167
     79          1           0        2.293343    5.181575   -3.622449
     80          1           0        2.280743    3.581157   -4.398663
     81          1           0        3.780678    4.569923   -4.499496
     82          1           0        6.841388    5.734533   -1.150631
     83          1           0        5.728439    6.803564   -0.250561
     84          1           0        6.487315    7.432161   -1.741072
     85          1           0        6.615763    3.510320    2.963956
     86          1           0        8.764144    1.324795    2.600564
     87          1           0        9.403601    3.839904    2.149128
     88          1           0        8.294840    5.141212    2.576958
     89          1           0        8.329324    4.621160    0.976221
     90          1           0        6.569698    1.099504    4.497909
     91          1           0        7.408160    2.481164    4.853998
     92          1           0        9.577201    0.668667    4.580294
     93          1           0        8.389003   -0.338759    5.266370
     94          1           0        8.803082    1.172877    6.103300
     95          1           0        7.580846   -3.338831    3.288058
     96          1           0        7.058767   -4.871603    2.594062
     97          1           0        6.051441   -4.042301    3.853860
     98          1           0        2.045724   -4.160968    0.459491
     99          1           0        3.781287   -5.067745   -4.034607
    100          1           0        3.610472   -6.561158   -3.126754
    101          1           0        5.232288   -5.791205   -3.427277
    102          1           0       -3.421453   -3.087737    0.969595
    103          1           0       -4.701544   -2.427574   -0.039518
    104          1           0       -2.866765   -0.207366    0.447070
    105          1           0       -5.328932   -1.032914    3.688186
    106          1           0       -5.381870   -2.356275    2.361588
    107          1           0       -6.306390   -0.861052    2.148528
    108          1           0       -3.044304    1.015805    2.608532
    109          1           0       -4.610306    1.088099    3.494180
    110          1           0       -4.872413    1.236268    0.649981
    111          1           0       -3.589870    2.432065    1.104804
    112          1           0       -5.215150    3.659258    2.435947
    113          1           0       -6.259360    2.222139    2.621183
    114          1           0       -6.015150    3.065420   -0.258494
    115          1           0       -7.006337    5.207899   -0.195602
    116          1           0       -6.226824    5.372109    1.314072
    117          1           0       -7.910773    4.900450    1.314018
    118          1           0       -8.634830    2.973600    0.246181
    119          1           0       -8.163612    2.228301    1.711239
    120          1           0       -6.540411    1.079782   -0.454705
    121          1           0       -8.176768    1.343547   -1.159363
    122          1           0       -8.275989   -0.008233    1.517692
    123          1           0       -7.481083   -0.828199    0.121823
    124          1           0      -10.031768    0.505971   -0.506428
    125          1           0      -10.321389   -1.143482   -1.840078
    126          1           0      -10.050525   -2.395294   -0.600290
    127          1           0       -8.703921   -1.710934   -1.408066
    128          1           0      -10.691300    0.247076    1.772068
    129          1           0      -10.409165   -1.548391    1.608883
    130          1           0      -12.531608   -1.661011    0.957286
    131          1           0      -12.344688   -0.749469   -0.467707
    132          1           0      -12.637114    1.381080    1.238409
    133          1           0      -13.488949    0.191402    2.198857
    134          1           0      -14.697312   -0.326043   -0.127651
    135          1           0      -14.510138    2.228452   -1.458857
    136          1           0      -13.894013    0.691306   -1.972022
    137          1           0      -12.871716    1.808104   -1.119529
    138          1           0      -15.464391    1.627146    1.871976
    139          1           0      -16.527059    0.713001    0.860894
    140          1           0      -15.940371    2.241044    0.347690
 ---------------------------------------------------------------------

 SCF Done:  E(RB-LYP) =  -3007.36774290     A.U. after   22 cycles

 Excitation energies and oscillator strengths:

 Excited State   1:      Singlet-A      1.5459 eV  802.04 nm  f=0.0013  <S**2>=0.000
     244 -> 247       -0.22421
     245 -> 247        0.66621
 This state for optimization and/or second-order correction.
 Total Energy, E(TD-HF/TD-DFT) =  -3007.31093361
 Copying the excited state density for this state as the 1-particle RhoCI density.

 Excited State   2:      Singlet-A      1.7506 eV  708.22 nm  f=0.1325  <S**2>=0.000
     242 -> 247       -0.38838
     244 -> 247       -0.22187
     244 -> 248        0.12951
     246 -> 247        0.53703
     246 <- 247       -0.11514

 Excited State   3:      Singlet-A      1.7782 eV  697.25 nm  f=0.0013  <S**2>=0.000
     243 -> 247        0.70269

 Excited State   4:      Singlet-A      1.8248 eV  679.46 nm  f=0.1457  <S**2>=0.000
     242 -> 247        0.49025
     244 -> 247        0.21861
     244 -> 248        0.12246
     245 -> 247        0.11590
     246 -> 247        0.42812
     246 <- 247       -0.10022

 Excited State   5:      Singlet-A      2.0310 eV  610.46 nm  f=0.0894  <S**2>=0.000
     242 -> 247       -0.31672
     244 -> 247        0.53415
     245 -> 247        0.18450
     246 -> 248       -0.25317

 The electronic state is 1-A.
 Alpha  occ. eigenvalues --  -46.28263 -18.83326 -18.81657 -18.77930 -18.76091
 Alpha  occ. eigenvalues --  -18.75445 -18.74916 -14.03987 -14.03449 -14.01391
 Alpha  occ. eigenvalues --  -14.01329 -10.04724 -10.03194  -9.99217  -9.99086
 Alpha  occ. eigenvalues --   -9.98362  -9.97130  -9.97128  -9.96906  -9.96848
 Alpha  occ. eigenvalues --   -9.96820  -9.96757  -9.96069  -9.95328  -9.94863
 Alpha  occ. eigenvalues --   -9.94764  -9.94352  -9.94304  -9.94158  -9.93785
 Alpha  occ. eigenvalues --   -9.93774  -9.93447  -9.93362  -9.93257  -9.93234
 Alpha  occ. eigenvalues --   -9.93219  -9.93210  -9.93203  -9.92997  -9.92887
 Alpha  occ. eigenvalues --   -9.92877  -9.92744  -9.92566  -9.92491  -9.92438
 Alpha  occ. eigenvalues --   -9.92123  -9.91869  -9.91772  -9.91698  -9.91654
 Alpha  occ. eigenvalues --   -9.91521  -9.91436  -9.91399  -9.91222  -9.91216
 Alpha  occ. eigenvalues --   -9.91188  -9.91173  -9.91159  -9.91117  -9.91008
 Alpha  occ. eigenvalues --   -9.90873  -9.90853  -9.90766  -9.90566  -9.90503
 Alpha  occ. eigenvalues --   -9.90065  -2.92814  -1.73233  -1.72690  -1.72542
 Alpha  occ. eigenvalues --   -0.99904  -0.97521  -0.92340  -0.91513  -0.90107
 Alpha  occ. eigenvalues --   -0.89292  -0.88255  -0.87190  -0.86534  -0.85105
 Alpha  occ. eigenvalues --   -0.77030  -0.74061  -0.73505  -0.72749  -0.72563
 Alpha  occ. eigenvalues --   -0.71879  -0.71532  -0.71382  -0.70664  -0.70566
 Alpha  occ. eigenvalues --   -0.69876  -0.69383  -0.68283  -0.67888  -0.67434
 Alpha  occ. eigenvalues --   -0.66215  -0.65874  -0.65549  -0.64906  -0.64431
 Alpha  occ. eigenvalues --   -0.63777  -0.62745  -0.62593  -0.61706  -0.61136
 Alpha  occ. eigenvalues --   -0.60382  -0.60183  -0.59979  -0.59085  -0.58839
 Alpha  occ. eigenvalues --   -0.58723  -0.57611  -0.57414  -0.55250  -0.55212
 Alpha  occ. eigenvalues --   -0.54642  -0.54001  -0.53094  -0.52305  -0.52077
 Alpha  occ. eigenvalues --   -0.51996  -0.51399  -0.51032  -0.50629  -0.50214
 Alpha  occ. eigenvalues --   -0.50035  -0.49631  -0.49005  -0.48456  -0.47225
 Alpha  occ. eigenvalues --   -0.46484  -0.46176  -0.45431  -0.45262  -0.45067
 Alpha  occ. eigenvalues --   -0.44062  -0.43576  -0.43099  -0.42877  -0.42502
 Alpha  occ. eigenvalues --   -0.42429  -0.42265  -0.41999  -0.41444  -0.41356
 Alpha  occ. eigenvalues --   -0.41043  -0.40782  -0.40399  -0.40174  -0.40112
 Alpha  occ. eigenvalues --   -0.39723  -0.39526  -0.39470  -0.39425  -0.39210
 Alpha  occ. eigenvalues --   -0.39128  -0.38710  -0.38624  -0.38453  -0.38398
 Alpha  occ. eigenvalues --   -0.38225  -0.37978  -0.37619  -0.37501  -0.37471
 Alpha  occ. eigenvalues --   -0.37137  -0.37019  -0.36828  -0.36737  -0.36387
 Alpha  occ. eigenvalues --   -0.36349  -0.35973  -0.35956  -0.35705  -0.35537
 Alpha  occ. eigenvalues --   -0.35451  -0.35355  -0.35253  -0.34978  -0.34873
 Alpha  occ. eigenvalues --   -0.34647  -0.34462  -0.34354  -0.34216  -0.34145
 Alpha  occ. eigenvalues --   -0.33822  -0.33713  -0.33693  -0.33466  -0.33421
 Alpha  occ. eigenvalues --   -0.33187  -0.33132  -0.32779  -0.32572  -0.32212
 Alpha  occ. eigenvalues --   -0.32161  -0.32034  -0.31988  -0.31879  -0.31738
 Alpha  occ. eigenvalues --   -0.31364  -0.31306  -0.31219  -0.31068  -0.31004
 Alpha  occ. eigenvalues --   -0.30800  -0.30510  -0.30488  -0.30416  -0.30333
 Alpha  occ. eigenvalues --   -0.30083  -0.29758  -0.29693  -0.29193  -0.29145
 Alpha  occ. eigenvalues --   -0.28851  -0.28792  -0.28538  -0.28496  -0.27932
 Alpha  occ. eigenvalues --   -0.27802  -0.27467  -0.27030  -0.26855  -0.26759
 Alpha  occ. eigenvalues --   -0.26399  -0.26152  -0.26079  -0.25862  -0.25692
 Alpha  occ. eigenvalues --   -0.24909  -0.24536  -0.24278  -0.23831  -0.23519
 Alpha  occ. eigenvalues --   -0.23245  -0.22886  -0.22356  -0.21577  -0.21132
 Alpha  occ. eigenvalues --   -0.20014  -0.18676  -0.18639  -0.17750  -0.17726
 Alpha  occ. eigenvalues --   -0.16265
 Alpha virt. eigenvalues --   -0.12103  -0.07378  -0.06290  -0.04308  -0.03182
 Alpha virt. eigenvalues --   -0.02948  -0.02023  -0.01542  -0.01150  -0.00154
 Alpha virt. eigenvalues --    0.01252   0.01538   0.02301   0.02424   0.02649

 Mulliken charges:
               1
     1  Mg   0.692987
     2  C   -0.032393
     3  C   -0.067637
     4  C   -0.049601
     5  C   -0.077720
     6  N   -0.147855
     7  C   -0.131287
     8  C    0.085269
     9  C   -0.036047
    10  C   -0.003983
    11  C    0.112062
    12  C    0.133952
    13  C    0.171527
    14  C    0.042992
    15  O   -0.175358
    16  O   -0.274326
    17  N   -0.365069
    18  C    0.191696
    19  C   -0.170348
    20  C    0.014419
    21  C    0.153596
    22  C    0.213626
    23  C   -0.112275
    24  O   -0.147628
    25  C    0.103986
    26  N   -0.187183
    27  C   -0.017813
    28  C    0.037441
    29  C    0.035693
    30  C    0.027792
    31  C    0.110976
    32  C    0.072503
    33  C    0.077529
    34  N   -0.201853
    35  C    0.096569
    36  C   -0.200760
    37  C    0.124692
    38  C    0.047251
    39  C    0.172528
    40  C   -0.081594
    41  O   -0.148712
    42  C    0.122366
    43  C    0.111115
    44  O   -0.153084
    45  O   -0.258575
    46  C    0.214937
    47  C    0.282450
    48  C   -0.083398
    49  C   -0.223437
    50  C    0.183099
    51  C    0.098531
    52  C    0.064481
    53  C    0.133952
    54  C   -0.092926
    55  C    0.117845
    56  C    0.103703
    57  C    0.051785
    58  C    0.047424
    59  C   -0.076014
    60  C    0.099823
    61  C    0.095981
    62  C    0.047658
    63  C    0.119780
    64  C   -0.079144
    65  C    0.081474
    66  C    0.104816
    67  H   -0.070211
    68  H   -0.063857
    69  H   -0.074879
    70  H   -0.029769
    71  H   -0.022635
    72  H   -0.010229
    73  H   -0.014817
    74  H    0.007903
    75  H   -0.021673
    76  H   -0.027151
    77  H    0.005473
    78  H   -0.019840
    79  H    0.010477
    80  H   -0.027982
    81  H    0.022342
    82  H    0.002531
    83  H    0.016079
    84  H   -0.006344
    85  H   -0.012973
    86  H   -0.015362
    87  H   -0.009195
    88  H   -0.012409
    89  H    0.000272
    90  H   -0.028883
    91  H   -0.023400
    92  H   -0.012599
    93  H    0.001574
    94  H   -0.007638
    95  H   -0.016174
    96  H    0.017780
    97  H    0.018114
    98  H    0.009817
    99  H    0.008058
   100  H    0.027806
   101  H    0.015704
   102  H    0.019157
   103  H   -0.000541
   104  H   -0.034757
   105  H    0.003225
   106  H   -0.007632
   107  H   -0.006421
   108  H   -0.032019
   109  H   -0.026064
   110  H   -0.013148
   111  H   -0.022941
   112  H   -0.035845
   113  H   -0.028290
   114  H   -0.026549
   115  H   -0.020789
   116  H   -0.035578
   117  H   -0.012110
   118  H   -0.044587
   119  H   -0.025852
   120  H   -0.020624
   121  H   -0.025661
   122  H   -0.004860
   123  H   -0.018713
   124  H   -0.044119
   125  H   -0.013974
   126  H   -0.025560
   127  H   -0.028917
   128  H   -0.034347
   129  H   -0.024639
   130  H   -0.033094
   131  H   -0.028522
   132  H   -0.026955
   133  H   -0.025778
   134  H   -0.026602
   135  H   -0.018563
   136  H   -0.011437
   137  H   -0.010432
   138  H   -0.024538
   139  H   -0.015181
   140  H   -0.026939
 Sum of Mulliken charges =  -0.00000

 Dipole moment (field-independent basis, Debye):
    X=              2.3033    Y=              3.0160    Z=              0.3469  Tot=              3.8107
 Quadrupole moment (field-independent basis, Debye-Ang):
   XX=           -352.1784   YY=           -466.9054   ZZ=           -388.6228
   XY=             -7.3765   XZ=             10.7906   YZ=             34.2296

 Normal termination of Gaussian 16 at Wed Apr 27 04:27:06 2022.
