 Gaussian 16, Revision A.03,
 Gaussian 16:  ES64L-G16RevA.03 25-Dec-2016

 -----------------------------------
 #p cam-b3lyp/Def2SVP td=(nstates=5)
 -----------------------------------

 -------------------------------------------------------
 step_1051_chromophore_5 TDDFT with cam-b3lyp functional
 -------------------------------------------------------
 Symbolic Z-matrix:
 Charge =  0 Multiplicity = 1

                         Standard orientation:
 ---------------------------------------------------------------------
 Center     Atomic      Atomic             Coordinates (Angstroms)
 Number     Number       Type             X           Y           Z
 ---------------------------------------------------------------------
      1         12           0        4.914269    0.516631   -0.504869
      2          6           0        3.264665   -2.664199   -0.391948
      3          6           0        2.702632    1.453648   -2.822020
      4          6           0        5.911307    3.636978    0.250023
      5          6           0        6.776393   -0.691970    2.331250
      6          7           0        3.233554   -0.531043   -1.518983
      7          6           0        2.759769   -1.790451   -1.347866
      8          6           0        1.479973   -1.982127   -2.164201
      9          6           0        1.415628   -0.775221   -3.094365
     10          6           0        2.542347    0.105806   -2.426744
     11          6           0        1.842841   -1.094577   -4.575769
     12          6           0        0.285432   -2.205063   -1.262197
     13          6           0       -0.646805   -3.254088   -1.679561
     14          6           0       -1.830933   -3.449926   -0.731707
     15          8           0       -1.959840   -4.394414    0.031528
     16          8           0       -2.744193   -2.447059   -0.869280
     17          7           0        4.420314    2.273858   -1.267225
     18          6           0        3.533947    2.471153   -2.281598
     19          6           0        3.562680    3.785959   -2.708930
     20          6           0        4.585724    4.461579   -1.882421
     21          6           0        5.035929    3.465821   -0.862666
     22          6           0        2.904979    4.322451   -3.899929
     23          6           0        5.040049    5.881796   -2.125515
     24          8           0        4.681329    6.592349   -3.021343
     25          6           0        6.114289    6.541941   -1.235206
     26          7           0        6.418235    1.324394    0.945301
     27          6           0        6.551472    2.696237    1.050689
     28          6           0        7.343371    3.065215    2.286031
     29          6           0        7.733215    1.607824    2.813358
     30          6           0        6.887561    0.678143    2.010086
     31          6           0        8.396821    4.228411    1.990103
     32          6           0        7.572506    1.511581    4.384423
     33          6           0        8.636045    0.714178    5.129112
     34          7           0        5.031668   -1.271533    0.773017
     35          6           0        5.976451   -1.671935    1.696105
     36          6           0        5.855842   -3.103089    1.970432
     37          6           0        4.770881   -3.478772    1.243243
     38          6           0        4.356291   -2.357463    0.453278
     39          6           0        6.707298   -3.918800    2.991325
     40          6           0        3.981169   -4.580600    0.885456
     41          8           0        3.997014   -5.740126    1.341924
     42          6           0        2.944281   -4.076228   -0.151466
     43          6           0        2.832000   -4.868903   -1.422861
     44          8           0        1.855559   -5.360331   -1.938436
     45          8           0        4.083963   -4.929510   -1.904170
     46          6           0        4.178997   -5.633150   -3.192071
     47          6           0       -3.662564   -2.294284    0.261460
     48          6           0       -3.582927   -0.911641    0.870789
     49          6           0       -4.301146   -0.564033    1.979977
     50          6           0       -5.438094   -1.303245    2.637808
     51          6           0       -4.127435    0.912772    2.533113
     52          6           0       -4.511212    1.933350    1.406370
     53          6           0       -5.621671    2.780129    1.935421
     54          6           0       -6.514847    3.285529    0.685007
     55          6           0       -6.962643    4.756263    0.795589
     56          6           0       -7.803840    2.435504    0.702950
     57          6           0       -7.597506    1.243046   -0.241234
     58          6           0       -8.205170   -0.074425    0.432106
     59          6           0       -9.651064   -0.352973    0.046656
     60          6           0       -9.685945   -1.453692   -1.010330
     61          6           0      -10.729980   -0.627223    1.122803
     62          6           0      -12.262530   -0.662029    0.615526
     63          6           0      -13.191424    0.445273    1.180897
     64          6           0      -14.377463    0.668947    0.182817
     65          6           0      -13.881203    1.397410   -1.140960
     66          6           0      -15.622723    1.320425    0.838091
     67          1           0        2.089763    1.728952   -3.682395
     68          1           0        6.089819    4.670009    0.555738
     69          1           0        7.317993   -1.036741    3.214410
     70          1           0        1.691738   -2.832593   -2.812747
     71          1           0        0.423309   -0.330545   -3.163831
     72          1           0        1.191832   -0.611551   -5.303271
     73          1           0        1.579252   -2.128735   -4.799050
     74          1           0        2.908923   -0.900768   -4.697285
     75          1           0       -0.283571   -1.279838   -1.161844
     76          1           0        0.769734   -2.471116   -0.322035
     77          1           0       -0.107886   -4.201723   -1.647054
     78          1           0       -1.103122   -3.050779   -2.648167
     79          1           0        2.293343    5.181575   -3.622449
     80          1           0        2.280743    3.581157   -4.398663
     81          1           0        3.780678    4.569923   -4.499496
     82          1           0        6.841388    5.734533   -1.150631
     83          1           0        5.728439    6.803564   -0.250561
     84          1           0        6.487315    7.432161   -1.741072
     85          1           0        6.615763    3.510320    2.963956
     86          1           0        8.764144    1.324795    2.600564
     87          1           0        9.403601    3.839904    2.149128
     88          1           0        8.294840    5.141212    2.576958
     89          1           0        8.329324    4.621160    0.976221
     90          1           0        6.569698    1.099504    4.497909
     91          1           0        7.408160    2.481164    4.853998
     92          1           0        9.577201    0.668667    4.580294
     93          1           0        8.389003   -0.338759    5.266370
     94          1           0        8.803082    1.172877    6.103300
     95          1           0        7.580846   -3.338831    3.288058
     96          1           0        7.058767   -4.871603    2.594062
     97          1           0        6.051441   -4.042301    3.853860
     98          1           0        2.045724   -4.160968    0.459491
     99          1           0        3.781287   -5.067745   -4.034607
    100          1           0        3.610472   -6.561158   -3.126754
    101          1           0        5.232288   -5.791205   -3.427277
    102          1           0       -3.421453   -3.087737    0.969595
    103          1           0       -4.701544   -2.427574   -0.039518
    104          1           0       -2.866765   -0.207366    0.447070
    105          1           0       -5.328932   -1.032914    3.688186
    106          1           0       -5.381870   -2.356275    2.361588
    107          1           0       -6.306390   -0.861052    2.148528
    108          1           0       -3.044304    1.015805    2.608532
    109          1           0       -4.610306    1.088099    3.494180
    110          1           0       -4.872413    1.236268    0.649981
    111          1           0       -3.589870    2.432065    1.104804
    112          1           0       -5.215150    3.659258    2.435947
    113          1           0       -6.259360    2.222139    2.621183
    114          1           0       -6.015150    3.065420   -0.258494
    115          1           0       -7.006337    5.207899   -0.195602
    116          1           0       -6.226824    5.372109    1.314072
    117          1           0       -7.910773    4.900450    1.314018
    118          1           0       -8.634830    2.973600    0.246181
    119          1           0       -8.163612    2.228301    1.711239
    120          1           0       -6.540411    1.079782   -0.454705
    121          1           0       -8.176768    1.343547   -1.159363
    122          1           0       -8.275989   -0.008233    1.517692
    123          1           0       -7.481083   -0.828199    0.121823
    124          1           0      -10.031768    0.505971   -0.506428
    125          1           0      -10.321389   -1.143482   -1.840078
    126          1           0      -10.050525   -2.395294   -0.600290
    127          1           0       -8.703921   -1.710934   -1.408066
    128          1           0      -10.691300    0.247076    1.772068
    129          1           0      -10.409165   -1.548391    1.608883
    130          1           0      -12.531608   -1.661011    0.957286
    131          1           0      -12.344688   -0.749469   -0.467707
    132          1           0      -12.637114    1.381080    1.238409
    133          1           0      -13.488949    0.191402    2.198857
    134          1           0      -14.697312   -0.326043   -0.127651
    135          1           0      -14.510138    2.228452   -1.458857
    136          1           0      -13.894013    0.691306   -1.972022
    137          1           0      -12.871716    1.808104   -1.119529
    138          1           0      -15.464391    1.627146    1.871976
    139          1           0      -16.527059    0.713001    0.860894
    140          1           0      -15.940371    2.241044    0.347690
 ---------------------------------------------------------------------

 SCF Done:  E(RCAM-B3LYP) =  -3007.17151440     A.U. after   17 cycles

 Excitation energies and oscillator strengths:

 Excited State   1:      Singlet-A      1.6715 eV  741.75 nm  f=0.3526  <S**2>=0.000
     245 -> 248       -0.17840
     246 -> 247        0.68605
     245 <- 248       -0.10903
 This state for optimization and/or second-order correction.
 Total Energy, E(TD-HF/TD-DFT) =  -3007.11008749
 Copying the excited state density for this state as the 1-particle RhoCI density.

 Excited State   2:      Singlet-A      2.2123 eV  560.43 nm  f=0.1195  <S**2>=0.000
     245 -> 247        0.63778
     246 -> 248        0.29237

 Excited State   3:      Singlet-A      3.1414 eV  394.68 nm  f=0.0036  <S**2>=0.000
     242 -> 247       -0.10103
     243 -> 247        0.67528
     243 -> 249       -0.10018

 Excited State   4:      Singlet-A      3.2870 eV  377.20 nm  f=0.0180  <S**2>=0.000
     240 -> 247        0.31221
     240 -> 249        0.20413
     241 -> 247        0.47306
     241 -> 249        0.23979
     246 -> 248        0.16381

 Excited State   5:      Singlet-A      3.4444 eV  359.96 nm  f=0.0002  <S**2>=0.000
     242 -> 247        0.59082
     242 -> 248       -0.15244
     242 -> 249       -0.18880
     242 -> 251       -0.20632
     243 -> 251       -0.10625

 The electronic state is 1-A.
 Alpha  occ. eigenvalues --  -46.89922 -19.26317 -19.24508 -19.21112 -19.19034
 Alpha  occ. eigenvalues --  -19.18807 -19.17939 -14.42911 -14.42288 -14.39948
 Alpha  occ. eigenvalues --  -14.39722 -10.40194 -10.38423 -10.34720 -10.34070
 Alpha  occ. eigenvalues --  -10.32403 -10.31604 -10.31368 -10.31368 -10.31333
 Alpha  occ. eigenvalues --  -10.31211 -10.31176 -10.30574 -10.29391 -10.29244
 Alpha  occ. eigenvalues --  -10.28880 -10.28854 -10.28335 -10.28324 -10.28255
 Alpha  occ. eigenvalues --  -10.28122 -10.27575 -10.27505 -10.27413 -10.27411
 Alpha  occ. eigenvalues --  -10.27376 -10.27142 -10.27066 -10.27007 -10.26827
 Alpha  occ. eigenvalues --  -10.26793 -10.26609 -10.26488 -10.26355 -10.26116
 Alpha  occ. eigenvalues --  -10.25809 -10.25787 -10.25437 -10.25393 -10.25321
 Alpha  occ. eigenvalues --  -10.25250 -10.25220 -10.25197 -10.25150 -10.25140
 Alpha  occ. eigenvalues --  -10.25127 -10.24921 -10.24840 -10.24800 -10.24791
 Alpha  occ. eigenvalues --  -10.24659 -10.24575 -10.24347 -10.24196 -10.24078
 Alpha  occ. eigenvalues --  -10.23635  -3.18370  -1.93266  -1.92804  -1.92690
 Alpha  occ. eigenvalues --   -1.18559  -1.15967  -1.10644  -1.09562  -1.08620
 Alpha  occ. eigenvalues --   -1.07141  -1.06117  -1.04986  -1.04244  -1.02542
 Alpha  occ. eigenvalues --   -0.94378  -0.90983  -0.90395  -0.89502  -0.89364
 Alpha  occ. eigenvalues --   -0.88489  -0.88216  -0.88092  -0.87266  -0.87122
 Alpha  occ. eigenvalues --   -0.86362  -0.85813  -0.84542  -0.84124  -0.83634
 Alpha  occ. eigenvalues --   -0.82217  -0.81891  -0.81398  -0.80794  -0.80426
 Alpha  occ. eigenvalues --   -0.79574  -0.78463  -0.78190  -0.77288  -0.76636
 Alpha  occ. eigenvalues --   -0.75736  -0.75522  -0.75335  -0.74338  -0.74077
 Alpha  occ. eigenvalues --   -0.73891  -0.72586  -0.72376  -0.70015  -0.69921
 Alpha  occ. eigenvalues --   -0.69361  -0.68618  -0.67570  -0.66471  -0.66381
 Alpha  occ. eigenvalues --   -0.66189  -0.65437  -0.65172  -0.64810  -0.64104
 Alpha  occ. eigenvalues --   -0.64071  -0.63596  -0.62833  -0.62348  -0.61021
 Alpha  occ. eigenvalues --   -0.60180  -0.59568  -0.59001  -0.58857  -0.58548
 Alpha  occ. eigenvalues --   -0.57482  -0.56801  -0.56420  -0.56225  -0.55861
 Alpha  occ. eigenvalues --   -0.55664  -0.55525  -0.55035  -0.54525  -0.54281
 Alpha  occ. eigenvalues --   -0.53921  -0.53474  -0.53240  -0.53038  -0.52690
 Alpha  occ. eigenvalues --   -0.52455  -0.52334  -0.52131  -0.51945  -0.51877
 Alpha  occ. eigenvalues --   -0.51681  -0.51460  -0.51173  -0.50976  -0.50739
 Alpha  occ. eigenvalues --   -0.50502  -0.50324  -0.49983  -0.49790  -0.49710
 Alpha  occ. eigenvalues --   -0.49405  -0.49335  -0.49155  -0.48991  -0.48915
 Alpha  occ. eigenvalues --   -0.48631  -0.48430  -0.48130  -0.47931  -0.47877
 Alpha  occ. eigenvalues --   -0.47422  -0.47336  -0.47249  -0.47062  -0.46977
 Alpha  occ. eigenvalues --   -0.46784  -0.46408  -0.46198  -0.46049  -0.45923
 Alpha  occ. eigenvalues --   -0.45680  -0.45553  -0.45444  -0.45374  -0.45049
 Alpha  occ. eigenvalues --   -0.44874  -0.44757  -0.44380  -0.44186  -0.43944
 Alpha  occ. eigenvalues --   -0.43779  -0.43739  -0.43594  -0.43488  -0.43435
 Alpha  occ. eigenvalues --   -0.43251  -0.42825  -0.42661  -0.42421  -0.42349
 Alpha  occ. eigenvalues --   -0.42127  -0.41959  -0.41934  -0.41868  -0.41721
 Alpha  occ. eigenvalues --   -0.41501  -0.41080  -0.40941  -0.40738  -0.40239
 Alpha  occ. eigenvalues --   -0.40129  -0.39889  -0.39820  -0.39522  -0.38864
 Alpha  occ. eigenvalues --   -0.38775  -0.38332  -0.38311  -0.37760  -0.37677
 Alpha  occ. eigenvalues --   -0.37480  -0.37084  -0.36936  -0.36877  -0.36249
 Alpha  occ. eigenvalues --   -0.35740  -0.35554  -0.35387  -0.34781  -0.34192
 Alpha  occ. eigenvalues --   -0.33388  -0.33242  -0.33191  -0.31798  -0.31190
 Alpha  occ. eigenvalues --   -0.30829  -0.29859  -0.29046  -0.28291  -0.24568
 Alpha  occ. eigenvalues --   -0.21569
 Alpha virt. eigenvalues --   -0.09306  -0.02317   0.00098   0.01786   0.02649
 Alpha virt. eigenvalues --    0.04899   0.05485   0.05637   0.06196   0.06369
 Alpha virt. eigenvalues --    0.08144   0.08386   0.08464   0.08693   0.08716

 Mulliken charges:
               1
     1  Mg   0.823530
     2  C   -0.056279
     3  C   -0.072566
     4  C   -0.073237
     5  C   -0.083999
     6  N   -0.221160
     7  C   -0.080582
     8  C    0.026741
     9  C   -0.082040
    10  C    0.006977
    11  C    0.056306
    12  C    0.076321
    13  C    0.097151
    14  C    0.130026
    15  O   -0.218726
    16  O   -0.338706
    17  N   -0.456329
    18  C    0.194501
    19  C   -0.169143
    20  C   -0.062186
    21  C    0.182106
    22  C    0.152900
    23  C   -0.033104
    24  O   -0.188611
    25  C    0.027951
    26  N   -0.263101
    27  C    0.010799
    28  C   -0.019756
    29  C   -0.023233
    30  C    0.056050
    31  C    0.054384
    32  C    0.013377
    33  C    0.014390
    34  N   -0.286715
    35  C    0.097879
    36  C   -0.192914
    37  C    0.046441
    38  C    0.085643
    39  C    0.129058
    40  C    0.025046
    41  O   -0.186479
    42  C    0.037556
    43  C    0.193506
    44  O   -0.195189
    45  O   -0.319024
    46  C    0.174765
    47  C    0.254296
    48  C   -0.110965
    49  C   -0.237602
    50  C    0.125075
    51  C    0.039778
    52  C    0.010418
    53  C    0.080595
    54  C   -0.151680
    55  C    0.059056
    56  C    0.050425
    57  C    0.003431
    58  C   -0.004956
    59  C   -0.123358
    60  C    0.039625
    61  C    0.048624
    62  C   -0.008657
    63  C    0.067613
    64  C   -0.142658
    65  C    0.022989
    66  C    0.046255
    67  H   -0.034549
    68  H   -0.027802
    69  H   -0.041064
    70  H    0.005551
    71  H    0.013138
    72  H    0.015043
    73  H    0.009008
    74  H    0.033073
    75  H    0.009615
    76  H    0.004452
    77  H    0.039873
    78  H    0.013056
    79  H    0.037501
    80  H   -0.001954
    81  H    0.048494
    82  H    0.025154
    83  H    0.041156
    84  H    0.028213
    85  H    0.021466
    86  H    0.018307
    87  H    0.015811
    88  H    0.013032
    89  H    0.022841
    90  H    0.002642
    91  H    0.006797
    92  H    0.010518
    93  H    0.022149
    94  H    0.018249
    95  H    0.008179
    96  H    0.044698
    97  H    0.044324
    98  H    0.051246
    99  H    0.029166
   100  H    0.052377
   101  H    0.040365
   102  H    0.052058
   103  H    0.023405
   104  H   -0.000227
   105  H    0.027490
   106  H    0.016543
   107  H    0.013307
   108  H    0.001158
   109  H    0.003192
   110  H    0.011946
   111  H    0.006896
   112  H   -0.005827
   113  H   -0.001788
   114  H    0.006245
   115  H    0.004461
   116  H   -0.010338
   117  H    0.011449
   118  H   -0.013712
   119  H    0.000741
   120  H    0.004472
   121  H    0.003140
   122  H    0.017570
   123  H    0.005712
   124  H   -0.015318
   125  H    0.009087
   126  H   -0.001252
   127  H   -0.002989
   128  H   -0.007894
   129  H    0.002596
   130  H   -0.003161
   131  H   -0.001826
   132  H   -0.000543
   133  H    0.003397
   134  H    0.005478
   135  H    0.006406
   136  H    0.011308
   137  H    0.011522
   138  H    0.000033
   139  H    0.009141
   140  H   -0.002633
 Sum of Mulliken charges =  -0.00000

 Dipole moment (field-independent basis, Debye):
    X=              2.5631    Y=              3.0596    Z=              0.4817  Tot=              4.0203
 Quadrupole moment (field-independent basis, Debye-Ang):
   XX=           -349.2501   YY=           -466.1621   ZZ=           -386.8214
   XY=             -7.5116   XZ=             12.2211   YZ=             35.7222

 Normal termination of Gaussian 16 at Wed Apr 27 03:29:03 2022.
