 Gaussian 16, Revision A.03,
 Gaussian 16:  ES64L-G16RevA.03 25-Dec-2016

 ---------------------------------
 #p PBE1PBE/Def2SVP td=(nstates=5)
 ---------------------------------

 -----------------------------------------------------
 step_1051_chromophore_5 TDDFT with PBE1PBE functional
 -----------------------------------------------------
 Symbolic Z-matrix:
 Charge =  0 Multiplicity = 1

                         Standard orientation:
 ---------------------------------------------------------------------
 Center     Atomic      Atomic             Coordinates (Angstroms)
 Number     Number       Type             X           Y           Z
 ---------------------------------------------------------------------
      1         12           0        4.914269    0.516631   -0.504869
      2          6           0        3.264665   -2.664199   -0.391948
      3          6           0        2.702632    1.453648   -2.822020
      4          6           0        5.911307    3.636978    0.250023
      5          6           0        6.776393   -0.691970    2.331250
      6          7           0        3.233554   -0.531043   -1.518983
      7          6           0        2.759769   -1.790451   -1.347866
      8          6           0        1.479973   -1.982127   -2.164201
      9          6           0        1.415628   -0.775221   -3.094365
     10          6           0        2.542347    0.105806   -2.426744
     11          6           0        1.842841   -1.094577   -4.575769
     12          6           0        0.285432   -2.205063   -1.262197
     13          6           0       -0.646805   -3.254088   -1.679561
     14          6           0       -1.830933   -3.449926   -0.731707
     15          8           0       -1.959840   -4.394414    0.031528
     16          8           0       -2.744193   -2.447059   -0.869280
     17          7           0        4.420314    2.273858   -1.267225
     18          6           0        3.533947    2.471153   -2.281598
     19          6           0        3.562680    3.785959   -2.708930
     20          6           0        4.585724    4.461579   -1.882421
     21          6           0        5.035929    3.465821   -0.862666
     22          6           0        2.904979    4.322451   -3.899929
     23          6           0        5.040049    5.881796   -2.125515
     24          8           0        4.681329    6.592349   -3.021343
     25          6           0        6.114289    6.541941   -1.235206
     26          7           0        6.418235    1.324394    0.945301
     27          6           0        6.551472    2.696237    1.050689
     28          6           0        7.343371    3.065215    2.286031
     29          6           0        7.733215    1.607824    2.813358
     30          6           0        6.887561    0.678143    2.010086
     31          6           0        8.396821    4.228411    1.990103
     32          6           0        7.572506    1.511581    4.384423
     33          6           0        8.636045    0.714178    5.129112
     34          7           0        5.031668   -1.271533    0.773017
     35          6           0        5.976451   -1.671935    1.696105
     36          6           0        5.855842   -3.103089    1.970432
     37          6           0        4.770881   -3.478772    1.243243
     38          6           0        4.356291   -2.357463    0.453278
     39          6           0        6.707298   -3.918800    2.991325
     40          6           0        3.981169   -4.580600    0.885456
     41          8           0        3.997014   -5.740126    1.341924
     42          6           0        2.944281   -4.076228   -0.151466
     43          6           0        2.832000   -4.868903   -1.422861
     44          8           0        1.855559   -5.360331   -1.938436
     45          8           0        4.083963   -4.929510   -1.904170
     46          6           0        4.178997   -5.633150   -3.192071
     47          6           0       -3.662564   -2.294284    0.261460
     48          6           0       -3.582927   -0.911641    0.870789
     49          6           0       -4.301146   -0.564033    1.979977
     50          6           0       -5.438094   -1.303245    2.637808
     51          6           0       -4.127435    0.912772    2.533113
     52          6           0       -4.511212    1.933350    1.406370
     53          6           0       -5.621671    2.780129    1.935421
     54          6           0       -6.514847    3.285529    0.685007
     55          6           0       -6.962643    4.756263    0.795589
     56          6           0       -7.803840    2.435504    0.702950
     57          6           0       -7.597506    1.243046   -0.241234
     58          6           0       -8.205170   -0.074425    0.432106
     59          6           0       -9.651064   -0.352973    0.046656
     60          6           0       -9.685945   -1.453692   -1.010330
     61          6           0      -10.729980   -0.627223    1.122803
     62          6           0      -12.262530   -0.662029    0.615526
     63          6           0      -13.191424    0.445273    1.180897
     64          6           0      -14.377463    0.668947    0.182817
     65          6           0      -13.881203    1.397410   -1.140960
     66          6           0      -15.622723    1.320425    0.838091
     67          1           0        2.089763    1.728952   -3.682395
     68          1           0        6.089819    4.670009    0.555738
     69          1           0        7.317993   -1.036741    3.214410
     70          1           0        1.691738   -2.832593   -2.812747
     71          1           0        0.423309   -0.330545   -3.163831
     72          1           0        1.191832   -0.611551   -5.303271
     73          1           0        1.579252   -2.128735   -4.799050
     74          1           0        2.908923   -0.900768   -4.697285
     75          1           0       -0.283571   -1.279838   -1.161844
     76          1           0        0.769734   -2.471116   -0.322035
     77          1           0       -0.107886   -4.201723   -1.647054
     78          1           0       -1.103122   -3.050779   -2.648167
     79          1           0        2.293343    5.181575   -3.622449
     80          1           0        2.280743    3.581157   -4.398663
     81          1           0        3.780678    4.569923   -4.499496
     82          1           0        6.841388    5.734533   -1.150631
     83          1           0        5.728439    6.803564   -0.250561
     84          1           0        6.487315    7.432161   -1.741072
     85          1           0        6.615763    3.510320    2.963956
     86          1           0        8.764144    1.324795    2.600564
     87          1           0        9.403601    3.839904    2.149128
     88          1           0        8.294840    5.141212    2.576958
     89          1           0        8.329324    4.621160    0.976221
     90          1           0        6.569698    1.099504    4.497909
     91          1           0        7.408160    2.481164    4.853998
     92          1           0        9.577201    0.668667    4.580294
     93          1           0        8.389003   -0.338759    5.266370
     94          1           0        8.803082    1.172877    6.103300
     95          1           0        7.580846   -3.338831    3.288058
     96          1           0        7.058767   -4.871603    2.594062
     97          1           0        6.051441   -4.042301    3.853860
     98          1           0        2.045724   -4.160968    0.459491
     99          1           0        3.781287   -5.067745   -4.034607
    100          1           0        3.610472   -6.561158   -3.126754
    101          1           0        5.232288   -5.791205   -3.427277
    102          1           0       -3.421453   -3.087737    0.969595
    103          1           0       -4.701544   -2.427574   -0.039518
    104          1           0       -2.866765   -0.207366    0.447070
    105          1           0       -5.328932   -1.032914    3.688186
    106          1           0       -5.381870   -2.356275    2.361588
    107          1           0       -6.306390   -0.861052    2.148528
    108          1           0       -3.044304    1.015805    2.608532
    109          1           0       -4.610306    1.088099    3.494180
    110          1           0       -4.872413    1.236268    0.649981
    111          1           0       -3.589870    2.432065    1.104804
    112          1           0       -5.215150    3.659258    2.435947
    113          1           0       -6.259360    2.222139    2.621183
    114          1           0       -6.015150    3.065420   -0.258494
    115          1           0       -7.006337    5.207899   -0.195602
    116          1           0       -6.226824    5.372109    1.314072
    117          1           0       -7.910773    4.900450    1.314018
    118          1           0       -8.634830    2.973600    0.246181
    119          1           0       -8.163612    2.228301    1.711239
    120          1           0       -6.540411    1.079782   -0.454705
    121          1           0       -8.176768    1.343547   -1.159363
    122          1           0       -8.275989   -0.008233    1.517692
    123          1           0       -7.481083   -0.828199    0.121823
    124          1           0      -10.031768    0.505971   -0.506428
    125          1           0      -10.321389   -1.143482   -1.840078
    126          1           0      -10.050525   -2.395294   -0.600290
    127          1           0       -8.703921   -1.710934   -1.408066
    128          1           0      -10.691300    0.247076    1.772068
    129          1           0      -10.409165   -1.548391    1.608883
    130          1           0      -12.531608   -1.661011    0.957286
    131          1           0      -12.344688   -0.749469   -0.467707
    132          1           0      -12.637114    1.381080    1.238409
    133          1           0      -13.488949    0.191402    2.198857
    134          1           0      -14.697312   -0.326043   -0.127651
    135          1           0      -14.510138    2.228452   -1.458857
    136          1           0      -13.894013    0.691306   -1.972022
    137          1           0      -12.871716    1.808104   -1.119529
    138          1           0      -15.464391    1.627146    1.871976
    139          1           0      -16.527059    0.713001    0.860894
    140          1           0      -15.940371    2.241044    0.347690
 ---------------------------------------------------------------------

 SCF Done:  E(RPBE1PBE) =  -3005.36089943     A.U. after   15 cycles

 Excitation energies and oscillator strengths:

 Excited State   1:      Singlet-A      1.8274 eV  678.46 nm  f=0.3308  <S**2>=0.000
     245 -> 248       -0.17136
     246 -> 247        0.69348
     246 <- 247       -0.11151
 This state for optimization and/or second-order correction.
 Total Energy, E(TD-HF/TD-DFT) =  -3005.29374281
 Copying the excited state density for this state as the 1-particle RhoCI density.

 Excited State   2:      Singlet-A      2.2169 eV  559.27 nm  f=0.1244  <S**2>=0.000
     245 -> 247        0.64978
     246 -> 248        0.26369

 Excited State   3:      Singlet-A      2.6693 eV  464.48 nm  f=0.0013  <S**2>=0.000
     243 -> 247        0.69147

 Excited State   4:      Singlet-A      2.8226 eV  439.26 nm  f=0.0008  <S**2>=0.000
     241 -> 247        0.63195
     241 -> 249       -0.17336
     242 -> 247        0.14697
     244 -> 247       -0.17180

 Excited State   5:      Singlet-A      2.8305 eV  438.03 nm  f=0.0001  <S**2>=0.000
     241 -> 247        0.16136
     244 -> 247        0.68566

 The electronic state is 1-A.
 Alpha  occ. eigenvalues --  -46.93291 -19.26877 -19.25220 -19.21292 -19.19357
 Alpha  occ. eigenvalues --  -19.18962 -19.18233 -14.42366 -14.41800 -14.39516
 Alpha  occ. eigenvalues --  -14.39440 -10.37133 -10.35499 -10.31755 -10.31299
 Alpha  occ. eigenvalues --  -10.29557 -10.29389 -10.29114 -10.29055 -10.28998
 Alpha  occ. eigenvalues --  -10.28954 -10.28598 -10.28173 -10.27159 -10.26829
 Alpha  occ. eigenvalues --  -10.26709 -10.26433 -10.26158 -10.26151 -10.25882
 Alpha  occ. eigenvalues --  -10.25778 -10.25331 -10.25218 -10.25192 -10.25045
 Alpha  occ. eigenvalues --  -10.25036 -10.24982 -10.24526 -10.24520 -10.24486
 Alpha  occ. eigenvalues --  -10.24412 -10.24188 -10.24131 -10.23922 -10.23535
 Alpha  occ. eigenvalues --  -10.23271 -10.23181 -10.23180 -10.22900 -10.22874
 Alpha  occ. eigenvalues --  -10.22813 -10.22811 -10.22798 -10.22706 -10.22693
 Alpha  occ. eigenvalues --  -10.22524 -10.22499 -10.22470 -10.22417 -10.22229
 Alpha  occ. eigenvalues --  -10.22217 -10.22175 -10.21778 -10.21739 -10.21473
 Alpha  occ. eigenvalues --  -10.21021  -3.15324  -1.88159  -1.87675  -1.87566
 Alpha  occ. eigenvalues --   -1.13257  -1.10810  -1.05491  -1.04325  -1.03246
 Alpha  occ. eigenvalues --   -1.02037  -1.00727  -0.99607  -0.98869  -0.97279
 Alpha  occ. eigenvalues --   -0.88675  -0.85224  -0.84488  -0.83834  -0.83469
 Alpha  occ. eigenvalues --   -0.82759  -0.82403  -0.82320  -0.81596  -0.81228
 Alpha  occ. eigenvalues --   -0.80685  -0.80110  -0.78821  -0.78335  -0.77891
 Alpha  occ. eigenvalues --   -0.76459  -0.76046  -0.75730  -0.75007  -0.74658
 Alpha  occ. eigenvalues --   -0.73710  -0.72710  -0.72490  -0.71562  -0.70961
 Alpha  occ. eigenvalues --   -0.70090  -0.69607  -0.69507  -0.68481  -0.68311
 Alpha  occ. eigenvalues --   -0.68216  -0.66995  -0.66765  -0.64359  -0.64252
 Alpha  occ. eigenvalues --   -0.63803  -0.62795  -0.62059  -0.60872  -0.60661
 Alpha  occ. eigenvalues --   -0.60559  -0.59980  -0.59705  -0.59032  -0.58589
 Alpha  occ. eigenvalues --   -0.58260  -0.57777  -0.57327  -0.56492  -0.55497
 Alpha  occ. eigenvalues --   -0.54712  -0.54216  -0.53459  -0.53384  -0.52972
 Alpha  occ. eigenvalues --   -0.52083  -0.51344  -0.50845  -0.50750  -0.50350
 Alpha  occ. eigenvalues --   -0.50211  -0.50029  -0.49442  -0.49056  -0.48816
 Alpha  occ. eigenvalues --   -0.48529  -0.47860  -0.47819  -0.47542  -0.47141
 Alpha  occ. eigenvalues --   -0.47020  -0.46851  -0.46631  -0.46403  -0.46340
 Alpha  occ. eigenvalues --   -0.46248  -0.46041  -0.45764  -0.45552  -0.45248
 Alpha  occ. eigenvalues --   -0.45132  -0.44896  -0.44563  -0.44352  -0.44212
 Alpha  occ. eigenvalues --   -0.43989  -0.43954  -0.43784  -0.43628  -0.43508
 Alpha  occ. eigenvalues --   -0.43240  -0.43077  -0.42790  -0.42579  -0.42507
 Alpha  occ. eigenvalues --   -0.42081  -0.41977  -0.41887  -0.41778  -0.41645
 Alpha  occ. eigenvalues --   -0.41447  -0.41066  -0.40820  -0.40781  -0.40563
 Alpha  occ. eigenvalues --   -0.40401  -0.40317  -0.40188  -0.39941  -0.39666
 Alpha  occ. eigenvalues --   -0.39648  -0.39516  -0.39107  -0.39011  -0.38755
 Alpha  occ. eigenvalues --   -0.38537  -0.38464  -0.38387  -0.38283  -0.38174
 Alpha  occ. eigenvalues --   -0.38006  -0.37594  -0.37387  -0.37285  -0.37104
 Alpha  occ. eigenvalues --   -0.36974  -0.36764  -0.36753  -0.36717  -0.36440
 Alpha  occ. eigenvalues --   -0.36365  -0.35946  -0.35805  -0.35534  -0.35005
 Alpha  occ. eigenvalues --   -0.34977  -0.34757  -0.34584  -0.34262  -0.33755
 Alpha  occ. eigenvalues --   -0.33651  -0.33240  -0.33137  -0.32731  -0.32460
 Alpha  occ. eigenvalues --   -0.32313  -0.32018  -0.31966  -0.31894  -0.31189
 Alpha  occ. eigenvalues --   -0.30648  -0.30490  -0.30281  -0.29911  -0.29160
 Alpha  occ. eigenvalues --   -0.28956  -0.28196  -0.28069  -0.27398  -0.26633
 Alpha  occ. eigenvalues --   -0.25696  -0.25060  -0.24396  -0.23560  -0.21514
 Alpha  occ. eigenvalues --   -0.19227
 Alpha virt. eigenvalues --   -0.11757  -0.05792  -0.04067  -0.01764  -0.00941
 Alpha virt. eigenvalues --    0.00243   0.01104   0.01443   0.01839   0.02553
 Alpha virt. eigenvalues --    0.04008   0.04667   0.05149   0.05244   0.05489

 Mulliken charges:
               1
     1  Mg   0.964006
     2  C   -0.064980
     3  C   -0.056825
     4  C   -0.073223
     5  C   -0.074293
     6  N   -0.333924
     7  C    0.002183
     8  C   -0.045042
     9  C   -0.155490
    10  C    0.044608
    11  C    0.002774
    12  C    0.021004
    13  C    0.010205
    14  C    0.203071
    15  O   -0.253030
    16  O   -0.369151
    17  N   -0.578135
    18  C    0.221363
    19  C   -0.193317
    20  C   -0.111323
    21  C    0.215738
    22  C    0.087957
    23  C    0.022878
    24  O   -0.224082
    25  C   -0.053610
    26  N   -0.370554
    27  C    0.049032
    28  C   -0.093160
    29  C   -0.102406
    30  C    0.095025
    31  C   -0.006588
    32  C   -0.045472
    33  C   -0.058942
    34  N   -0.409762
    35  C    0.112761
    36  C   -0.198039
    37  C   -0.010519
    38  C    0.141658
    39  C    0.076069
    40  C    0.127790
    41  O   -0.234799
    42  C   -0.078244
    43  C    0.278774
    44  O   -0.236945
    45  O   -0.346505
    46  C    0.119187
    47  C    0.217568
    48  C   -0.131172
    49  C   -0.274791
    50  C    0.043800
    51  C   -0.015904
    52  C   -0.062578
    53  C    0.030375
    54  C   -0.243787
    55  C   -0.000740
    56  C    0.002835
    57  C   -0.061852
    58  C   -0.067205
    59  C   -0.200393
    60  C   -0.016488
    61  C   -0.013246
    62  C   -0.066896
    63  C    0.009045
    64  C   -0.238114
    65  C   -0.036368
    66  C   -0.010877
    67  H   -0.002179
    68  H    0.007112
    69  H   -0.003841
    70  H    0.046932
    71  H    0.047491
    72  H    0.042195
    73  H    0.036752
    74  H    0.060514
    75  H    0.042811
    76  H    0.042716
    77  H    0.077537
    78  H    0.046190
    79  H    0.065707
    80  H    0.026877
    81  H    0.076414
    82  H    0.054618
    83  H    0.067476
    84  H    0.056554
    85  H    0.059511
    86  H    0.056146
    87  H    0.044376
    88  H    0.040278
    89  H    0.050270
    90  H    0.036894
    91  H    0.038715
    92  H    0.037838
    93  H    0.048150
    94  H    0.046320
    95  H    0.034124
    96  H    0.070787
    97  H    0.071336
    98  H    0.088451
    99  H    0.050801
   100  H    0.073374
   101  H    0.062194
   102  H    0.077490
   103  H    0.050858
   104  H    0.029702
   105  H    0.055154
   106  H    0.044297
   107  H    0.055188
   108  H    0.037021
   109  H    0.032899
   110  H    0.052876
   111  H    0.038769
   112  H    0.027323
   113  H    0.029507
   114  H    0.043485
   115  H    0.033054
   116  H    0.017737
   117  H    0.038257
   118  H    0.020128
   119  H    0.030696
   120  H    0.035818
   121  H    0.036808
   122  H    0.048299
   123  H    0.038952
   124  H    0.025108
   125  H    0.035313
   126  H    0.026543
   127  H    0.024607
   128  H    0.026646
   129  H    0.034650
   130  H    0.030268
   131  H    0.030455
   132  H    0.032444
   133  H    0.035329
   134  H    0.044237
   135  H    0.033710
   136  H    0.037870
   137  H    0.038440
   138  H    0.027168
   139  H    0.036166
   140  H    0.024349
 Sum of Mulliken charges =  -0.00000

 Dipole moment (field-independent basis, Debye):
    X=              2.5225    Y=              3.3124    Z=              0.4118  Tot=              4.1839
 Quadrupole moment (field-independent basis, Debye-Ang):
   XX=           -345.0869   YY=           -463.2508   ZZ=           -382.8944
   XY=             -6.3612   XZ=             13.1159   YZ=             35.7450

 Normal termination of Gaussian 16 at Wed Apr 27 03:47:18 2022.
