 Gaussian 16, Revision A.03,
 Gaussian 16:  ES64L-G16RevA.03 25-Dec-2016

 --------------------------------
 #p wB97XD/Def2SVP td=(nstates=5)
 --------------------------------

 ----------------------------------------------------
 step_1051_chromophore_5 TDDFT with wB97XD functional
 ----------------------------------------------------
 Symbolic Z-matrix:
 Charge =  0 Multiplicity = 1

                         Standard orientation:
 ---------------------------------------------------------------------
 Center     Atomic      Atomic             Coordinates (Angstroms)
 Number     Number       Type             X           Y           Z
 ---------------------------------------------------------------------
      1         12           0        4.914269    0.516631   -0.504869
      2          6           0        3.264665   -2.664199   -0.391948
      3          6           0        2.702632    1.453648   -2.822020
      4          6           0        5.911307    3.636978    0.250023
      5          6           0        6.776393   -0.691970    2.331250
      6          7           0        3.233554   -0.531043   -1.518983
      7          6           0        2.759769   -1.790451   -1.347866
      8          6           0        1.479973   -1.982127   -2.164201
      9          6           0        1.415628   -0.775221   -3.094365
     10          6           0        2.542347    0.105806   -2.426744
     11          6           0        1.842841   -1.094577   -4.575769
     12          6           0        0.285432   -2.205063   -1.262197
     13          6           0       -0.646805   -3.254088   -1.679561
     14          6           0       -1.830933   -3.449926   -0.731707
     15          8           0       -1.959840   -4.394414    0.031528
     16          8           0       -2.744193   -2.447059   -0.869280
     17          7           0        4.420314    2.273858   -1.267225
     18          6           0        3.533947    2.471153   -2.281598
     19          6           0        3.562680    3.785959   -2.708930
     20          6           0        4.585724    4.461579   -1.882421
     21          6           0        5.035929    3.465821   -0.862666
     22          6           0        2.904979    4.322451   -3.899929
     23          6           0        5.040049    5.881796   -2.125515
     24          8           0        4.681329    6.592349   -3.021343
     25          6           0        6.114289    6.541941   -1.235206
     26          7           0        6.418235    1.324394    0.945301
     27          6           0        6.551472    2.696237    1.050689
     28          6           0        7.343371    3.065215    2.286031
     29          6           0        7.733215    1.607824    2.813358
     30          6           0        6.887561    0.678143    2.010086
     31          6           0        8.396821    4.228411    1.990103
     32          6           0        7.572506    1.511581    4.384423
     33          6           0        8.636045    0.714178    5.129112
     34          7           0        5.031668   -1.271533    0.773017
     35          6           0        5.976451   -1.671935    1.696105
     36          6           0        5.855842   -3.103089    1.970432
     37          6           0        4.770881   -3.478772    1.243243
     38          6           0        4.356291   -2.357463    0.453278
     39          6           0        6.707298   -3.918800    2.991325
     40          6           0        3.981169   -4.580600    0.885456
     41          8           0        3.997014   -5.740126    1.341924
     42          6           0        2.944281   -4.076228   -0.151466
     43          6           0        2.832000   -4.868903   -1.422861
     44          8           0        1.855559   -5.360331   -1.938436
     45          8           0        4.083963   -4.929510   -1.904170
     46          6           0        4.178997   -5.633150   -3.192071
     47          6           0       -3.662564   -2.294284    0.261460
     48          6           0       -3.582927   -0.911641    0.870789
     49          6           0       -4.301146   -0.564033    1.979977
     50          6           0       -5.438094   -1.303245    2.637808
     51          6           0       -4.127435    0.912772    2.533113
     52          6           0       -4.511212    1.933350    1.406370
     53          6           0       -5.621671    2.780129    1.935421
     54          6           0       -6.514847    3.285529    0.685007
     55          6           0       -6.962643    4.756263    0.795589
     56          6           0       -7.803840    2.435504    0.702950
     57          6           0       -7.597506    1.243046   -0.241234
     58          6           0       -8.205170   -0.074425    0.432106
     59          6           0       -9.651064   -0.352973    0.046656
     60          6           0       -9.685945   -1.453692   -1.010330
     61          6           0      -10.729980   -0.627223    1.122803
     62          6           0      -12.262530   -0.662029    0.615526
     63          6           0      -13.191424    0.445273    1.180897
     64          6           0      -14.377463    0.668947    0.182817
     65          6           0      -13.881203    1.397410   -1.140960
     66          6           0      -15.622723    1.320425    0.838091
     67          1           0        2.089763    1.728952   -3.682395
     68          1           0        6.089819    4.670009    0.555738
     69          1           0        7.317993   -1.036741    3.214410
     70          1           0        1.691738   -2.832593   -2.812747
     71          1           0        0.423309   -0.330545   -3.163831
     72          1           0        1.191832   -0.611551   -5.303271
     73          1           0        1.579252   -2.128735   -4.799050
     74          1           0        2.908923   -0.900768   -4.697285
     75          1           0       -0.283571   -1.279838   -1.161844
     76          1           0        0.769734   -2.471116   -0.322035
     77          1           0       -0.107886   -4.201723   -1.647054
     78          1           0       -1.103122   -3.050779   -2.648167
     79          1           0        2.293343    5.181575   -3.622449
     80          1           0        2.280743    3.581157   -4.398663
     81          1           0        3.780678    4.569923   -4.499496
     82          1           0        6.841388    5.734533   -1.150631
     83          1           0        5.728439    6.803564   -0.250561
     84          1           0        6.487315    7.432161   -1.741072
     85          1           0        6.615763    3.510320    2.963956
     86          1           0        8.764144    1.324795    2.600564
     87          1           0        9.403601    3.839904    2.149128
     88          1           0        8.294840    5.141212    2.576958
     89          1           0        8.329324    4.621160    0.976221
     90          1           0        6.569698    1.099504    4.497909
     91          1           0        7.408160    2.481164    4.853998
     92          1           0        9.577201    0.668667    4.580294
     93          1           0        8.389003   -0.338759    5.266370
     94          1           0        8.803082    1.172877    6.103300
     95          1           0        7.580846   -3.338831    3.288058
     96          1           0        7.058767   -4.871603    2.594062
     97          1           0        6.051441   -4.042301    3.853860
     98          1           0        2.045724   -4.160968    0.459491
     99          1           0        3.781287   -5.067745   -4.034607
    100          1           0        3.610472   -6.561158   -3.126754
    101          1           0        5.232288   -5.791205   -3.427277
    102          1           0       -3.421453   -3.087737    0.969595
    103          1           0       -4.701544   -2.427574   -0.039518
    104          1           0       -2.866765   -0.207366    0.447070
    105          1           0       -5.328932   -1.032914    3.688186
    106          1           0       -5.381870   -2.356275    2.361588
    107          1           0       -6.306390   -0.861052    2.148528
    108          1           0       -3.044304    1.015805    2.608532
    109          1           0       -4.610306    1.088099    3.494180
    110          1           0       -4.872413    1.236268    0.649981
    111          1           0       -3.589870    2.432065    1.104804
    112          1           0       -5.215150    3.659258    2.435947
    113          1           0       -6.259360    2.222139    2.621183
    114          1           0       -6.015150    3.065420   -0.258494
    115          1           0       -7.006337    5.207899   -0.195602
    116          1           0       -6.226824    5.372109    1.314072
    117          1           0       -7.910773    4.900450    1.314018
    118          1           0       -8.634830    2.973600    0.246181
    119          1           0       -8.163612    2.228301    1.711239
    120          1           0       -6.540411    1.079782   -0.454705
    121          1           0       -8.176768    1.343547   -1.159363
    122          1           0       -8.275989   -0.008233    1.517692
    123          1           0       -7.481083   -0.828199    0.121823
    124          1           0      -10.031768    0.505971   -0.506428
    125          1           0      -10.321389   -1.143482   -1.840078
    126          1           0      -10.050525   -2.395294   -0.600290
    127          1           0       -8.703921   -1.710934   -1.408066
    128          1           0      -10.691300    0.247076    1.772068
    129          1           0      -10.409165   -1.548391    1.608883
    130          1           0      -12.531608   -1.661011    0.957286
    131          1           0      -12.344688   -0.749469   -0.467707
    132          1           0      -12.637114    1.381080    1.238409
    133          1           0      -13.488949    0.191402    2.198857
    134          1           0      -14.697312   -0.326043   -0.127651
    135          1           0      -14.510138    2.228452   -1.458857
    136          1           0      -13.894013    0.691306   -1.972022
    137          1           0      -12.871716    1.808104   -1.119529
    138          1           0      -15.464391    1.627146    1.871976
    139          1           0      -16.527059    0.713001    0.860894
    140          1           0      -15.940371    2.241044    0.347690
 ---------------------------------------------------------------------

 SCF Done:  E(RwB97XD) =  -3007.87318773     A.U. after   19 cycles

 Excitation energies and oscillator strengths:

 Excited State   1:      Singlet-A      1.6112 eV  769.52 nm  f=0.3522  <S**2>=0.000
     245 -> 248       -0.18408
     246 -> 247        0.68400
     245 <- 248       -0.11887
 This state for optimization and/or second-order correction.
 Total Energy, E(TD-HF/TD-DFT) =  -3007.81397776
 Copying the excited state density for this state as the 1-particle RhoCI density.

 Excited State   2:      Singlet-A      2.1560 eV  575.08 nm  f=0.1158  <S**2>=0.000
     245 -> 247        0.63576
     246 -> 248        0.29531

 Excited State   3:      Singlet-A      3.1800 eV  389.89 nm  f=0.0030  <S**2>=0.000
     242 -> 247       -0.20108
     243 -> 247        0.64124
     243 -> 249       -0.12478

 Excited State   4:      Singlet-A      3.3027 eV  375.40 nm  f=0.0225  <S**2>=0.000
     240 -> 247        0.17400
     240 -> 249        0.14503
     241 -> 247        0.52295
     241 -> 249        0.30389
     241 -> 250       -0.12691
     246 -> 248        0.17618

 Excited State   5:      Singlet-A      3.4881 eV  355.45 nm  f=0.0002  <S**2>=0.000
     242 -> 247        0.55198
     242 -> 248       -0.14679
     242 -> 249       -0.20264
     242 -> 250       -0.19459
     243 -> 247        0.12604
     243 -> 248       -0.10723
     243 -> 249       -0.10191
     243 -> 250       -0.13950

 The electronic state is 1-A.
 Alpha  occ. eigenvalues --  -46.96249 -19.31533 -19.29769 -19.26063 -19.23994
 Alpha  occ. eigenvalues --  -19.23930 -19.22909 -14.47496 -14.46866 -14.44546
 Alpha  occ. eigenvalues --  -14.44324 -10.44044 -10.42253 -10.38774 -10.37995
 Alpha  occ. eigenvalues --  -10.36135 -10.35655 -10.35407 -10.35379 -10.35341
 Alpha  occ. eigenvalues --  -10.35207 -10.35075 -10.34646 -10.33370 -10.33267
 Alpha  occ. eigenvalues --  -10.33054 -10.32909 -10.32382 -10.32373 -10.32310
 Alpha  occ. eigenvalues --  -10.32251 -10.31653 -10.31554 -10.31478 -10.31462
 Alpha  occ. eigenvalues --  -10.31447 -10.31159 -10.31055 -10.30885 -10.30831
 Alpha  occ. eigenvalues --  -10.30738 -10.30482 -10.30461 -10.30321 -10.29951
 Alpha  occ. eigenvalues --  -10.29717 -10.29646 -10.29427 -10.29276 -10.29247
 Alpha  occ. eigenvalues --  -10.29200 -10.29193 -10.29165 -10.29143 -10.29068
 Alpha  occ. eigenvalues --  -10.29003 -10.28857 -10.28777 -10.28757 -10.28633
 Alpha  occ. eigenvalues --  -10.28589 -10.28533 -10.28156 -10.28123 -10.27896
 Alpha  occ. eigenvalues --  -10.27459  -3.22159  -1.95741  -1.95258  -1.95139
 Alpha  occ. eigenvalues --   -1.20731  -1.18170  -1.12825  -1.11760  -1.10889
 Alpha  occ. eigenvalues --   -1.09358  -1.08130  -1.07034  -1.06269  -1.04565
 Alpha  occ. eigenvalues --   -0.96390  -0.92851  -0.92162  -0.91420  -0.91138
 Alpha  occ. eigenvalues --   -0.90344  -0.90053  -0.89991  -0.89221  -0.88895
 Alpha  occ. eigenvalues --   -0.88284  -0.87720  -0.86485  -0.85980  -0.85520
 Alpha  occ. eigenvalues --   -0.84122  -0.83723  -0.83351  -0.82671  -0.82343
 Alpha  occ. eigenvalues --   -0.81383  -0.80388  -0.80114  -0.79222  -0.78569
 Alpha  occ. eigenvalues --   -0.77680  -0.77304  -0.77183  -0.76158  -0.75917
 Alpha  occ. eigenvalues --   -0.75869  -0.74543  -0.74338  -0.71956  -0.71839
 Alpha  occ. eigenvalues --   -0.71359  -0.70461  -0.69550  -0.68403  -0.68240
 Alpha  occ. eigenvalues --   -0.68130  -0.67426  -0.67180  -0.66668  -0.66089
 Alpha  occ. eigenvalues --   -0.65905  -0.65420  -0.64809  -0.64159  -0.62990
 Alpha  occ. eigenvalues --   -0.62183  -0.61564  -0.60925  -0.60826  -0.60468
 Alpha  occ. eigenvalues --   -0.59488  -0.58761  -0.58348  -0.58169  -0.57811
 Alpha  occ. eigenvalues --   -0.57616  -0.57464  -0.56928  -0.56467  -0.56228
 Alpha  occ. eigenvalues --   -0.55871  -0.55327  -0.55179  -0.54956  -0.54555
 Alpha  occ. eigenvalues --   -0.54378  -0.54269  -0.54067  -0.53839  -0.53758
 Alpha  occ. eigenvalues --   -0.53588  -0.53389  -0.53074  -0.52924  -0.52602
 Alpha  occ. eigenvalues --   -0.52394  -0.52219  -0.51917  -0.51719  -0.51582
 Alpha  occ. eigenvalues --   -0.51349  -0.51260  -0.51084  -0.50913  -0.50805
 Alpha  occ. eigenvalues --   -0.50521  -0.50350  -0.50069  -0.49797  -0.49790
 Alpha  occ. eigenvalues --   -0.49344  -0.49226  -0.49161  -0.48994  -0.48944
 Alpha  occ. eigenvalues --   -0.48708  -0.48328  -0.48056  -0.47992  -0.47778
 Alpha  occ. eigenvalues --   -0.47637  -0.47480  -0.47384  -0.47201  -0.46899
 Alpha  occ. eigenvalues --   -0.46797  -0.46666  -0.46259  -0.46120  -0.45883
 Alpha  occ. eigenvalues --   -0.45708  -0.45611  -0.45485  -0.45367  -0.45329
 Alpha  occ. eigenvalues --   -0.45138  -0.44827  -0.44563  -0.44336  -0.44229
 Alpha  occ. eigenvalues --   -0.44079  -0.43885  -0.43851  -0.43810  -0.43574
 Alpha  occ. eigenvalues --   -0.43434  -0.43009  -0.42838  -0.42608  -0.42086
 Alpha  occ. eigenvalues --   -0.42044  -0.41784  -0.41670  -0.41354  -0.40710
 Alpha  occ. eigenvalues --   -0.40682  -0.40354  -0.40160  -0.39703  -0.39522
 Alpha  occ. eigenvalues --   -0.39310  -0.39035  -0.39012  -0.38809  -0.38101
 Alpha  occ. eigenvalues --   -0.37736  -0.37467  -0.37272  -0.36778  -0.36058
 Alpha  occ. eigenvalues --   -0.35629  -0.35121  -0.35074  -0.34023  -0.33330
 Alpha  occ. eigenvalues --   -0.32900  -0.31820  -0.31149  -0.30309  -0.26480
 Alpha  occ. eigenvalues --   -0.23372
 Alpha virt. eigenvalues --   -0.07674  -0.00404   0.02168   0.04751   0.04961
 Alpha virt. eigenvalues --    0.07015   0.07855   0.08143   0.08672   0.08838
 Alpha virt. eigenvalues --    0.10633   0.11552   0.11778   0.11931   0.12142

 Mulliken charges:
               1
     1  Mg   0.957368
     2  C   -0.067009
     3  C   -0.075719
     4  C   -0.085906
     5  C   -0.089084
     6  N   -0.295060
     7  C   -0.033109
     8  C   -0.015189
     9  C   -0.133919
    10  C    0.028580
    11  C    0.011741
    12  C    0.036884
    13  C    0.033081
    14  C    0.192523
    15  O   -0.251475
    16  O   -0.368991
    17  N   -0.543681
    18  C    0.210235
    19  C   -0.182315
    20  C   -0.107747
    21  C    0.206761
    22  C    0.100065
    23  C    0.016742
    24  O   -0.220120
    25  C   -0.034235
    26  N   -0.336901
    27  C    0.040081
    28  C   -0.071676
    29  C   -0.076477
    30  C    0.084973
    31  C    0.007421
    32  C   -0.031485
    33  C   -0.042573
    34  N   -0.371170
    35  C    0.108209
    36  C   -0.200757
    37  C   -0.002177
    38  C    0.121265
    39  C    0.089845
    40  C    0.106037
    41  O   -0.222872
    42  C   -0.035706
    43  C    0.256250
    44  O   -0.228273
    45  O   -0.347611
    46  C    0.134926
    47  C    0.231024
    48  C   -0.137593
    49  C   -0.259705
    50  C    0.075052
    51  C   -0.004932
    52  C   -0.030920
    53  C    0.041866
    54  C   -0.208276
    55  C    0.011476
    56  C    0.012606
    57  C   -0.040348
    58  C   -0.043214
    59  C   -0.171155
    60  C   -0.007478
    61  C    0.007173
    62  C   -0.051965
    63  C    0.023989
    64  C   -0.206192
    65  C   -0.026121
    66  C    0.000041
    67  H   -0.009784
    68  H   -0.005460
    69  H   -0.018208
    70  H    0.027305
    71  H    0.040239
    72  H    0.037378
    73  H    0.030241
    74  H    0.054499
    75  H    0.034621
    76  H    0.028294
    77  H    0.066764
    78  H    0.040401
    79  H    0.061732
    80  H    0.021664
    81  H    0.070886
    82  H    0.043377
    83  H    0.062896
    84  H    0.054965
    85  H    0.048490
    86  H    0.043842
    87  H    0.038694
    88  H    0.035435
    89  H    0.041771
    90  H    0.027130
    91  H    0.031585
    92  H    0.031108
    93  H    0.042203
    94  H    0.042020
    95  H    0.028983
    96  H    0.067736
    97  H    0.067035
    98  H    0.081852
    99  H    0.046573
   100  H    0.069200
   101  H    0.059390
   102  H    0.072469
   103  H    0.045125
   104  H    0.026483
   105  H    0.049958
   106  H    0.039226
   107  H    0.031944
   108  H    0.028403
   109  H    0.025517
   110  H    0.025436
   111  H    0.033691
   112  H    0.019580
   113  H    0.017289
   114  H    0.031145
   115  H    0.027513
   116  H    0.011294
   117  H    0.032189
   118  H    0.010843
   119  H    0.021115
   120  H    0.026504
   121  H    0.027816
   122  H    0.034575
   123  H    0.027146
   124  H    0.007292
   125  H    0.030135
   126  H    0.019848
   127  H    0.018824
   128  H    0.014920
   129  H    0.026568
   130  H    0.022834
   131  H    0.017478
   132  H    0.021550
   133  H    0.028855
   134  H    0.032299
   135  H    0.028185
   136  H    0.032322
   137  H    0.031649
   138  H    0.021094
   139  H    0.031101
   140  H    0.017852
 Sum of Mulliken charges =  -0.00000

 Dipole moment (field-independent basis, Debye):
    X=              2.5974    Y=              3.0791    Z=              0.4731  Tot=              4.0560
 Quadrupole moment (field-independent basis, Debye-Ang):
   XX=           -344.4061   YY=           -462.4563   ZZ=           -382.7675
   XY=             -7.7442   XZ=             13.0020   YZ=             35.8518

 Normal termination of Gaussian 16 at Wed Apr 27 04:14:25 2022.
