 Gaussian 16, Revision A.03,
 Gaussian 16:  ES64L-G16RevA.03 25-Dec-2016

 --------------------
 #p ZINDO=(nstates=5)
 --------------------

 -----------------------------
 step_1051_chromophore_5 ZINDO
 -----------------------------
 Symbolic Z-matrix:
 Charge =  0 Multiplicity = 1

                         Standard orientation:
 ---------------------------------------------------------------------
 Center     Atomic      Atomic             Coordinates (Angstroms)
 Number     Number       Type             X           Y           Z
 ---------------------------------------------------------------------
      1         12           0        4.914269    0.516631   -0.504869
      2          6           0        3.264665   -2.664199   -0.391948
      3          6           0        2.702632    1.453648   -2.822020
      4          6           0        5.911307    3.636978    0.250023
      5          6           0        6.776393   -0.691970    2.331250
      6          7           0        3.233554   -0.531043   -1.518983
      7          6           0        2.759769   -1.790451   -1.347866
      8          6           0        1.479973   -1.982127   -2.164201
      9          6           0        1.415628   -0.775221   -3.094365
     10          6           0        2.542347    0.105806   -2.426744
     11          6           0        1.842841   -1.094577   -4.575769
     12          6           0        0.285432   -2.205063   -1.262197
     13          6           0       -0.646805   -3.254088   -1.679561
     14          6           0       -1.830933   -3.449926   -0.731707
     15          8           0       -1.959840   -4.394414    0.031528
     16          8           0       -2.744193   -2.447059   -0.869280
     17          7           0        4.420314    2.273858   -1.267225
     18          6           0        3.533947    2.471153   -2.281598
     19          6           0        3.562680    3.785959   -2.708930
     20          6           0        4.585724    4.461579   -1.882421
     21          6           0        5.035929    3.465821   -0.862666
     22          6           0        2.904979    4.322451   -3.899929
     23          6           0        5.040049    5.881796   -2.125515
     24          8           0        4.681329    6.592349   -3.021343
     25          6           0        6.114289    6.541941   -1.235206
     26          7           0        6.418235    1.324394    0.945301
     27          6           0        6.551472    2.696237    1.050689
     28          6           0        7.343371    3.065215    2.286031
     29          6           0        7.733215    1.607824    2.813358
     30          6           0        6.887561    0.678143    2.010086
     31          6           0        8.396821    4.228411    1.990103
     32          6           0        7.572506    1.511581    4.384423
     33          6           0        8.636045    0.714178    5.129112
     34          7           0        5.031668   -1.271533    0.773017
     35          6           0        5.976451   -1.671935    1.696105
     36          6           0        5.855842   -3.103089    1.970432
     37          6           0        4.770881   -3.478772    1.243243
     38          6           0        4.356291   -2.357463    0.453278
     39          6           0        6.707298   -3.918800    2.991325
     40          6           0        3.981169   -4.580600    0.885456
     41          8           0        3.997014   -5.740126    1.341924
     42          6           0        2.944281   -4.076228   -0.151466
     43          6           0        2.832000   -4.868903   -1.422861
     44          8           0        1.855559   -5.360331   -1.938436
     45          8           0        4.083963   -4.929510   -1.904170
     46          6           0        4.178997   -5.633150   -3.192071
     47          6           0       -3.662564   -2.294284    0.261460
     48          6           0       -3.582927   -0.911641    0.870789
     49          6           0       -4.301146   -0.564033    1.979977
     50          6           0       -5.438094   -1.303245    2.637808
     51          6           0       -4.127435    0.912772    2.533113
     52          6           0       -4.511212    1.933350    1.406370
     53          6           0       -5.621671    2.780129    1.935421
     54          6           0       -6.514847    3.285529    0.685007
     55          6           0       -6.962643    4.756263    0.795589
     56          6           0       -7.803840    2.435504    0.702950
     57          6           0       -7.597506    1.243046   -0.241234
     58          6           0       -8.205170   -0.074425    0.432106
     59          6           0       -9.651064   -0.352973    0.046656
     60          6           0       -9.685945   -1.453692   -1.010330
     61          6           0      -10.729980   -0.627223    1.122803
     62          6           0      -12.262530   -0.662029    0.615526
     63          6           0      -13.191424    0.445273    1.180897
     64          6           0      -14.377463    0.668947    0.182817
     65          6           0      -13.881203    1.397410   -1.140960
     66          6           0      -15.622723    1.320425    0.838091
     67          1           0        2.089763    1.728952   -3.682395
     68          1           0        6.089819    4.670009    0.555738
     69          1           0        7.317993   -1.036741    3.214410
     70          1           0        1.691738   -2.832593   -2.812747
     71          1           0        0.423309   -0.330545   -3.163831
     72          1           0        1.191832   -0.611551   -5.303271
     73          1           0        1.579252   -2.128735   -4.799050
     74          1           0        2.908923   -0.900768   -4.697285
     75          1           0       -0.283571   -1.279838   -1.161844
     76          1           0        0.769734   -2.471116   -0.322035
     77          1           0       -0.107886   -4.201723   -1.647054
     78          1           0       -1.103122   -3.050779   -2.648167
     79          1           0        2.293343    5.181575   -3.622449
     80          1           0        2.280743    3.581157   -4.398663
     81          1           0        3.780678    4.569923   -4.499496
     82          1           0        6.841388    5.734533   -1.150631
     83          1           0        5.728439    6.803564   -0.250561
     84          1           0        6.487315    7.432161   -1.741072
     85          1           0        6.615763    3.510320    2.963956
     86          1           0        8.764144    1.324795    2.600564
     87          1           0        9.403601    3.839904    2.149128
     88          1           0        8.294840    5.141212    2.576958
     89          1           0        8.329324    4.621160    0.976221
     90          1           0        6.569698    1.099504    4.497909
     91          1           0        7.408160    2.481164    4.853998
     92          1           0        9.577201    0.668667    4.580294
     93          1           0        8.389003   -0.338759    5.266370
     94          1           0        8.803082    1.172877    6.103300
     95          1           0        7.580846   -3.338831    3.288058
     96          1           0        7.058767   -4.871603    2.594062
     97          1           0        6.051441   -4.042301    3.853860
     98          1           0        2.045724   -4.160968    0.459491
     99          1           0        3.781287   -5.067745   -4.034607
    100          1           0        3.610472   -6.561158   -3.126754
    101          1           0        5.232288   -5.791205   -3.427277
    102          1           0       -3.421453   -3.087737    0.969595
    103          1           0       -4.701544   -2.427574   -0.039518
    104          1           0       -2.866765   -0.207366    0.447070
    105          1           0       -5.328932   -1.032914    3.688186
    106          1           0       -5.381870   -2.356275    2.361588
    107          1           0       -6.306390   -0.861052    2.148528
    108          1           0       -3.044304    1.015805    2.608532
    109          1           0       -4.610306    1.088099    3.494180
    110          1           0       -4.872413    1.236268    0.649981
    111          1           0       -3.589870    2.432065    1.104804
    112          1           0       -5.215150    3.659258    2.435947
    113          1           0       -6.259360    2.222139    2.621183
    114          1           0       -6.015150    3.065420   -0.258494
    115          1           0       -7.006337    5.207899   -0.195602
    116          1           0       -6.226824    5.372109    1.314072
    117          1           0       -7.910773    4.900450    1.314018
    118          1           0       -8.634830    2.973600    0.246181
    119          1           0       -8.163612    2.228301    1.711239
    120          1           0       -6.540411    1.079782   -0.454705
    121          1           0       -8.176768    1.343547   -1.159363
    122          1           0       -8.275989   -0.008233    1.517692
    123          1           0       -7.481083   -0.828199    0.121823
    124          1           0      -10.031768    0.505971   -0.506428
    125          1           0      -10.321389   -1.143482   -1.840078
    126          1           0      -10.050525   -2.395294   -0.600290
    127          1           0       -8.703921   -1.710934   -1.408066
    128          1           0      -10.691300    0.247076    1.772068
    129          1           0      -10.409165   -1.548391    1.608883
    130          1           0      -12.531608   -1.661011    0.957286
    131          1           0      -12.344688   -0.749469   -0.467707
    132          1           0      -12.637114    1.381080    1.238409
    133          1           0      -13.488949    0.191402    2.198857
    134          1           0      -14.697312   -0.326043   -0.127651
    135          1           0      -14.510138    2.228452   -1.458857
    136          1           0      -13.894013    0.691306   -1.972022
    137          1           0      -12.871716    1.808104   -1.119529
    138          1           0      -15.464391    1.627146    1.871976
    139          1           0      -16.527059    0.713001    0.860894
    140          1           0      -15.940371    2.241044    0.347690
 ---------------------------------------------------------------------

 SCF Done:  E(RZINDO/S) =  -474.527411732     A.U. after   20 cycles

 Excitation energies and oscillator strengths:

 Excited State   1:      Singlet-A      1.2323 eV 1006.16 nm  f=0.5762  <S**2>=0.000
     175 ->178        -0.19742
     176 ->177         0.66142
 This state for optimization and/or second-order correction.
 Total Energy, E(CIS/TDA) =  -474.482127226
 Copying the excited state density for this state as the 1-particle RhoCI density.

 Excited State   2:      Singlet-A      1.8806 eV  659.27 nm  f=0.0417  <S**2>=0.000
     175 ->177         0.54512
     176 ->178         0.42504

 Excited State   3:      Singlet-A      2.8167 eV  440.17 nm  f=0.0891  <S**2>=0.000
     168 ->177        -0.31760
     168 ->179         0.35303
     168 ->181         0.14301
     168 ->185        -0.12592
     169 ->177         0.13866
     169 ->179        -0.14724
     170 ->177         0.11869
     175 ->177         0.11951
     176 ->178        -0.18346
     176 ->179        -0.14553

 Excited State   4:      Singlet-A      2.9460 eV  420.85 nm  f=0.0696  <S**2>=0.000
     171 ->177         0.22395
     171 ->178        -0.15215
     171 ->179         0.22562
     171 ->180        -0.11673
     171 ->181        -0.28733
     171 ->184        -0.10511
     171 ->185        -0.24628
     171 ->187         0.15291
     173 ->177        -0.22751
     176 ->178        -0.11651
     176 ->179        -0.11147

 Excited State   5:      Singlet-A      2.9779 eV  416.34 nm  f=0.7601  <S**2>=0.000
     168 ->177        -0.14467
     168 ->179         0.16703
     171 ->181        -0.11027
     175 ->177        -0.32111
     176 ->178         0.42555
     176 ->179         0.24684

 The electronic state is 1-A.
 Alpha  occ. eigenvalues --   -1.87527  -1.82475  -1.80807  -1.75596  -1.74157
 Alpha  occ. eigenvalues --   -1.72418  -1.66769  -1.60382  -1.60119  -1.59798
 Alpha  occ. eigenvalues --   -1.54061  -1.52134  -1.50247  -1.47903  -1.47242
 Alpha  occ. eigenvalues --   -1.46028  -1.45149  -1.41321  -1.39131  -1.37468
 Alpha  occ. eigenvalues --   -1.36770  -1.33613  -1.32805  -1.31888  -1.27765
 Alpha  occ. eigenvalues --   -1.27437  -1.26426  -1.22816  -1.20844  -1.19113
 Alpha  occ. eigenvalues --   -1.17339  -1.15854  -1.15740  -1.14014  -1.13130
 Alpha  occ. eigenvalues --   -1.11898  -1.10942  -1.08188  -1.06050  -1.04556
 Alpha  occ. eigenvalues --   -1.02873  -1.00708  -0.99685  -0.98682  -0.98020
 Alpha  occ. eigenvalues --   -0.96378  -0.94508  -0.94213  -0.92998  -0.91681
 Alpha  occ. eigenvalues --   -0.90868  -0.90337  -0.89696  -0.89320  -0.86608
 Alpha  occ. eigenvalues --   -0.86341  -0.85056  -0.84216  -0.83642  -0.81956
 Alpha  occ. eigenvalues --   -0.79546  -0.78913  -0.77769  -0.77228  -0.76104
 Alpha  occ. eigenvalues --   -0.75173  -0.74706  -0.73891  -0.73569  -0.73359
 Alpha  occ. eigenvalues --   -0.73213  -0.72421  -0.71701  -0.71612  -0.70879
 Alpha  occ. eigenvalues --   -0.70369  -0.70188  -0.69092  -0.68129  -0.67732
 Alpha  occ. eigenvalues --   -0.66983  -0.66949  -0.66445  -0.65833  -0.65469
 Alpha  occ. eigenvalues --   -0.65280  -0.64859  -0.64209  -0.64162  -0.63735
 Alpha  occ. eigenvalues --   -0.62934  -0.62890  -0.62602  -0.62230  -0.62060
 Alpha  occ. eigenvalues --   -0.61750  -0.61526  -0.61186  -0.60298  -0.59726
 Alpha  occ. eigenvalues --   -0.59495  -0.59353  -0.59050  -0.58898  -0.58146
 Alpha  occ. eigenvalues --   -0.57880  -0.57719  -0.57363  -0.56937  -0.56696
 Alpha  occ. eigenvalues --   -0.56435  -0.55686  -0.55432  -0.54967  -0.54856
 Alpha  occ. eigenvalues --   -0.54553  -0.53816  -0.53445  -0.53303  -0.53177
 Alpha  occ. eigenvalues --   -0.52943  -0.52563  -0.52447  -0.52126  -0.51646
 Alpha  occ. eigenvalues --   -0.51523  -0.51415  -0.51163  -0.50695  -0.50358
 Alpha  occ. eigenvalues --   -0.50218  -0.49856  -0.49795  -0.49729  -0.48938
 Alpha  occ. eigenvalues --   -0.48882  -0.48769  -0.48629  -0.48276  -0.48182
 Alpha  occ. eigenvalues --   -0.47667  -0.47456  -0.47384  -0.47294  -0.47222
 Alpha  occ. eigenvalues --   -0.46717  -0.46480  -0.46095  -0.45953  -0.45650
 Alpha  occ. eigenvalues --   -0.45234  -0.45069  -0.44880  -0.44660  -0.44608
 Alpha  occ. eigenvalues --   -0.44287  -0.42997  -0.42881  -0.42557  -0.41781
 Alpha  occ. eigenvalues --   -0.41498  -0.41146  -0.40508  -0.39597  -0.38574
 Alpha  occ. eigenvalues --   -0.37848  -0.37575  -0.35663  -0.35006  -0.34543
 Alpha  occ. eigenvalues --   -0.33976  -0.32966  -0.31498  -0.30659  -0.26960
 Alpha  occ. eigenvalues --   -0.22168
 Alpha virt. eigenvalues --   -0.09001  -0.02647  -0.00935   0.01074   0.01493
 Alpha virt. eigenvalues --    0.02101   0.02786   0.03035   0.04749   0.04844
 Alpha virt. eigenvalues --    0.06144   0.06593   0.07215   0.07523   0.07888

 Mulliken charges:
               1
     1  Mg   0.432315
     2  C   -0.047032
     3  C   -0.080340
     4  C   -0.074620
     5  C   -0.081891
     6  N   -0.263452
     7  C    0.126954
     8  C    0.007480
     9  C   -0.008331
    10  C    0.120829
    11  C   -0.058359
    12  C   -0.008970
    13  C    0.008896
    14  C    0.464638
    15  O   -0.518915
    16  O   -0.277742
    17  N   -0.325976
    18  C    0.100832
    19  C    0.030420
    20  C   -0.085075
    21  C    0.108406
    22  C   -0.035580
    23  C    0.317547
    24  O   -0.523347
    25  C   -0.036909
    26  N   -0.277948
    27  C    0.116891
    28  C   -0.003415
    29  C    0.009206
    30  C    0.160220
    31  C   -0.053941
    32  C   -0.035578
    33  C   -0.052202
    34  N   -0.323253
    35  C    0.109908
    36  C    0.044382
    37  C   -0.033733
    38  C    0.118637
    39  C   -0.036792
    40  C    0.331894
    41  O   -0.528639
    42  C    0.060561
    43  C    0.496663
    44  O   -0.518695
    45  O   -0.260266
    46  C    0.073383
    47  C    0.099917
    48  C   -0.101441
    49  C   -0.017695
    50  C   -0.047775
    51  C   -0.046677
    52  C   -0.038483
    53  C   -0.032363
    54  C   -0.024417
    55  C   -0.057784
    56  C   -0.035506
    57  C   -0.044848
    58  C   -0.041188
    59  C   -0.012563
    60  C   -0.058593
    61  C   -0.039584
    62  C   -0.044787
    63  C   -0.024528
    64  C   -0.005258
    65  C   -0.058404
    66  C   -0.058922
    67  H    0.027322
    68  H    0.029666
    69  H    0.027332
    70  H    0.034595
    71  H    0.035252
    72  H    0.022014
    73  H    0.015896
    74  H    0.033959
    75  H    0.025027
    76  H    0.027941
    77  H    0.052931
    78  H    0.039657
    79  H    0.040960
    80  H    0.018492
    81  H    0.047781
    82  H    0.028585
    83  H    0.035787
    84  H    0.040997
    85  H    0.033253
    86  H    0.038038
    87  H    0.019049
    88  H    0.022936
    89  H    0.025335
    90  H    0.015943
    91  H    0.021204
    92  H    0.018446
    93  H    0.020890
    94  H    0.020953
    95  H    0.020631
    96  H    0.043168
    97  H    0.040482
    98  H    0.059025
    99  H    0.036463
   100  H    0.053113
   101  H    0.031081
   102  H    0.062204
   103  H    0.041862
   104  H    0.037190
   105  H    0.037229
   106  H    0.030149
   107  H    0.040412
   108  H    0.014759
   109  H    0.030420
   110  H    0.031098
   111  H    0.029477
   112  H    0.019434
   113  H    0.028403
   114  H    0.032092
   115  H    0.014698
   116  H    0.007780
   117  H    0.023463
   118  H    0.005926
   119  H    0.028103
   120  H    0.025423
   121  H    0.025163
   122  H    0.016572
   123  H    0.020485
   124  H    0.011145
   125  H    0.014676
   126  H    0.014357
   127  H    0.012954
   128  H    0.012274
   129  H    0.026027
   130  H    0.012993
   131  H    0.027535
   132  H    0.019781
   133  H    0.023381
   134  H    0.018431
   135  H    0.017813
   136  H    0.015045
   137  H    0.021263
   138  H    0.014645
   139  H    0.018585
   140  H    0.014386
 Sum of Mulliken charges =  -0.00000

 Dipole moment (field-independent basis, Debye):
    X=              3.6709    Y=              3.5491    Z=              2.1617  Tot=              5.5448
 N-N= 4.433200490191D+03 E-N= 0.000000000000D+00  KE=-9.540358878038D+03
 Leave Link  601 at Wed Apr 27 04:27:13 2022, MaxMem=  6710886400 cpu:               1.0 elap:               0.1
 (Enter /sw/apps/gaussian-16.0/g16/l9999.exe)
 1\1\GINC-BP1-COMPUTE162\SP\RZINDO CIS\STO-3G\C55H74Mg1N4O6\OF15641\27-
 Apr-2022\0\\#p ZINDO=(nstates=5)\\step_1051_chromophore_5 ZINDO\\0,1\M
 g,0,24.701,-7.334,45.178\C,0,27.31,-5.227,43.911\C,0,22.536,-5.544,43.
 376\C,0,22.632,-9.942,45.645\C,0,27.381,-9.298,46.568\N,0,24.92,-5.554
 ,43.861\C,0,26.031,-4.86,43.509\C,0,25.68,-3.817,42.446\C,0,24.156,-3.
 761,42.43\C,0,23.857,-5.047,43.295\C,0,23.561,-2.508,43.175\C,0,26.359
 ,-4.129,41.13\C,0,26.945,-2.988,40.424\C,0,27.629,-3.354,39.106\O,0,28

 Normal termination of Gaussian 16 at Wed Apr 27 04:27:13 2022.
