 Gaussian 16, Revision A.03,
 Gaussian 16:  ES64L-G16RevA.03 25-Dec-2016

 ------------------------------
 #p blyp/Def2SVP td=(nstates=5)
 ------------------------------

 --------------------------------------------------
 step_401_chromophore_24 TDDFT with blyp functional
 --------------------------------------------------
 Symbolic Z-matrix:
 Charge =  0 Multiplicity = 1

                         Standard orientation:
 ---------------------------------------------------------------------
 Center     Atomic      Atomic             Coordinates (Angstroms)
 Number     Number       Type             X           Y           Z
 ---------------------------------------------------------------------
      1         12           0        5.146505    1.113681    0.147708
      2          6           0        4.225620   -2.332457    0.081260
      3          6           0        1.787551    1.815815   -0.327565
      4          6           0        6.003423    4.290463   -0.052600
      5          6           0        8.562355    0.106705   -0.028682
      6          7           0        3.213255   -0.143905    0.012329
      7          6           0        3.115050   -1.509552    0.057117
      8          6           0        1.668327   -1.993412    0.060599
      9          6           0        0.863104   -0.628974   -0.317933
     10          6           0        1.979549    0.420437   -0.178123
     11          6           0        0.156885   -0.547912   -1.709687
     12          6           0        1.325585   -2.675936    1.455176
     13          6           0        0.456631   -3.892230    1.341393
     14          6           0       -0.371712   -4.074542    0.070527
     15          8           0       -0.092926   -4.685886   -0.947665
     16          8           0       -1.617944   -3.521032    0.267543
     17          7           0        4.080366    2.843968    0.039597
     18          6           0        2.741139    2.876708   -0.190335
     19          6           0        2.484043    4.327261   -0.232688
     20          6           0        3.570929    5.119633   -0.199229
     21          6           0        4.649716    4.054576   -0.091427
     22          6           0        1.096336    4.813208   -0.468865
     23          6           0        3.785970    6.664182   -0.203866
     24          8           0        4.881664    7.204118   -0.074236
     25          6           0        2.587712    7.526572   -0.321399
     26          7           0        6.987821    2.061648   -0.070373
     27          6           0        7.115527    3.391006   -0.072937
     28          6           0        8.597396    3.920933    0.033324
     29          6           0        9.329429    2.519142    0.121398
     30          6           0        8.218853    1.492856    0.055883
     31          6           0        8.988125    4.906035   -1.099189
     32          6           0       10.194861    2.530361    1.406005
     33          6           0        9.488596    2.483300    2.728280
     34          7           0        6.211786   -0.710414   -0.023428
     35          6           0        7.597398   -0.951367   -0.081392
     36          6           0        7.796765   -2.328192   -0.044828
     37          6           0        6.526513   -2.928600   -0.096323
     38          6           0        5.556020   -1.879546   -0.131665
     39          6           0        9.042077   -3.042765   -0.130760
     40          6           0        5.799850   -4.217495   -0.125824
     41          8           0        6.226451   -5.386162   -0.102686
     42          6           0        4.293624   -3.807017    0.101688
     43          6           0        3.604956   -4.493256   -1.000961
     44          8           0        3.323507   -3.983642   -2.109124
     45          8           0        3.262037   -5.733773   -0.495960
     46          6           0        2.630911   -6.563772   -1.494648
     47          6           0       -2.655371   -3.619653   -0.751425
     48          6           0       -4.049238   -3.239094   -0.390965
     49          6           0       -5.170186   -3.341594   -1.162865
     50          6           0       -5.133164   -3.940448   -2.565401
     51          6           0       -6.531700   -2.904718   -0.577266
     52          6           0       -6.868524   -3.426271    0.853139
     53          6           0       -6.696526   -2.337735    1.897832
     54          6           0       -8.025689   -1.795114    2.506875
     55          6           0       -8.250882   -2.525896    3.869338
     56          6           0       -8.103981   -0.218544    2.550683
     57          6           0       -8.864965    0.305572    1.278299
     58          6           0      -10.236883    1.064915    1.570715
     59          6           0      -10.802163    1.925715    0.417227
     60          6           0      -10.266909    3.420685    0.426429
     61          6           0      -12.300391    1.941304    0.571302
     62          6           0      -12.983659    1.197933   -0.536522
     63          6           0      -13.446526    2.224958   -1.649376
     64          6           0      -14.601074    3.166825   -1.169959
     65          6           0      -15.874465    2.349453   -1.089174
     66          6           0      -14.757416    4.428901   -2.021541
     67          1           0        0.728890    2.024848   -0.493920
     68          1           0        6.283208    5.342162   -0.138179
     69          1           0        9.579952   -0.247271    0.146002
     70          1           0        1.529824   -2.576468   -0.849268
     71          1           0        0.256159   -0.411961    0.560158
     72          1           0       -0.915434   -0.582763   -1.515896
     73          1           0        0.295996   -1.386006   -2.393113
     74          1           0        0.342056    0.407106   -2.200137
     75          1           0        0.795606   -1.937434    2.057698
     76          1           0        2.236541   -2.840872    2.031385
     77          1           0       -0.224653   -3.802567    2.186699
     78          1           0        1.175548   -4.709049    1.406010
     79          1           0        1.109489    5.565880   -1.256589
     80          1           0        0.737258    5.282243    0.447075
     81          1           0        0.449542    3.972796   -0.721640
     82          1           0        2.258160    7.661498   -1.351708
     83          1           0        2.964795    8.471643    0.068231
     84          1           0        1.803443    7.296372    0.399921
     85          1           0        8.664171    4.390381    1.013777
     86          1           0        9.986864    2.381728   -0.737177
     87          1           0        9.706633    4.437155   -1.770903
     88          1           0        9.469775    5.784518   -0.668423
     89          1           0        8.155455    5.215128   -1.731676
     90          1           0       10.783064    3.448602    1.393096
     91          1           0       10.877058    1.681249    1.358681
     92          1           0        9.713244    1.528372    3.201683
     93          1           0        8.411238    2.392153    2.593791
     94          1           0        9.816071    3.286009    3.388336
     95          1           0        8.720510   -4.083968   -0.137415
     96          1           0        9.739781   -2.807458    0.673430
     97          1           0        9.656502   -2.774977   -0.990924
     98          1           0        3.945204   -4.170810    1.067994
     99          1           0        3.025588   -7.568242   -1.344231
    100          1           0        2.762256   -6.395957   -2.563664
    101          1           0        1.547757   -6.604420   -1.374932
    102          1           0       -2.734801   -4.646263   -1.109793
    103          1           0       -2.405322   -3.005400   -1.616562
    104          1           0       -4.170419   -2.707097    0.552699
    105          1           0       -5.907418   -4.701633   -2.654046
    106          1           0       -4.215775   -4.502109   -2.741923
    107          1           0       -5.259922   -3.041566   -3.168913
    108          1           0       -7.331442   -3.122419   -1.284992
    109          1           0       -6.604213   -1.817157   -0.615918
    110          1           0       -6.278869   -4.341849    0.902351
    111          1           0       -7.904522   -3.766764    0.851384
    112          1           0       -6.119677   -1.510300    1.482752
    113          1           0       -5.956364   -2.804329    2.548641
    114          1           0       -8.911568   -2.183518    2.005018
    115          1           0       -8.157584   -1.834508    4.707842
    116          1           0       -7.519064   -3.280412    4.157745
    117          1           0       -9.181824   -3.092950    3.870904
    118          1           0       -7.068005    0.119987    2.529240
    119          1           0       -8.547261    0.094366    3.495813
    120          1           0       -9.050324   -0.518424    0.588781
    121          1           0       -8.212027    1.036837    0.801227
    122          1           0      -10.082904    1.645424    2.480394
    123          1           0      -10.946927    0.266402    1.784153
    124          1           0      -10.401453    1.418202   -0.460239
    125          1           0      -10.975380    4.173832    0.770710
    126          1           0       -9.888228    3.676362   -0.563397
    127          1           0       -9.439905    3.407271    1.135954
    128          1           0      -12.646134    2.970852    0.662702
    129          1           0      -12.685219    1.456353    1.468701
    130          1           0      -13.847546    0.641455   -0.174032
    131          1           0      -12.301971    0.467148   -0.973580
    132          1           0      -13.653987    1.661840   -2.558749
    133          1           0      -12.614436    2.884011   -1.895929
    134          1           0      -14.478820    3.471080   -0.130114
    135          1           0      -16.639133    2.784178   -0.446037
    136          1           0      -15.625532    1.340379   -0.761357
    137          1           0      -16.534819    2.200740   -1.943915
    138          1           0      -14.162863    5.239517   -1.601398
    139          1           0      -15.758700    4.779088   -2.270324
    140          1           0      -14.336567    4.183349   -2.996701
 ---------------------------------------------------------------------

 SCF Done:  E(RB-LYP) =  -3007.36658141     A.U. after   21 cycles

 Excitation energies and oscillator strengths:

 Excited State   1:      Singlet-A      1.8059 eV  686.53 nm  f=0.2942  <S**2>=0.000
     245 -> 248       -0.16688
     245 -> 249       -0.11240
     246 -> 247        0.68309
     246 <- 247       -0.13809
 This state for optimization and/or second-order correction.
 Total Energy, E(TD-HF/TD-DFT) =  -3007.30021428
 Copying the excited state density for this state as the 1-particle RhoCI density.

 Excited State   2:      Singlet-A      2.0027 eV  619.07 nm  f=0.0049  <S**2>=0.000
     244 -> 247        0.69578
     245 -> 247       -0.10054

 Excited State   3:      Singlet-A      2.0588 eV  602.21 nm  f=0.0565  <S**2>=0.000
     243 -> 247        0.10171
     244 -> 247        0.10956
     245 -> 247        0.62569
     246 -> 248        0.24725
     246 -> 249        0.13562

 Excited State   4:      Singlet-A      2.3864 eV  519.55 nm  f=0.0001  <S**2>=0.000
     242 -> 247        0.70708

 Excited State   5:      Singlet-A      2.4445 eV  507.20 nm  f=0.0025  <S**2>=0.000
     241 -> 247       -0.33266
     243 -> 247        0.59544
     246 -> 248       -0.14575

 The electronic state is 1-A.
 Alpha  occ. eigenvalues --  -46.26837 -18.82640 -18.81957 -18.77751 -18.76829
 Alpha  occ. eigenvalues --  -18.76130 -18.75491 -14.03331 -14.02929 -14.01458
 Alpha  occ. eigenvalues --  -14.00062 -10.05096 -10.03142 -10.01178  -9.99499
 Alpha  occ. eigenvalues --   -9.98456  -9.96530  -9.96436  -9.96429  -9.96247
 Alpha  occ. eigenvalues --   -9.95777  -9.95713  -9.95358  -9.94540  -9.94245
 Alpha  occ. eigenvalues --   -9.94125  -9.93918  -9.93870  -9.93802  -9.93688
 Alpha  occ. eigenvalues --   -9.93454  -9.93339  -9.93313  -9.93213  -9.93032
 Alpha  occ. eigenvalues --   -9.92971  -9.92767  -9.92756  -9.92570  -9.92567
 Alpha  occ. eigenvalues --   -9.92543  -9.92333  -9.92268  -9.92213  -9.92178
 Alpha  occ. eigenvalues --   -9.92163  -9.92136  -9.92071  -9.92063  -9.91978
 Alpha  occ. eigenvalues --   -9.91848  -9.91794  -9.91642  -9.91550  -9.91518
 Alpha  occ. eigenvalues --   -9.91436  -9.91435  -9.91411  -9.91249  -9.91197
 Alpha  occ. eigenvalues --   -9.90958  -9.90887  -9.90814  -9.90354  -9.90264
 Alpha  occ. eigenvalues --   -9.90222  -2.91492  -1.71931  -1.71380  -1.71189
 Alpha  occ. eigenvalues --   -0.98305  -0.96597  -0.92388  -0.90502  -0.89754
 Alpha  occ. eigenvalues --   -0.88478  -0.86900  -0.86160  -0.85319  -0.84378
 Alpha  occ. eigenvalues --   -0.75226  -0.73842  -0.73551  -0.73026  -0.72478
 Alpha  occ. eigenvalues --   -0.71952  -0.71710  -0.71041  -0.70943  -0.70250
 Alpha  occ. eigenvalues --   -0.70059  -0.69142  -0.68314  -0.67242  -0.67159
 Alpha  occ. eigenvalues --   -0.66602  -0.66241  -0.65593  -0.64923  -0.64424
 Alpha  occ. eigenvalues --   -0.64101  -0.62266  -0.62160  -0.61662  -0.60436
 Alpha  occ. eigenvalues --   -0.60379  -0.59936  -0.59788  -0.59510  -0.59014
 Alpha  occ. eigenvalues --   -0.58790  -0.57356  -0.56770  -0.55748  -0.54832
 Alpha  occ. eigenvalues --   -0.54195  -0.53384  -0.52755  -0.52525  -0.51746
 Alpha  occ. eigenvalues --   -0.51470  -0.51200  -0.50552  -0.50319  -0.50179
 Alpha  occ. eigenvalues --   -0.50119  -0.50049  -0.48480  -0.47583  -0.46339
 Alpha  occ. eigenvalues --   -0.46205  -0.45941  -0.45473  -0.44716  -0.44218
 Alpha  occ. eigenvalues --   -0.43950  -0.43518  -0.43027  -0.42743  -0.42379
 Alpha  occ. eigenvalues --   -0.42212  -0.41789  -0.41571  -0.41476  -0.41160
 Alpha  occ. eigenvalues --   -0.40850  -0.40807  -0.40565  -0.40461  -0.40250
 Alpha  occ. eigenvalues --   -0.40075  -0.40014  -0.39878  -0.39674  -0.39462
 Alpha  occ. eigenvalues --   -0.39361  -0.39037  -0.38909  -0.38435  -0.38138
 Alpha  occ. eigenvalues --   -0.37821  -0.37808  -0.37761  -0.37325  -0.37277
 Alpha  occ. eigenvalues --   -0.36957  -0.36907  -0.36884  -0.36747  -0.36483
 Alpha  occ. eigenvalues --   -0.36467  -0.36184  -0.36037  -0.35896  -0.35496
 Alpha  occ. eigenvalues --   -0.35397  -0.35270  -0.35195  -0.35020  -0.34628
 Alpha  occ. eigenvalues --   -0.34559  -0.34398  -0.33952  -0.33880  -0.33644
 Alpha  occ. eigenvalues --   -0.33552  -0.33268  -0.33085  -0.33004  -0.32860
 Alpha  occ. eigenvalues --   -0.32753  -0.32623  -0.32255  -0.32046  -0.32038
 Alpha  occ. eigenvalues --   -0.31855  -0.31676  -0.31573  -0.31436  -0.31297
 Alpha  occ. eigenvalues --   -0.31201  -0.30981  -0.30769  -0.30760  -0.30551
 Alpha  occ. eigenvalues --   -0.30515  -0.30254  -0.30135  -0.30073  -0.29950
 Alpha  occ. eigenvalues --   -0.29646  -0.29498  -0.29484  -0.29063  -0.28865
 Alpha  occ. eigenvalues --   -0.28553  -0.28455  -0.28263  -0.27698  -0.27683
 Alpha  occ. eigenvalues --   -0.27456  -0.27440  -0.26843  -0.26768  -0.26453
 Alpha  occ. eigenvalues --   -0.26161  -0.26128  -0.25996  -0.25580  -0.25431
 Alpha  occ. eigenvalues --   -0.25398  -0.24367  -0.24090  -0.23990  -0.23475
 Alpha  occ. eigenvalues --   -0.22984  -0.22644  -0.22136  -0.21285  -0.21127
 Alpha  occ. eigenvalues --   -0.19969  -0.19832  -0.19512  -0.18317  -0.17090
 Alpha  occ. eigenvalues --   -0.15467
 Alpha virt. eigenvalues --   -0.11063  -0.07064  -0.06059  -0.04901  -0.03861
 Alpha virt. eigenvalues --   -0.02145  -0.02098  -0.01787  -0.01277   0.00353
 Alpha virt. eigenvalues --    0.01598   0.01743   0.02493   0.02674   0.02888

 Mulliken charges:
               1
     1  Mg   0.692441
     2  C    0.015646
     3  C   -0.058560
     4  C   -0.054256
     5  C   -0.077791
     6  N   -0.189552
     7  C   -0.081174
     8  C   -0.022555
     9  C    0.043630
    10  C   -0.074996
    11  C    0.126310
    12  C    0.114842
    13  C    0.191202
    14  C    0.081883
    15  O   -0.178878
    16  O   -0.280230
    17  N   -0.296441
    18  C    0.189557
    19  C   -0.170017
    20  C    0.048097
    21  C    0.090151
    22  C    0.177810
    23  C   -0.053361
    24  O   -0.152339
    25  C    0.125895
    26  N   -0.204444
    27  C   -0.022084
    28  C    0.010701
    29  C    0.044374
    30  C    0.050417
    31  C    0.142916
    32  C    0.057953
    33  C    0.081357
    34  N   -0.279349
    35  C    0.108012
    36  C   -0.162336
    37  C    0.046517
    38  C    0.060318
    39  C    0.171861
    40  C   -0.027306
    41  O   -0.151346
    42  C    0.070291
    43  C    0.143003
    44  O   -0.207078
    45  O   -0.254932
    46  C    0.214291
    47  C    0.316099
    48  C   -0.109592
    49  C   -0.198006
    50  C    0.152363
    51  C    0.113210
    52  C    0.080088
    53  C    0.108148
    54  C   -0.080453
    55  C    0.082962
    56  C    0.142234
    57  C    0.040640
    58  C    0.062931
    59  C   -0.059048
    60  C    0.105385
    61  C    0.130232
    62  C    0.079435
    63  C    0.086488
    64  C   -0.052752
    65  C    0.079915
    66  C    0.122521
    67  H   -0.060630
    68  H   -0.049759
    69  H   -0.056702
    70  H    0.017762
    71  H   -0.030848
    72  H   -0.012133
    73  H    0.021665
    74  H   -0.002175
    75  H   -0.031439
    76  H   -0.009311
    77  H   -0.007223
    78  H    0.004485
    79  H   -0.000269
    80  H   -0.001866
    81  H   -0.022636
    82  H    0.031913
    83  H   -0.014593
    84  H    0.002254
    85  H   -0.011583
    86  H   -0.028900
    87  H   -0.018863
    88  H   -0.006407
    89  H    0.006776
    90  H   -0.022136
    91  H   -0.026143
    92  H   -0.018877
    93  H   -0.003433
    94  H   -0.001863
    95  H    0.014034
    96  H   -0.020662
    97  H   -0.009322
    98  H    0.005789
    99  H   -0.003028
   100  H    0.011497
   101  H    0.011875
   102  H    0.008480
   103  H    0.004409
   104  H   -0.039206
   105  H   -0.000411
   106  H   -0.013037
   107  H    0.017387
   108  H   -0.057603
   109  H   -0.021676
   110  H   -0.026200
   111  H   -0.034719
   112  H   -0.027288
   113  H   -0.023221
   114  H   -0.025044
   115  H   -0.021812
   116  H   -0.027298
   117  H   -0.015951
   118  H   -0.033477
   119  H   -0.031251
   120  H   -0.014044
   121  H   -0.034529
   122  H   -0.031042
   123  H   -0.032817
   124  H   -0.034437
   125  H   -0.007864
   126  H   -0.009043
   127  H   -0.025820
   128  H   -0.037850
   129  H   -0.041040
   130  H   -0.034686
   131  H   -0.036433
   132  H   -0.031638
   133  H   -0.043869
   134  H   -0.024131
   135  H   -0.030620
   136  H   -0.028992
   137  H   -0.034522
   138  H   -0.014918
   139  H   -0.017462
   140  H   -0.026821
 Sum of Mulliken charges =  -0.00000

 Dipole moment (field-independent basis, Debye):
    X=             -4.8001    Y=              3.5897    Z=              2.0412  Tot=              6.3319
 Quadrupole moment (field-independent basis, Debye-Ang):
   XX=           -388.7774   YY=           -433.3600   ZZ=           -405.3641
   XY=             26.2253   XZ=             12.7185   YZ=             -5.7055

 Normal termination of Gaussian 16 at Wed May  4 20:51:10 2022.
