 Gaussian 16, Revision A.03,
 Gaussian 16:  ES64L-G16RevA.03 25-Dec-2016

 -----------------------------------
 #p cam-b3lyp/Def2SVP td=(nstates=5)
 -----------------------------------

 -------------------------------------------------------
 step_401_chromophore_24 TDDFT with cam-b3lyp functional
 -------------------------------------------------------
 Symbolic Z-matrix:
 Charge =  0 Multiplicity = 1

                         Standard orientation:
 ---------------------------------------------------------------------
 Center     Atomic      Atomic             Coordinates (Angstroms)
 Number     Number       Type             X           Y           Z
 ---------------------------------------------------------------------
      1         12           0        5.146505    1.113681    0.147708
      2          6           0        4.225620   -2.332457    0.081260
      3          6           0        1.787551    1.815815   -0.327565
      4          6           0        6.003423    4.290463   -0.052600
      5          6           0        8.562355    0.106705   -0.028682
      6          7           0        3.213255   -0.143905    0.012329
      7          6           0        3.115050   -1.509552    0.057117
      8          6           0        1.668327   -1.993412    0.060599
      9          6           0        0.863104   -0.628974   -0.317933
     10          6           0        1.979549    0.420437   -0.178123
     11          6           0        0.156885   -0.547912   -1.709687
     12          6           0        1.325585   -2.675936    1.455176
     13          6           0        0.456631   -3.892230    1.341393
     14          6           0       -0.371712   -4.074542    0.070527
     15          8           0       -0.092926   -4.685886   -0.947665
     16          8           0       -1.617944   -3.521032    0.267543
     17          7           0        4.080366    2.843968    0.039597
     18          6           0        2.741139    2.876708   -0.190335
     19          6           0        2.484043    4.327261   -0.232688
     20          6           0        3.570929    5.119633   -0.199229
     21          6           0        4.649716    4.054576   -0.091427
     22          6           0        1.096336    4.813208   -0.468865
     23          6           0        3.785970    6.664182   -0.203866
     24          8           0        4.881664    7.204118   -0.074236
     25          6           0        2.587712    7.526572   -0.321399
     26          7           0        6.987821    2.061648   -0.070373
     27          6           0        7.115527    3.391006   -0.072937
     28          6           0        8.597396    3.920933    0.033324
     29          6           0        9.329429    2.519142    0.121398
     30          6           0        8.218853    1.492856    0.055883
     31          6           0        8.988125    4.906035   -1.099189
     32          6           0       10.194861    2.530361    1.406005
     33          6           0        9.488596    2.483300    2.728280
     34          7           0        6.211786   -0.710414   -0.023428
     35          6           0        7.597398   -0.951367   -0.081392
     36          6           0        7.796765   -2.328192   -0.044828
     37          6           0        6.526513   -2.928600   -0.096323
     38          6           0        5.556020   -1.879546   -0.131665
     39          6           0        9.042077   -3.042765   -0.130760
     40          6           0        5.799850   -4.217495   -0.125824
     41          8           0        6.226451   -5.386162   -0.102686
     42          6           0        4.293624   -3.807017    0.101688
     43          6           0        3.604956   -4.493256   -1.000961
     44          8           0        3.323507   -3.983642   -2.109124
     45          8           0        3.262037   -5.733773   -0.495960
     46          6           0        2.630911   -6.563772   -1.494648
     47          6           0       -2.655371   -3.619653   -0.751425
     48          6           0       -4.049238   -3.239094   -0.390965
     49          6           0       -5.170186   -3.341594   -1.162865
     50          6           0       -5.133164   -3.940448   -2.565401
     51          6           0       -6.531700   -2.904718   -0.577266
     52          6           0       -6.868524   -3.426271    0.853139
     53          6           0       -6.696526   -2.337735    1.897832
     54          6           0       -8.025689   -1.795114    2.506875
     55          6           0       -8.250882   -2.525896    3.869338
     56          6           0       -8.103981   -0.218544    2.550683
     57          6           0       -8.864965    0.305572    1.278299
     58          6           0      -10.236883    1.064915    1.570715
     59          6           0      -10.802163    1.925715    0.417227
     60          6           0      -10.266909    3.420685    0.426429
     61          6           0      -12.300391    1.941304    0.571302
     62          6           0      -12.983659    1.197933   -0.536522
     63          6           0      -13.446526    2.224958   -1.649376
     64          6           0      -14.601074    3.166825   -1.169959
     65          6           0      -15.874465    2.349453   -1.089174
     66          6           0      -14.757416    4.428901   -2.021541
     67          1           0        0.728890    2.024848   -0.493920
     68          1           0        6.283208    5.342162   -0.138179
     69          1           0        9.579952   -0.247271    0.146002
     70          1           0        1.529824   -2.576468   -0.849268
     71          1           0        0.256159   -0.411961    0.560158
     72          1           0       -0.915434   -0.582763   -1.515896
     73          1           0        0.295996   -1.386006   -2.393113
     74          1           0        0.342056    0.407106   -2.200137
     75          1           0        0.795606   -1.937434    2.057698
     76          1           0        2.236541   -2.840872    2.031385
     77          1           0       -0.224653   -3.802567    2.186699
     78          1           0        1.175548   -4.709049    1.406010
     79          1           0        1.109489    5.565880   -1.256589
     80          1           0        0.737258    5.282243    0.447075
     81          1           0        0.449542    3.972796   -0.721640
     82          1           0        2.258160    7.661498   -1.351708
     83          1           0        2.964795    8.471643    0.068231
     84          1           0        1.803443    7.296372    0.399921
     85          1           0        8.664171    4.390381    1.013777
     86          1           0        9.986864    2.381728   -0.737177
     87          1           0        9.706633    4.437155   -1.770903
     88          1           0        9.469775    5.784518   -0.668423
     89          1           0        8.155455    5.215128   -1.731676
     90          1           0       10.783064    3.448602    1.393096
     91          1           0       10.877058    1.681249    1.358681
     92          1           0        9.713244    1.528372    3.201683
     93          1           0        8.411238    2.392153    2.593791
     94          1           0        9.816071    3.286009    3.388336
     95          1           0        8.720510   -4.083968   -0.137415
     96          1           0        9.739781   -2.807458    0.673430
     97          1           0        9.656502   -2.774977   -0.990924
     98          1           0        3.945204   -4.170810    1.067994
     99          1           0        3.025588   -7.568242   -1.344231
    100          1           0        2.762256   -6.395957   -2.563664
    101          1           0        1.547757   -6.604420   -1.374932
    102          1           0       -2.734801   -4.646263   -1.109793
    103          1           0       -2.405322   -3.005400   -1.616562
    104          1           0       -4.170419   -2.707097    0.552699
    105          1           0       -5.907418   -4.701633   -2.654046
    106          1           0       -4.215775   -4.502109   -2.741923
    107          1           0       -5.259922   -3.041566   -3.168913
    108          1           0       -7.331442   -3.122419   -1.284992
    109          1           0       -6.604213   -1.817157   -0.615918
    110          1           0       -6.278869   -4.341849    0.902351
    111          1           0       -7.904522   -3.766764    0.851384
    112          1           0       -6.119677   -1.510300    1.482752
    113          1           0       -5.956364   -2.804329    2.548641
    114          1           0       -8.911568   -2.183518    2.005018
    115          1           0       -8.157584   -1.834508    4.707842
    116          1           0       -7.519064   -3.280412    4.157745
    117          1           0       -9.181824   -3.092950    3.870904
    118          1           0       -7.068005    0.119987    2.529240
    119          1           0       -8.547261    0.094366    3.495813
    120          1           0       -9.050324   -0.518424    0.588781
    121          1           0       -8.212027    1.036837    0.801227
    122          1           0      -10.082904    1.645424    2.480394
    123          1           0      -10.946927    0.266402    1.784153
    124          1           0      -10.401453    1.418202   -0.460239
    125          1           0      -10.975380    4.173832    0.770710
    126          1           0       -9.888228    3.676362   -0.563397
    127          1           0       -9.439905    3.407271    1.135954
    128          1           0      -12.646134    2.970852    0.662702
    129          1           0      -12.685219    1.456353    1.468701
    130          1           0      -13.847546    0.641455   -0.174032
    131          1           0      -12.301971    0.467148   -0.973580
    132          1           0      -13.653987    1.661840   -2.558749
    133          1           0      -12.614436    2.884011   -1.895929
    134          1           0      -14.478820    3.471080   -0.130114
    135          1           0      -16.639133    2.784178   -0.446037
    136          1           0      -15.625532    1.340379   -0.761357
    137          1           0      -16.534819    2.200740   -1.943915
    138          1           0      -14.162863    5.239517   -1.601398
    139          1           0      -15.758700    4.779088   -2.270324
    140          1           0      -14.336567    4.183349   -2.996701
 ---------------------------------------------------------------------

 SCF Done:  E(RCAM-B3LYP) =  -3007.16371910     A.U. after   18 cycles

 Excitation energies and oscillator strengths:

 Excited State   1:      Singlet-A      1.7817 eV  695.86 nm  f=0.3606  <S**2>=0.000
     245 -> 248        0.17085
     246 -> 247        0.68508
 This state for optimization and/or second-order correction.
 Total Energy, E(TD-HF/TD-DFT) =  -3007.09824137
 Copying the excited state density for this state as the 1-particle RhoCI density.

 Excited State   2:      Singlet-A      2.3078 eV  537.24 nm  f=0.0759  <S**2>=0.000
     245 -> 247        0.61669
     246 -> 248       -0.32530

 Excited State   3:      Singlet-A      3.3860 eV  366.17 nm  f=0.0234  <S**2>=0.000
     244 -> 247        0.64916
     246 -> 248        0.22300

 Excited State   4:      Singlet-A      3.5147 eV  352.76 nm  f=0.7580  <S**2>=0.000
     241 -> 247        0.10170
     244 -> 247       -0.21213
     245 -> 247        0.31838
     246 -> 248        0.57705
     245 <- 247       -0.10003

 Excited State   5:      Singlet-A      3.5675 eV  347.54 nm  f=0.0008  <S**2>=0.000
     242 -> 247        0.55416
     242 -> 249        0.25702
     242 -> 250        0.31168

 The electronic state is 1-A.
 Alpha  occ. eigenvalues --  -46.88380 -19.25410 -19.24760 -19.20686 -19.20610
 Alpha  occ. eigenvalues --  -19.19063 -19.18173 -14.42243 -14.41759 -14.40192
 Alpha  occ. eigenvalues --  -14.38118 -10.40359 -10.38557 -10.36938 -10.34503
 Alpha  occ. eigenvalues --  -10.32424 -10.31543 -10.31449 -10.31370 -10.30677
 Alpha  occ. eigenvalues --  -10.30237 -10.29901 -10.29121 -10.28694 -10.28485
 Alpha  occ. eigenvalues --  -10.27966 -10.27913 -10.27911 -10.27765 -10.27720
 Alpha  occ. eigenvalues --  -10.27683 -10.27553 -10.27535 -10.27479 -10.27076
 Alpha  occ. eigenvalues --  -10.27016 -10.26952 -10.26753 -10.26583 -10.26558
 Alpha  occ. eigenvalues --  -10.26473 -10.26431 -10.26355 -10.26078 -10.25949
 Alpha  occ. eigenvalues --  -10.25887 -10.25884 -10.25797 -10.25795 -10.25790
 Alpha  occ. eigenvalues --  -10.25723 -10.25602 -10.25411 -10.25324 -10.25236
 Alpha  occ. eigenvalues --  -10.25165 -10.25092 -10.24908 -10.24886 -10.24874
 Alpha  occ. eigenvalues --  -10.24476 -10.24434 -10.24164 -10.23959 -10.23828
 Alpha  occ. eigenvalues --  -10.23670  -3.16940  -1.91855  -1.91398  -1.91233
 Alpha  occ. eigenvalues --   -1.16682  -1.14918  -1.11318  -1.08270  -1.07633
 Alpha  occ. eigenvalues --   -1.06278  -1.04934  -1.03956  -1.02892  -1.01520
 Alpha  occ. eigenvalues --   -0.92093  -0.90711  -0.90391  -0.89748  -0.89287
 Alpha  occ. eigenvalues --   -0.88777  -0.88644  -0.87853  -0.87631  -0.86812
 Alpha  occ. eigenvalues --   -0.86190  -0.85484  -0.84587  -0.83483  -0.83162
 Alpha  occ. eigenvalues --   -0.82875  -0.82646  -0.81468  -0.80733  -0.80216
 Alpha  occ. eigenvalues --   -0.79905  -0.78254  -0.77656  -0.77080  -0.75835
 Alpha  occ. eigenvalues --   -0.75707  -0.75266  -0.75069  -0.74690  -0.74215
 Alpha  occ. eigenvalues --   -0.73831  -0.72199  -0.71698  -0.70536  -0.69455
 Alpha  occ. eigenvalues --   -0.68812  -0.68183  -0.67172  -0.67029  -0.66010
 Alpha  occ. eigenvalues --   -0.65731  -0.65187  -0.64426  -0.64288  -0.64196
 Alpha  occ. eigenvalues --   -0.64078  -0.63887  -0.62295  -0.61201  -0.60160
 Alpha  occ. eigenvalues --   -0.59730  -0.59381  -0.59019  -0.58148  -0.57649
 Alpha  occ. eigenvalues --   -0.57398  -0.56754  -0.56197  -0.55803  -0.55424
 Alpha  occ. eigenvalues --   -0.55304  -0.54963  -0.54611  -0.54261  -0.54078
 Alpha  occ. eigenvalues --   -0.53846  -0.53677  -0.53609  -0.53329  -0.53093
 Alpha  occ. eigenvalues --   -0.52829  -0.52516  -0.52449  -0.52316  -0.52172
 Alpha  occ. eigenvalues --   -0.51886  -0.51479  -0.51359  -0.50973  -0.50681
 Alpha  occ. eigenvalues --   -0.50506  -0.50172  -0.50065  -0.49936  -0.49633
 Alpha  occ. eigenvalues --   -0.49472  -0.49400  -0.49048  -0.48948  -0.48852
 Alpha  occ. eigenvalues --   -0.48641  -0.48529  -0.48307  -0.48050  -0.47879
 Alpha  occ. eigenvalues --   -0.47677  -0.47218  -0.47031  -0.46995  -0.46512
 Alpha  occ. eigenvalues --   -0.46442  -0.46411  -0.45957  -0.45723  -0.45493
 Alpha  occ. eigenvalues --   -0.45432  -0.44919  -0.44727  -0.44629  -0.44387
 Alpha  occ. eigenvalues --   -0.44304  -0.44228  -0.43968  -0.43781  -0.43551
 Alpha  occ. eigenvalues --   -0.43499  -0.43396  -0.43278  -0.42971  -0.42797
 Alpha  occ. eigenvalues --   -0.42546  -0.42439  -0.42176  -0.42038  -0.42033
 Alpha  occ. eigenvalues --   -0.41800  -0.41712  -0.41613  -0.41367  -0.41327
 Alpha  occ. eigenvalues --   -0.41229  -0.40762  -0.40627  -0.40585  -0.39976
 Alpha  occ. eigenvalues --   -0.39692  -0.39619  -0.39171  -0.38566  -0.38561
 Alpha  occ. eigenvalues --   -0.38322  -0.38242  -0.37999  -0.37596  -0.37417
 Alpha  occ. eigenvalues --   -0.37146  -0.36810  -0.36770  -0.36565  -0.36260
 Alpha  occ. eigenvalues --   -0.36199  -0.35435  -0.34923  -0.34732  -0.34424
 Alpha  occ. eigenvalues --   -0.33784  -0.33438  -0.32761  -0.32699  -0.31987
 Alpha  occ. eigenvalues --   -0.30608  -0.29716  -0.29432  -0.28251  -0.23909
 Alpha  occ. eigenvalues --   -0.20758
 Alpha virt. eigenvalues --   -0.07911  -0.01743   0.00231   0.02102   0.02958
 Alpha virt. eigenvalues --    0.03969   0.05326   0.05556   0.06025   0.07189
 Alpha virt. eigenvalues --    0.07801   0.08627   0.08869   0.09086   0.09294

 Mulliken charges:
               1
     1  Mg   0.825207
     2  C   -0.012812
     3  C   -0.084639
     4  C   -0.075835
     5  C   -0.069380
     6  N   -0.259517
     7  C   -0.036655
     8  C   -0.080462
     9  C   -0.005530
    10  C   -0.040648
    11  C    0.064639
    12  C    0.068038
    13  C    0.118653
    14  C    0.157256
    15  O   -0.219253
    16  O   -0.345806
    17  N   -0.390446
    18  C    0.208710
    19  C   -0.176110
    20  C   -0.016729
    21  C    0.121504
    22  C    0.115133
    23  C    0.034170
    24  O   -0.189293
    25  C    0.036072
    26  N   -0.277357
    27  C    0.005647
    28  C   -0.043313
    29  C   -0.010132
    30  C    0.054143
    31  C    0.081695
    32  C    0.008533
    33  C    0.014097
    34  N   -0.364846
    35  C    0.102558
    36  C   -0.157329
    37  C   -0.037208
    38  C    0.103710
    39  C    0.111330
    40  C    0.069981
    41  O   -0.193133
    42  C   -0.009479
    43  C    0.224787
    44  O   -0.244122
    45  O   -0.315527
    46  C    0.173876
    47  C    0.289016
    48  C   -0.130297
    49  C   -0.220655
    50  C    0.090052
    51  C    0.062424
    52  C    0.020551
    53  C    0.050846
    54  C   -0.137036
    55  C    0.029113
    56  C    0.086836
    57  C   -0.008469
    58  C    0.017633
    59  C   -0.116762
    60  C    0.050034
    61  C    0.070354
    62  C    0.023621
    63  C    0.029458
    64  C   -0.116599
    65  C    0.025213
    66  C    0.060399
    67  H   -0.026126
    68  H   -0.009693
    69  H   -0.021688
    70  H    0.051031
    71  H    0.005230
    72  H    0.011534
    73  H    0.047666
    74  H    0.023382
    75  H   -0.001208
    76  H    0.022453
    77  H    0.028533
    78  H    0.035181
    79  H    0.026970
    80  H    0.027011
    81  H    0.008199
    82  H    0.061405
    83  H    0.023547
    84  H    0.032550
    85  H    0.023102
    86  H    0.006967
    87  H    0.007741
    88  H    0.018669
    89  H    0.031535
    90  H    0.005128
    91  H    0.002344
    92  H    0.007653
    93  H    0.017333
    94  H    0.021976
    95  H    0.040262
    96  H    0.003169
    97  H    0.015443
    98  H    0.047079
    99  H    0.020419
   100  H    0.037509
   101  H    0.033619
   102  H    0.034358
   103  H    0.027737
   104  H   -0.006156
   105  H    0.024072
   106  H    0.011629
   107  H    0.040113
   108  H   -0.024118
   109  H    0.006323
   110  H    0.006605
   111  H   -0.005130
   112  H   -0.002155
   113  H    0.005794
   114  H    0.005516
   115  H    0.001703
   116  H   -0.002146
   117  H    0.007761
   118  H   -0.003846
   119  H   -0.001851
   120  H    0.009272
   121  H   -0.007853
   122  H   -0.004241
   123  H   -0.005485
   124  H   -0.002830
   125  H    0.015259
   126  H    0.014071
   127  H   -0.002484
   128  H   -0.010160
   129  H   -0.009005
   130  H   -0.006207
   131  H   -0.007069
   132  H   -0.001515
   133  H   -0.015581
   134  H    0.006727
   135  H   -0.005044
   136  H   -0.006073
   137  H   -0.008619
   138  H    0.008804
   139  H    0.008352
   140  H   -0.002360
 Sum of Mulliken charges =  -0.00000

 Dipole moment (field-independent basis, Debye):
    X=             -5.6465    Y=              5.1035    Z=              2.0679  Tot=              7.8870
 Quadrupole moment (field-independent basis, Debye-Ang):
   XX=           -393.0300   YY=           -427.2466   ZZ=           -405.3194
   XY=             32.6390   XZ=             13.0732   YZ=             -6.3558

 Normal termination of Gaussian 16 at Wed May  4 19:30:49 2022.
