 Gaussian 16, Revision A.03,
 Gaussian 16:  ES64L-G16RevA.03 25-Dec-2016

 ---------------------------------
 #p PBE1PBE/Def2SVP td=(nstates=5)
 ---------------------------------

 -----------------------------------------------------
 step_401_chromophore_24 TDDFT with PBE1PBE functional
 -----------------------------------------------------
 Symbolic Z-matrix:
 Charge =  0 Multiplicity = 1

                         Standard orientation:
 ---------------------------------------------------------------------
 Center     Atomic      Atomic             Coordinates (Angstroms)
 Number     Number       Type             X           Y           Z
 ---------------------------------------------------------------------
      1         12           0        5.146505    1.113681    0.147708
      2          6           0        4.225620   -2.332457    0.081260
      3          6           0        1.787551    1.815815   -0.327565
      4          6           0        6.003423    4.290463   -0.052600
      5          6           0        8.562355    0.106705   -0.028682
      6          7           0        3.213255   -0.143905    0.012329
      7          6           0        3.115050   -1.509552    0.057117
      8          6           0        1.668327   -1.993412    0.060599
      9          6           0        0.863104   -0.628974   -0.317933
     10          6           0        1.979549    0.420437   -0.178123
     11          6           0        0.156885   -0.547912   -1.709687
     12          6           0        1.325585   -2.675936    1.455176
     13          6           0        0.456631   -3.892230    1.341393
     14          6           0       -0.371712   -4.074542    0.070527
     15          8           0       -0.092926   -4.685886   -0.947665
     16          8           0       -1.617944   -3.521032    0.267543
     17          7           0        4.080366    2.843968    0.039597
     18          6           0        2.741139    2.876708   -0.190335
     19          6           0        2.484043    4.327261   -0.232688
     20          6           0        3.570929    5.119633   -0.199229
     21          6           0        4.649716    4.054576   -0.091427
     22          6           0        1.096336    4.813208   -0.468865
     23          6           0        3.785970    6.664182   -0.203866
     24          8           0        4.881664    7.204118   -0.074236
     25          6           0        2.587712    7.526572   -0.321399
     26          7           0        6.987821    2.061648   -0.070373
     27          6           0        7.115527    3.391006   -0.072937
     28          6           0        8.597396    3.920933    0.033324
     29          6           0        9.329429    2.519142    0.121398
     30          6           0        8.218853    1.492856    0.055883
     31          6           0        8.988125    4.906035   -1.099189
     32          6           0       10.194861    2.530361    1.406005
     33          6           0        9.488596    2.483300    2.728280
     34          7           0        6.211786   -0.710414   -0.023428
     35          6           0        7.597398   -0.951367   -0.081392
     36          6           0        7.796765   -2.328192   -0.044828
     37          6           0        6.526513   -2.928600   -0.096323
     38          6           0        5.556020   -1.879546   -0.131665
     39          6           0        9.042077   -3.042765   -0.130760
     40          6           0        5.799850   -4.217495   -0.125824
     41          8           0        6.226451   -5.386162   -0.102686
     42          6           0        4.293624   -3.807017    0.101688
     43          6           0        3.604956   -4.493256   -1.000961
     44          8           0        3.323507   -3.983642   -2.109124
     45          8           0        3.262037   -5.733773   -0.495960
     46          6           0        2.630911   -6.563772   -1.494648
     47          6           0       -2.655371   -3.619653   -0.751425
     48          6           0       -4.049238   -3.239094   -0.390965
     49          6           0       -5.170186   -3.341594   -1.162865
     50          6           0       -5.133164   -3.940448   -2.565401
     51          6           0       -6.531700   -2.904718   -0.577266
     52          6           0       -6.868524   -3.426271    0.853139
     53          6           0       -6.696526   -2.337735    1.897832
     54          6           0       -8.025689   -1.795114    2.506875
     55          6           0       -8.250882   -2.525896    3.869338
     56          6           0       -8.103981   -0.218544    2.550683
     57          6           0       -8.864965    0.305572    1.278299
     58          6           0      -10.236883    1.064915    1.570715
     59          6           0      -10.802163    1.925715    0.417227
     60          6           0      -10.266909    3.420685    0.426429
     61          6           0      -12.300391    1.941304    0.571302
     62          6           0      -12.983659    1.197933   -0.536522
     63          6           0      -13.446526    2.224958   -1.649376
     64          6           0      -14.601074    3.166825   -1.169959
     65          6           0      -15.874465    2.349453   -1.089174
     66          6           0      -14.757416    4.428901   -2.021541
     67          1           0        0.728890    2.024848   -0.493920
     68          1           0        6.283208    5.342162   -0.138179
     69          1           0        9.579952   -0.247271    0.146002
     70          1           0        1.529824   -2.576468   -0.849268
     71          1           0        0.256159   -0.411961    0.560158
     72          1           0       -0.915434   -0.582763   -1.515896
     73          1           0        0.295996   -1.386006   -2.393113
     74          1           0        0.342056    0.407106   -2.200137
     75          1           0        0.795606   -1.937434    2.057698
     76          1           0        2.236541   -2.840872    2.031385
     77          1           0       -0.224653   -3.802567    2.186699
     78          1           0        1.175548   -4.709049    1.406010
     79          1           0        1.109489    5.565880   -1.256589
     80          1           0        0.737258    5.282243    0.447075
     81          1           0        0.449542    3.972796   -0.721640
     82          1           0        2.258160    7.661498   -1.351708
     83          1           0        2.964795    8.471643    0.068231
     84          1           0        1.803443    7.296372    0.399921
     85          1           0        8.664171    4.390381    1.013777
     86          1           0        9.986864    2.381728   -0.737177
     87          1           0        9.706633    4.437155   -1.770903
     88          1           0        9.469775    5.784518   -0.668423
     89          1           0        8.155455    5.215128   -1.731676
     90          1           0       10.783064    3.448602    1.393096
     91          1           0       10.877058    1.681249    1.358681
     92          1           0        9.713244    1.528372    3.201683
     93          1           0        8.411238    2.392153    2.593791
     94          1           0        9.816071    3.286009    3.388336
     95          1           0        8.720510   -4.083968   -0.137415
     96          1           0        9.739781   -2.807458    0.673430
     97          1           0        9.656502   -2.774977   -0.990924
     98          1           0        3.945204   -4.170810    1.067994
     99          1           0        3.025588   -7.568242   -1.344231
    100          1           0        2.762256   -6.395957   -2.563664
    101          1           0        1.547757   -6.604420   -1.374932
    102          1           0       -2.734801   -4.646263   -1.109793
    103          1           0       -2.405322   -3.005400   -1.616562
    104          1           0       -4.170419   -2.707097    0.552699
    105          1           0       -5.907418   -4.701633   -2.654046
    106          1           0       -4.215775   -4.502109   -2.741923
    107          1           0       -5.259922   -3.041566   -3.168913
    108          1           0       -7.331442   -3.122419   -1.284992
    109          1           0       -6.604213   -1.817157   -0.615918
    110          1           0       -6.278869   -4.341849    0.902351
    111          1           0       -7.904522   -3.766764    0.851384
    112          1           0       -6.119677   -1.510300    1.482752
    113          1           0       -5.956364   -2.804329    2.548641
    114          1           0       -8.911568   -2.183518    2.005018
    115          1           0       -8.157584   -1.834508    4.707842
    116          1           0       -7.519064   -3.280412    4.157745
    117          1           0       -9.181824   -3.092950    3.870904
    118          1           0       -7.068005    0.119987    2.529240
    119          1           0       -8.547261    0.094366    3.495813
    120          1           0       -9.050324   -0.518424    0.588781
    121          1           0       -8.212027    1.036837    0.801227
    122          1           0      -10.082904    1.645424    2.480394
    123          1           0      -10.946927    0.266402    1.784153
    124          1           0      -10.401453    1.418202   -0.460239
    125          1           0      -10.975380    4.173832    0.770710
    126          1           0       -9.888228    3.676362   -0.563397
    127          1           0       -9.439905    3.407271    1.135954
    128          1           0      -12.646134    2.970852    0.662702
    129          1           0      -12.685219    1.456353    1.468701
    130          1           0      -13.847546    0.641455   -0.174032
    131          1           0      -12.301971    0.467148   -0.973580
    132          1           0      -13.653987    1.661840   -2.558749
    133          1           0      -12.614436    2.884011   -1.895929
    134          1           0      -14.478820    3.471080   -0.130114
    135          1           0      -16.639133    2.784178   -0.446037
    136          1           0      -15.625532    1.340379   -0.761357
    137          1           0      -16.534819    2.200740   -1.943915
    138          1           0      -14.162863    5.239517   -1.601398
    139          1           0      -15.758700    4.779088   -2.270324
    140          1           0      -14.336567    4.183349   -2.996701
 ---------------------------------------------------------------------

 SCF Done:  E(RPBE1PBE) =  -3005.35182345     A.U. after   16 cycles

 Excitation energies and oscillator strengths:

 Excited State   1:      Singlet-A      1.8793 eV  659.75 nm  f=0.3537  <S**2>=0.000
     245 -> 248       -0.16486
     246 -> 247        0.69049
 This state for optimization and/or second-order correction.
 Total Energy, E(TD-HF/TD-DFT) =  -3005.28276140
 Copying the excited state density for this state as the 1-particle RhoCI density.

 Excited State   2:      Singlet-A      2.2957 eV  540.06 nm  f=0.0784  <S**2>=0.000
     245 -> 247        0.63255
     246 -> 248        0.29168

 Excited State   3:      Singlet-A      2.9840 eV  415.49 nm  f=0.0006  <S**2>=0.000
     244 -> 247        0.68672
     246 -> 248       -0.13626

 Excited State   4:      Singlet-A      3.0304 eV  409.13 nm  f=0.0001  <S**2>=0.000
     242 -> 247        0.67277
     242 -> 249        0.14661
     242 -> 250        0.13495

 Excited State   5:      Singlet-A      3.2278 eV  384.12 nm  f=0.2925  <S**2>=0.000
     244 -> 247        0.11621
     245 -> 247       -0.23128
     246 -> 248        0.57254
     246 -> 249        0.28478

 The electronic state is 1-A.
 Alpha  occ. eigenvalues --  -46.91765 -19.26118 -19.25510 -19.20954 -19.20514
 Alpha  occ. eigenvalues --  -19.19419 -19.18749 -14.41716 -14.41290 -14.39662
 Alpha  occ. eigenvalues --  -14.38007 -10.37428 -10.35665 -10.33772 -10.31977
 Alpha  occ. eigenvalues --  -10.29830 -10.28890 -10.28823 -10.28759 -10.28271
 Alpha  occ. eigenvalues --  -10.27972 -10.27855 -10.26442 -10.26437 -10.25896
 Alpha  occ. eigenvalues --  -10.25816 -10.25689 -10.25665 -10.25647 -10.25515
 Alpha  occ. eigenvalues --  -10.25313 -10.25291 -10.25215 -10.24908 -10.24870
 Alpha  occ. eigenvalues --  -10.24864 -10.24703 -10.24439 -10.24101 -10.23958
 Alpha  occ. eigenvalues --  -10.23820 -10.23818 -10.23717 -10.23628 -10.23532
 Alpha  occ. eigenvalues --  -10.23492 -10.23488 -10.23482 -10.23453 -10.23353
 Alpha  occ. eigenvalues --  -10.23326 -10.23305 -10.23154 -10.22880 -10.22787
 Alpha  occ. eigenvalues --  -10.22726 -10.22674 -10.22420 -10.22350 -10.22283
 Alpha  occ. eigenvalues --  -10.21885 -10.21861 -10.21842 -10.21828 -10.21519
 Alpha  occ. eigenvalues --  -10.21192  -3.13906  -1.86761  -1.86282  -1.86121
 Alpha  occ. eigenvalues --   -1.11505  -1.09780  -1.05749  -1.03153  -1.02667
 Alpha  occ. eigenvalues --   -1.01164  -0.99362  -0.98510  -0.97550  -0.96451
 Alpha  occ. eigenvalues --   -0.86632  -0.84842  -0.84479  -0.83957  -0.83473
 Alpha  occ. eigenvalues --   -0.82858  -0.82759  -0.82027  -0.81730  -0.81110
 Alpha  occ. eigenvalues --   -0.80800  -0.79742  -0.78761  -0.77699  -0.77544
 Alpha  occ. eigenvalues --   -0.76860  -0.76806  -0.75691  -0.75101  -0.74602
 Alpha  occ. eigenvalues --   -0.74040  -0.72355  -0.72018  -0.71447  -0.69897
 Alpha  occ. eigenvalues --   -0.69892  -0.69453  -0.69369  -0.69102  -0.68389
 Alpha  occ. eigenvalues --   -0.68135  -0.66759  -0.66102  -0.64849  -0.63781
 Alpha  occ. eigenvalues --   -0.63037  -0.62466  -0.61501  -0.61377  -0.60275
 Alpha  occ. eigenvalues --   -0.60087  -0.59795  -0.58888  -0.58722  -0.58632
 Alpha  occ. eigenvalues --   -0.58315  -0.58239  -0.56500  -0.55824  -0.54576
 Alpha  occ. eigenvalues --   -0.54187  -0.53957  -0.53496  -0.52699  -0.52142
 Alpha  occ. eigenvalues --   -0.52066  -0.51387  -0.50716  -0.50295  -0.49955
 Alpha  occ. eigenvalues --   -0.49833  -0.49494  -0.49158  -0.48612  -0.48265
 Alpha  occ. eigenvalues --   -0.48237  -0.48135  -0.48103  -0.47908  -0.47761
 Alpha  occ. eigenvalues --   -0.47340  -0.47073  -0.47042  -0.46877  -0.46733
 Alpha  occ. eigenvalues --   -0.46398  -0.46077  -0.45861  -0.45355  -0.45180
 Alpha  occ. eigenvalues --   -0.45011  -0.44772  -0.44586  -0.44468  -0.44296
 Alpha  occ. eigenvalues --   -0.44047  -0.43902  -0.43630  -0.43559  -0.43477
 Alpha  occ. eigenvalues --   -0.43386  -0.43185  -0.42869  -0.42721  -0.42484
 Alpha  occ. eigenvalues --   -0.42173  -0.41861  -0.41668  -0.41625  -0.41316
 Alpha  occ. eigenvalues --   -0.41168  -0.41008  -0.40666  -0.40427  -0.40238
 Alpha  occ. eigenvalues --   -0.40153  -0.39713  -0.39485  -0.39381  -0.39282
 Alpha  occ. eigenvalues --   -0.39214  -0.38786  -0.38723  -0.38347  -0.38335
 Alpha  occ. eigenvalues --   -0.38251  -0.38143  -0.37980  -0.37738  -0.37641
 Alpha  occ. eigenvalues --   -0.37342  -0.37292  -0.36956  -0.36937  -0.36695
 Alpha  occ. eigenvalues --   -0.36643  -0.36637  -0.36378  -0.36278  -0.36095
 Alpha  occ. eigenvalues --   -0.36039  -0.35524  -0.35395  -0.35348  -0.34929
 Alpha  occ. eigenvalues --   -0.34577  -0.34462  -0.33959  -0.33358  -0.33346
 Alpha  occ. eigenvalues --   -0.33266  -0.33153  -0.32930  -0.32551  -0.32273
 Alpha  occ. eigenvalues --   -0.31988  -0.31748  -0.31628  -0.31623  -0.31320
 Alpha  occ. eigenvalues --   -0.31027  -0.30445  -0.29808  -0.29578  -0.29367
 Alpha  occ. eigenvalues --   -0.29048  -0.28624  -0.28086  -0.27313  -0.27180
 Alpha  occ. eigenvalues --   -0.26235  -0.24918  -0.24715  -0.24235  -0.20784
 Alpha  occ. eigenvalues --   -0.18367
 Alpha virt. eigenvalues --   -0.10532  -0.05292  -0.03883  -0.02333  -0.00627
 Alpha virt. eigenvalues --    0.00235   0.00874   0.01144   0.01599   0.03379
 Alpha virt. eigenvalues --    0.04090   0.04875   0.05445   0.05625   0.05835

 Mulliken charges:
               1
     1  Mg   0.973908
     2  C   -0.034008
     3  C   -0.079383
     4  C   -0.062930
     5  C   -0.054636
     6  N   -0.360135
     7  C    0.031783
     8  C   -0.151503
     9  C   -0.076495
    10  C    0.001262
    11  C    0.004448
    12  C    0.021754
    13  C    0.038184
    14  C    0.224026
    15  O   -0.254955
    16  O   -0.379923
    17  N   -0.510688
    18  C    0.232697
    19  C   -0.219647
    20  C   -0.055288
    21  C    0.146090
    22  C    0.053883
    23  C    0.082321
    24  O   -0.229226
    25  C   -0.036006
    26  N   -0.387605
    27  C    0.039498
    28  C   -0.114676
    29  C   -0.089520
    30  C    0.092458
    31  C    0.024433
    32  C   -0.053788
    33  C   -0.060521
    34  N   -0.484239
    35  C    0.127071
    36  C   -0.180842
    37  C   -0.082755
    38  C    0.177133
    39  C    0.056451
    40  C    0.158812
    41  O   -0.233960
    42  C   -0.115864
    43  C    0.306634
    44  O   -0.277247
    45  O   -0.346056
    46  C    0.118803
    47  C    0.253238
    48  C   -0.143097
    49  C   -0.267712
    50  C    0.023824
    51  C    0.008471
    52  C   -0.045551
    53  C   -0.003104
    54  C   -0.223664
    55  C   -0.024116
    56  C    0.032497
    57  C   -0.073452
    58  C   -0.034249
    59  C   -0.201960
    60  C   -0.007983
    61  C    0.016757
    62  C   -0.041932
    63  C   -0.032825
    64  C   -0.211121
    65  C   -0.029538
    66  C   -0.000234
    67  H    0.006426
    68  H    0.022446
    69  H    0.009010
    70  H    0.092615
    71  H    0.042387
    72  H    0.039985
    73  H    0.071898
    74  H    0.050702
    75  H    0.031570
    76  H    0.053529
    77  H    0.061341
    78  H    0.068774
    79  H    0.054402
    80  H    0.054599
    81  H    0.035907
    82  H    0.086304
    83  H    0.050454
    84  H    0.058612
    85  H    0.060651
    86  H    0.044176
    87  H    0.034519
    88  H    0.045559
    89  H    0.058525
    90  H    0.040247
    91  H    0.034797
    92  H    0.035962
    93  H    0.048798
    94  H    0.049631
    95  H    0.069326
    96  H    0.032913
    97  H    0.045452
    98  H    0.083908
    99  H    0.043257
   100  H    0.059180
   101  H    0.057669
   102  H    0.059919
   103  H    0.055167
   104  H    0.028106
   105  H    0.051443
   106  H    0.037972
   107  H    0.068454
   108  H    0.008192
   109  H    0.039878
   110  H    0.039749
   111  H    0.028001
   112  H    0.028715
   113  H    0.036844
   114  H    0.042370
   115  H    0.028616
   116  H    0.024817
   117  H    0.034307
   118  H    0.029141
   119  H    0.029287
   120  H    0.041019
   121  H    0.025932
   122  H    0.027989
   123  H    0.028987
   124  H    0.033646
   125  H    0.041175
   126  H    0.041241
   127  H    0.025440
   128  H    0.022293
   129  H    0.023363
   130  H    0.025839
   131  H    0.026153
   132  H    0.030824
   133  H    0.020491
   134  H    0.043712
   135  H    0.022829
   136  H    0.022162
   137  H    0.019049
   138  H    0.036397
   139  H    0.035255
   140  H    0.025688
 Sum of Mulliken charges =  -0.00000

 Dipole moment (field-independent basis, Debye):
    X=             -5.2149    Y=              4.3768    Z=              2.1247  Tot=              7.1321
 Quadrupole moment (field-independent basis, Debye-Ang):
   XX=           -383.2599   YY=           -425.9600   ZZ=           -402.7788
   XY=             29.9114   XZ=             13.6671   YZ=             -6.1041

 Normal termination of Gaussian 16 at Wed May  4 19:56:55 2022.
