 Gaussian 16, Revision A.03,
 Gaussian 16:  ES64L-G16RevA.03 25-Dec-2016

 --------------------------------
 #p wB97XD/Def2SVP td=(nstates=5)
 --------------------------------

 ----------------------------------------------------
 step_401_chromophore_24 TDDFT with wB97XD functional
 ----------------------------------------------------
 Symbolic Z-matrix:
 Charge =  0 Multiplicity = 1

                         Standard orientation:
 ---------------------------------------------------------------------
 Center     Atomic      Atomic             Coordinates (Angstroms)
 Number     Number       Type             X           Y           Z
 ---------------------------------------------------------------------
      1         12           0        5.146505    1.113681    0.147708
      2          6           0        4.225620   -2.332457    0.081260
      3          6           0        1.787551    1.815815   -0.327565
      4          6           0        6.003423    4.290463   -0.052600
      5          6           0        8.562355    0.106705   -0.028682
      6          7           0        3.213255   -0.143905    0.012329
      7          6           0        3.115050   -1.509552    0.057117
      8          6           0        1.668327   -1.993412    0.060599
      9          6           0        0.863104   -0.628974   -0.317933
     10          6           0        1.979549    0.420437   -0.178123
     11          6           0        0.156885   -0.547912   -1.709687
     12          6           0        1.325585   -2.675936    1.455176
     13          6           0        0.456631   -3.892230    1.341393
     14          6           0       -0.371712   -4.074542    0.070527
     15          8           0       -0.092926   -4.685886   -0.947665
     16          8           0       -1.617944   -3.521032    0.267543
     17          7           0        4.080366    2.843968    0.039597
     18          6           0        2.741139    2.876708   -0.190335
     19          6           0        2.484043    4.327261   -0.232688
     20          6           0        3.570929    5.119633   -0.199229
     21          6           0        4.649716    4.054576   -0.091427
     22          6           0        1.096336    4.813208   -0.468865
     23          6           0        3.785970    6.664182   -0.203866
     24          8           0        4.881664    7.204118   -0.074236
     25          6           0        2.587712    7.526572   -0.321399
     26          7           0        6.987821    2.061648   -0.070373
     27          6           0        7.115527    3.391006   -0.072937
     28          6           0        8.597396    3.920933    0.033324
     29          6           0        9.329429    2.519142    0.121398
     30          6           0        8.218853    1.492856    0.055883
     31          6           0        8.988125    4.906035   -1.099189
     32          6           0       10.194861    2.530361    1.406005
     33          6           0        9.488596    2.483300    2.728280
     34          7           0        6.211786   -0.710414   -0.023428
     35          6           0        7.597398   -0.951367   -0.081392
     36          6           0        7.796765   -2.328192   -0.044828
     37          6           0        6.526513   -2.928600   -0.096323
     38          6           0        5.556020   -1.879546   -0.131665
     39          6           0        9.042077   -3.042765   -0.130760
     40          6           0        5.799850   -4.217495   -0.125824
     41          8           0        6.226451   -5.386162   -0.102686
     42          6           0        4.293624   -3.807017    0.101688
     43          6           0        3.604956   -4.493256   -1.000961
     44          8           0        3.323507   -3.983642   -2.109124
     45          8           0        3.262037   -5.733773   -0.495960
     46          6           0        2.630911   -6.563772   -1.494648
     47          6           0       -2.655371   -3.619653   -0.751425
     48          6           0       -4.049238   -3.239094   -0.390965
     49          6           0       -5.170186   -3.341594   -1.162865
     50          6           0       -5.133164   -3.940448   -2.565401
     51          6           0       -6.531700   -2.904718   -0.577266
     52          6           0       -6.868524   -3.426271    0.853139
     53          6           0       -6.696526   -2.337735    1.897832
     54          6           0       -8.025689   -1.795114    2.506875
     55          6           0       -8.250882   -2.525896    3.869338
     56          6           0       -8.103981   -0.218544    2.550683
     57          6           0       -8.864965    0.305572    1.278299
     58          6           0      -10.236883    1.064915    1.570715
     59          6           0      -10.802163    1.925715    0.417227
     60          6           0      -10.266909    3.420685    0.426429
     61          6           0      -12.300391    1.941304    0.571302
     62          6           0      -12.983659    1.197933   -0.536522
     63          6           0      -13.446526    2.224958   -1.649376
     64          6           0      -14.601074    3.166825   -1.169959
     65          6           0      -15.874465    2.349453   -1.089174
     66          6           0      -14.757416    4.428901   -2.021541
     67          1           0        0.728890    2.024848   -0.493920
     68          1           0        6.283208    5.342162   -0.138179
     69          1           0        9.579952   -0.247271    0.146002
     70          1           0        1.529824   -2.576468   -0.849268
     71          1           0        0.256159   -0.411961    0.560158
     72          1           0       -0.915434   -0.582763   -1.515896
     73          1           0        0.295996   -1.386006   -2.393113
     74          1           0        0.342056    0.407106   -2.200137
     75          1           0        0.795606   -1.937434    2.057698
     76          1           0        2.236541   -2.840872    2.031385
     77          1           0       -0.224653   -3.802567    2.186699
     78          1           0        1.175548   -4.709049    1.406010
     79          1           0        1.109489    5.565880   -1.256589
     80          1           0        0.737258    5.282243    0.447075
     81          1           0        0.449542    3.972796   -0.721640
     82          1           0        2.258160    7.661498   -1.351708
     83          1           0        2.964795    8.471643    0.068231
     84          1           0        1.803443    7.296372    0.399921
     85          1           0        8.664171    4.390381    1.013777
     86          1           0        9.986864    2.381728   -0.737177
     87          1           0        9.706633    4.437155   -1.770903
     88          1           0        9.469775    5.784518   -0.668423
     89          1           0        8.155455    5.215128   -1.731676
     90          1           0       10.783064    3.448602    1.393096
     91          1           0       10.877058    1.681249    1.358681
     92          1           0        9.713244    1.528372    3.201683
     93          1           0        8.411238    2.392153    2.593791
     94          1           0        9.816071    3.286009    3.388336
     95          1           0        8.720510   -4.083968   -0.137415
     96          1           0        9.739781   -2.807458    0.673430
     97          1           0        9.656502   -2.774977   -0.990924
     98          1           0        3.945204   -4.170810    1.067994
     99          1           0        3.025588   -7.568242   -1.344231
    100          1           0        2.762256   -6.395957   -2.563664
    101          1           0        1.547757   -6.604420   -1.374932
    102          1           0       -2.734801   -4.646263   -1.109793
    103          1           0       -2.405322   -3.005400   -1.616562
    104          1           0       -4.170419   -2.707097    0.552699
    105          1           0       -5.907418   -4.701633   -2.654046
    106          1           0       -4.215775   -4.502109   -2.741923
    107          1           0       -5.259922   -3.041566   -3.168913
    108          1           0       -7.331442   -3.122419   -1.284992
    109          1           0       -6.604213   -1.817157   -0.615918
    110          1           0       -6.278869   -4.341849    0.902351
    111          1           0       -7.904522   -3.766764    0.851384
    112          1           0       -6.119677   -1.510300    1.482752
    113          1           0       -5.956364   -2.804329    2.548641
    114          1           0       -8.911568   -2.183518    2.005018
    115          1           0       -8.157584   -1.834508    4.707842
    116          1           0       -7.519064   -3.280412    4.157745
    117          1           0       -9.181824   -3.092950    3.870904
    118          1           0       -7.068005    0.119987    2.529240
    119          1           0       -8.547261    0.094366    3.495813
    120          1           0       -9.050324   -0.518424    0.588781
    121          1           0       -8.212027    1.036837    0.801227
    122          1           0      -10.082904    1.645424    2.480394
    123          1           0      -10.946927    0.266402    1.784153
    124          1           0      -10.401453    1.418202   -0.460239
    125          1           0      -10.975380    4.173832    0.770710
    126          1           0       -9.888228    3.676362   -0.563397
    127          1           0       -9.439905    3.407271    1.135954
    128          1           0      -12.646134    2.970852    0.662702
    129          1           0      -12.685219    1.456353    1.468701
    130          1           0      -13.847546    0.641455   -0.174032
    131          1           0      -12.301971    0.467148   -0.973580
    132          1           0      -13.653987    1.661840   -2.558749
    133          1           0      -12.614436    2.884011   -1.895929
    134          1           0      -14.478820    3.471080   -0.130114
    135          1           0      -16.639133    2.784178   -0.446037
    136          1           0      -15.625532    1.340379   -0.761357
    137          1           0      -16.534819    2.200740   -1.943915
    138          1           0      -14.162863    5.239517   -1.601398
    139          1           0      -15.758700    4.779088   -2.270324
    140          1           0      -14.336567    4.183349   -2.996701
 ---------------------------------------------------------------------

 SCF Done:  E(RwB97XD) =  -3007.86389759     A.U. after   19 cycles

 Excitation energies and oscillator strengths:

 Excited State   1:      Singlet-A      1.7536 eV  707.01 nm  f=0.3604  <S**2>=0.000
     245 -> 248        0.17288
     246 -> 247        0.68325
     245 <- 248        0.10683
 This state for optimization and/or second-order correction.
 Total Energy, E(TD-HF/TD-DFT) =  -3007.79945278
 Copying the excited state density for this state as the 1-particle RhoCI density.

 Excited State   2:      Singlet-A      2.2619 eV  548.15 nm  f=0.0753  <S**2>=0.000
     245 -> 247        0.61512
     246 -> 248       -0.32501

 Excited State   3:      Singlet-A      3.4308 eV  361.39 nm  f=0.0526  <S**2>=0.000
     244 -> 247        0.61903
     246 -> 248        0.27357

 Excited State   4:      Singlet-A      3.5503 eV  349.22 nm  f=0.7606  <S**2>=0.000
     240 -> 247        0.10237
     241 -> 247        0.15449
     244 -> 247       -0.25661
     245 -> 247        0.30860
     246 -> 248        0.54630
     245 <- 247       -0.10038

 Excited State   5:      Singlet-A      3.6209 eV  342.41 nm  f=0.0016  <S**2>=0.000
     242 -> 247        0.52849
     242 -> 249        0.27111
     242 -> 250        0.33926

 The electronic state is 1-A.
 Alpha  occ. eigenvalues --  -46.94720 -19.30637 -19.29929 -19.25701 -19.25581
 Alpha  occ. eigenvalues --  -19.23974 -19.23145 -14.46840 -14.46344 -14.44826
 Alpha  occ. eigenvalues --  -14.42662 -10.44162 -10.42367 -10.40979 -10.38473
 Alpha  occ. eigenvalues --  -10.36312 -10.35730 -10.35555 -10.35482 -10.34820
 Alpha  occ. eigenvalues --  -10.34198 -10.33865 -10.32835 -10.32765 -10.32688
 Alpha  occ. eigenvalues --  -10.31990 -10.31987 -10.31919 -10.31826 -10.31726
 Alpha  occ. eigenvalues --  -10.31643 -10.31585 -10.31545 -10.31395 -10.31049
 Alpha  occ. eigenvalues --  -10.31041 -10.30974 -10.30684 -10.30577 -10.30520
 Alpha  occ. eigenvalues --  -10.30429 -10.30379 -10.30264 -10.30022 -10.29892
 Alpha  occ. eigenvalues --  -10.29839 -10.29829 -10.29822 -10.29782 -10.29702
 Alpha  occ. eigenvalues --  -10.29679 -10.29546 -10.29379 -10.29254 -10.29161
 Alpha  occ. eigenvalues --  -10.29113 -10.29051 -10.28792 -10.28722 -10.28703
 Alpha  occ. eigenvalues --  -10.28276 -10.28271 -10.27956 -10.27883 -10.27649
 Alpha  occ. eigenvalues --  -10.27624  -3.20714  -1.94319  -1.93841  -1.93678
 Alpha  occ. eigenvalues --   -1.18836  -1.17045  -1.13598  -1.10446  -1.09789
 Alpha  occ. eigenvalues --   -1.08409  -1.07031  -1.05997  -1.04878  -1.03489
 Alpha  occ. eigenvalues --   -0.94008  -0.92512  -0.92153  -0.91569  -0.91223
 Alpha  occ. eigenvalues --   -0.90691  -0.90436  -0.89852  -0.89406  -0.88736
 Alpha  occ. eigenvalues --   -0.88068  -0.87367  -0.86433  -0.85402  -0.85035
 Alpha  occ. eigenvalues --   -0.84833  -0.84505  -0.83338  -0.82649  -0.82177
 Alpha  occ. eigenvalues --   -0.81727  -0.80253  -0.79541  -0.78971  -0.77607
 Alpha  occ. eigenvalues --   -0.77559  -0.77082  -0.77030  -0.76594  -0.76056
 Alpha  occ. eigenvalues --   -0.75740  -0.74152  -0.73666  -0.72457  -0.71351
 Alpha  occ. eigenvalues --   -0.70691  -0.70202  -0.69079  -0.69000  -0.67884
 Alpha  occ. eigenvalues --   -0.67682  -0.67176  -0.66349  -0.66200  -0.66022
 Alpha  occ. eigenvalues --   -0.66013  -0.65800  -0.64130  -0.63179  -0.62180
 Alpha  occ. eigenvalues --   -0.61663  -0.61338  -0.60963  -0.60124  -0.59571
 Alpha  occ. eigenvalues --   -0.59384  -0.58699  -0.58140  -0.57692  -0.57346
 Alpha  occ. eigenvalues --   -0.57217  -0.56901  -0.56527  -0.56107  -0.56060
 Alpha  occ. eigenvalues --   -0.55705  -0.55646  -0.55520  -0.55233  -0.55031
 Alpha  occ. eigenvalues --   -0.54726  -0.54389  -0.54346  -0.54210  -0.54063
 Alpha  occ. eigenvalues --   -0.53756  -0.53395  -0.53238  -0.52964  -0.52596
 Alpha  occ. eigenvalues --   -0.52483  -0.52106  -0.51974  -0.51814  -0.51542
 Alpha  occ. eigenvalues --   -0.51378  -0.51310  -0.50927  -0.50807  -0.50775
 Alpha  occ. eigenvalues --   -0.50551  -0.50442  -0.50259  -0.50014  -0.49769
 Alpha  occ. eigenvalues --   -0.49637  -0.49096  -0.48911  -0.48866  -0.48401
 Alpha  occ. eigenvalues --   -0.48383  -0.48271  -0.47881  -0.47620  -0.47412
 Alpha  occ. eigenvalues --   -0.47362  -0.46803  -0.46605  -0.46513  -0.46283
 Alpha  occ. eigenvalues --   -0.46186  -0.46061  -0.45924  -0.45783  -0.45533
 Alpha  occ. eigenvalues --   -0.45355  -0.45294  -0.45198  -0.44839  -0.44692
 Alpha  occ. eigenvalues --   -0.44435  -0.44364  -0.44085  -0.43917  -0.43866
 Alpha  occ. eigenvalues --   -0.43705  -0.43657  -0.43517  -0.43305  -0.43182
 Alpha  occ. eigenvalues --   -0.43158  -0.42628  -0.42497  -0.42453  -0.41857
 Alpha  occ. eigenvalues --   -0.41570  -0.41497  -0.41005  -0.40413  -0.40403
 Alpha  occ. eigenvalues --   -0.40188  -0.40154  -0.39904  -0.39566  -0.39300
 Alpha  occ. eigenvalues --   -0.39004  -0.38778  -0.38681  -0.38646  -0.38166
 Alpha  occ. eigenvalues --   -0.38032  -0.37384  -0.36777  -0.36612  -0.36265
 Alpha  occ. eigenvalues --   -0.35734  -0.35412  -0.34901  -0.34722  -0.34210
 Alpha  occ. eigenvalues --   -0.32849  -0.31614  -0.31473  -0.30329  -0.25860
 Alpha  occ. eigenvalues --   -0.22595
 Alpha virt. eigenvalues --   -0.06225   0.00190   0.02243   0.04239   0.06033
 Alpha virt. eigenvalues --    0.06327   0.07571   0.07951   0.08385   0.09968
 Alpha virt. eigenvalues --    0.10273   0.11817   0.12202   0.12380   0.12630

 Mulliken charges:
               1
     1  Mg   0.962930
     2  C   -0.030589
     3  C   -0.102321
     4  C   -0.084121
     5  C   -0.069692
     6  N   -0.327411
     7  C    0.005820
     8  C   -0.122715
     9  C   -0.054403
    10  C   -0.006980
    11  C    0.015793
    12  C    0.029505
    13  C    0.057761
    14  C    0.207302
    15  O   -0.248706
    16  O   -0.377020
    17  N   -0.479277
    18  C    0.231174
    19  C   -0.200190
    20  C   -0.053363
    21  C    0.144964
    22  C    0.066358
    23  C    0.082239
    24  O   -0.220792
    25  C   -0.028755
    26  N   -0.351856
    27  C    0.031329
    28  C   -0.093079
    29  C   -0.059608
    30  C    0.071119
    31  C    0.033774
    32  C   -0.037605
    33  C   -0.044217
    34  N   -0.448918
    35  C    0.112233
    36  C   -0.172566
    37  C   -0.080123
    38  C    0.146949
    39  C    0.064622
    40  C    0.138597
    41  O   -0.227486
    42  C   -0.075661
    43  C    0.284054
    44  O   -0.271479
    45  O   -0.344788
    46  C    0.134440
    47  C    0.266971
    48  C   -0.150487
    49  C   -0.252038
    50  C    0.038642
    51  C    0.022690
    52  C   -0.025933
    53  C    0.011122
    54  C   -0.192089
    55  C   -0.014356
    56  C    0.046014
    57  C   -0.053923
    58  C   -0.018135
    59  C   -0.176427
    60  C    0.004617
    61  C    0.035769
    62  C   -0.024923
    63  C   -0.012917
    64  C   -0.182407
    65  C   -0.019988
    66  C    0.010317
    67  H   -0.001493
    68  H    0.016272
    69  H    0.004709
    70  H    0.071916
    71  H    0.031847
    72  H    0.033921
    73  H    0.069573
    74  H    0.044124
    75  H    0.023561
    76  H    0.046207
    77  H    0.056770
    78  H    0.062007
    79  H    0.049156
    80  H    0.050580
    81  H    0.033158
    82  H    0.084659
    83  H    0.049860
    84  H    0.054204
    85  H    0.048987
    86  H    0.034593
    87  H    0.029928
    88  H    0.041137
    89  H    0.052291
    90  H    0.030042
    91  H    0.027489
    92  H    0.030990
    93  H    0.036953
    94  H    0.045100
    95  H    0.063813
    96  H    0.025703
    97  H    0.038538
    98  H    0.075412
    99  H    0.039461
   100  H    0.055002
   101  H    0.051791
   102  H    0.053293
   103  H    0.048727
   104  H    0.021320
   105  H    0.046289
   106  H    0.032669
   107  H    0.062618
   108  H    0.001895
   109  H    0.029197
   110  H    0.030799
   111  H    0.019437
   112  H    0.015488
   113  H    0.029261
   114  H    0.027664
   115  H    0.022390
   116  H    0.018399
   117  H    0.029664
   118  H    0.021122
   119  H    0.021352
   120  H    0.030055
   121  H    0.016478
   122  H    0.018314
   123  H    0.017784
   124  H    0.020755
   125  H    0.036084
   126  H    0.036037
   127  H    0.018089
   128  H    0.007348
   129  H    0.015146
   130  H    0.017374
   131  H    0.017704
   132  H    0.023731
   133  H    0.008024
   134  H    0.032656
   135  H    0.017355
   136  H    0.013693
   137  H    0.013324
   138  H    0.031076
   139  H    0.030938
   140  H    0.018428
 Sum of Mulliken charges =  -0.00000

 Dipole moment (field-independent basis, Debye):
    X=             -5.7878    Y=              5.3641    Z=              2.1031  Tot=              8.1667
 Quadrupole moment (field-independent basis, Debye-Ang):
   XX=           -388.5864   YY=           -422.5190   ZZ=           -402.4077
   XY=             33.6858   XZ=             13.6007   YZ=             -6.4966

 Normal termination of Gaussian 16 at Wed May  4 20:34:57 2022.
