 Gaussian 16, Revision A.03,
 Gaussian 16:  ES64L-G16RevA.03 25-Dec-2016

 --------------------
 #p ZINDO=(nstates=5)
 --------------------

 -----------------------------
 step_401_chromophore_24 ZINDO
 -----------------------------
 Symbolic Z-matrix:
 Charge =  0 Multiplicity = 1

                         Standard orientation:
 ---------------------------------------------------------------------
 Center     Atomic      Atomic             Coordinates (Angstroms)
 Number     Number       Type             X           Y           Z
 ---------------------------------------------------------------------
      1         12           0        5.146505    1.113681    0.147708
      2          6           0        4.225620   -2.332457    0.081260
      3          6           0        1.787551    1.815815   -0.327565
      4          6           0        6.003423    4.290463   -0.052600
      5          6           0        8.562355    0.106705   -0.028682
      6          7           0        3.213255   -0.143905    0.012329
      7          6           0        3.115050   -1.509552    0.057117
      8          6           0        1.668327   -1.993412    0.060599
      9          6           0        0.863104   -0.628974   -0.317933
     10          6           0        1.979549    0.420437   -0.178123
     11          6           0        0.156885   -0.547912   -1.709687
     12          6           0        1.325585   -2.675936    1.455176
     13          6           0        0.456631   -3.892230    1.341393
     14          6           0       -0.371712   -4.074542    0.070527
     15          8           0       -0.092926   -4.685886   -0.947665
     16          8           0       -1.617944   -3.521032    0.267543
     17          7           0        4.080366    2.843968    0.039597
     18          6           0        2.741139    2.876708   -0.190335
     19          6           0        2.484043    4.327261   -0.232688
     20          6           0        3.570929    5.119633   -0.199229
     21          6           0        4.649716    4.054576   -0.091427
     22          6           0        1.096336    4.813208   -0.468865
     23          6           0        3.785970    6.664182   -0.203866
     24          8           0        4.881664    7.204118   -0.074236
     25          6           0        2.587712    7.526572   -0.321399
     26          7           0        6.987821    2.061648   -0.070373
     27          6           0        7.115527    3.391006   -0.072937
     28          6           0        8.597396    3.920933    0.033324
     29          6           0        9.329429    2.519142    0.121398
     30          6           0        8.218853    1.492856    0.055883
     31          6           0        8.988125    4.906035   -1.099189
     32          6           0       10.194861    2.530361    1.406005
     33          6           0        9.488596    2.483300    2.728280
     34          7           0        6.211786   -0.710414   -0.023428
     35          6           0        7.597398   -0.951367   -0.081392
     36          6           0        7.796765   -2.328192   -0.044828
     37          6           0        6.526513   -2.928600   -0.096323
     38          6           0        5.556020   -1.879546   -0.131665
     39          6           0        9.042077   -3.042765   -0.130760
     40          6           0        5.799850   -4.217495   -0.125824
     41          8           0        6.226451   -5.386162   -0.102686
     42          6           0        4.293624   -3.807017    0.101688
     43          6           0        3.604956   -4.493256   -1.000961
     44          8           0        3.323507   -3.983642   -2.109124
     45          8           0        3.262037   -5.733773   -0.495960
     46          6           0        2.630911   -6.563772   -1.494648
     47          6           0       -2.655371   -3.619653   -0.751425
     48          6           0       -4.049238   -3.239094   -0.390965
     49          6           0       -5.170186   -3.341594   -1.162865
     50          6           0       -5.133164   -3.940448   -2.565401
     51          6           0       -6.531700   -2.904718   -0.577266
     52          6           0       -6.868524   -3.426271    0.853139
     53          6           0       -6.696526   -2.337735    1.897832
     54          6           0       -8.025689   -1.795114    2.506875
     55          6           0       -8.250882   -2.525896    3.869338
     56          6           0       -8.103981   -0.218544    2.550683
     57          6           0       -8.864965    0.305572    1.278299
     58          6           0      -10.236883    1.064915    1.570715
     59          6           0      -10.802163    1.925715    0.417227
     60          6           0      -10.266909    3.420685    0.426429
     61          6           0      -12.300391    1.941304    0.571302
     62          6           0      -12.983659    1.197933   -0.536522
     63          6           0      -13.446526    2.224958   -1.649376
     64          6           0      -14.601074    3.166825   -1.169959
     65          6           0      -15.874465    2.349453   -1.089174
     66          6           0      -14.757416    4.428901   -2.021541
     67          1           0        0.728890    2.024848   -0.493920
     68          1           0        6.283208    5.342162   -0.138179
     69          1           0        9.579952   -0.247271    0.146002
     70          1           0        1.529824   -2.576468   -0.849268
     71          1           0        0.256159   -0.411961    0.560158
     72          1           0       -0.915434   -0.582763   -1.515896
     73          1           0        0.295996   -1.386006   -2.393113
     74          1           0        0.342056    0.407106   -2.200137
     75          1           0        0.795606   -1.937434    2.057698
     76          1           0        2.236541   -2.840872    2.031385
     77          1           0       -0.224653   -3.802567    2.186699
     78          1           0        1.175548   -4.709049    1.406010
     79          1           0        1.109489    5.565880   -1.256589
     80          1           0        0.737258    5.282243    0.447075
     81          1           0        0.449542    3.972796   -0.721640
     82          1           0        2.258160    7.661498   -1.351708
     83          1           0        2.964795    8.471643    0.068231
     84          1           0        1.803443    7.296372    0.399921
     85          1           0        8.664171    4.390381    1.013777
     86          1           0        9.986864    2.381728   -0.737177
     87          1           0        9.706633    4.437155   -1.770903
     88          1           0        9.469775    5.784518   -0.668423
     89          1           0        8.155455    5.215128   -1.731676
     90          1           0       10.783064    3.448602    1.393096
     91          1           0       10.877058    1.681249    1.358681
     92          1           0        9.713244    1.528372    3.201683
     93          1           0        8.411238    2.392153    2.593791
     94          1           0        9.816071    3.286009    3.388336
     95          1           0        8.720510   -4.083968   -0.137415
     96          1           0        9.739781   -2.807458    0.673430
     97          1           0        9.656502   -2.774977   -0.990924
     98          1           0        3.945204   -4.170810    1.067994
     99          1           0        3.025588   -7.568242   -1.344231
    100          1           0        2.762256   -6.395957   -2.563664
    101          1           0        1.547757   -6.604420   -1.374932
    102          1           0       -2.734801   -4.646263   -1.109793
    103          1           0       -2.405322   -3.005400   -1.616562
    104          1           0       -4.170419   -2.707097    0.552699
    105          1           0       -5.907418   -4.701633   -2.654046
    106          1           0       -4.215775   -4.502109   -2.741923
    107          1           0       -5.259922   -3.041566   -3.168913
    108          1           0       -7.331442   -3.122419   -1.284992
    109          1           0       -6.604213   -1.817157   -0.615918
    110          1           0       -6.278869   -4.341849    0.902351
    111          1           0       -7.904522   -3.766764    0.851384
    112          1           0       -6.119677   -1.510300    1.482752
    113          1           0       -5.956364   -2.804329    2.548641
    114          1           0       -8.911568   -2.183518    2.005018
    115          1           0       -8.157584   -1.834508    4.707842
    116          1           0       -7.519064   -3.280412    4.157745
    117          1           0       -9.181824   -3.092950    3.870904
    118          1           0       -7.068005    0.119987    2.529240
    119          1           0       -8.547261    0.094366    3.495813
    120          1           0       -9.050324   -0.518424    0.588781
    121          1           0       -8.212027    1.036837    0.801227
    122          1           0      -10.082904    1.645424    2.480394
    123          1           0      -10.946927    0.266402    1.784153
    124          1           0      -10.401453    1.418202   -0.460239
    125          1           0      -10.975380    4.173832    0.770710
    126          1           0       -9.888228    3.676362   -0.563397
    127          1           0       -9.439905    3.407271    1.135954
    128          1           0      -12.646134    2.970852    0.662702
    129          1           0      -12.685219    1.456353    1.468701
    130          1           0      -13.847546    0.641455   -0.174032
    131          1           0      -12.301971    0.467148   -0.973580
    132          1           0      -13.653987    1.661840   -2.558749
    133          1           0      -12.614436    2.884011   -1.895929
    134          1           0      -14.478820    3.471080   -0.130114
    135          1           0      -16.639133    2.784178   -0.446037
    136          1           0      -15.625532    1.340379   -0.761357
    137          1           0      -16.534819    2.200740   -1.943915
    138          1           0      -14.162863    5.239517   -1.601398
    139          1           0      -15.758700    4.779088   -2.270324
    140          1           0      -14.336567    4.183349   -2.996701
 ---------------------------------------------------------------------

 SCF Done:  E(RZINDO/S) =  -474.361645705     A.U. after   19 cycles

 Excitation energies and oscillator strengths:

 Excited State   1:      Singlet-A      1.4045 eV  882.73 nm  f=0.5133  <S**2>=0.000
     175 ->178         0.14185
     176 ->177         0.67377
 This state for optimization and/or second-order correction.
 Total Energy, E(CIS/TDA) =  -474.310029466
 Copying the excited state density for this state as the 1-particle RhoCI density.

 Excited State   2:      Singlet-A      1.9826 eV  625.37 nm  f=0.0206  <S**2>=0.000
     175 ->177         0.51107
     176 ->178        -0.44135

 Excited State   3:      Singlet-A      2.9928 eV  414.27 nm  f=0.1836  <S**2>=0.000
     171 ->177         0.10576
     171 ->179         0.11190
     171 ->180         0.19398
     176 ->178         0.12054
     176 ->179         0.47696
     176 ->180         0.34732

 Excited State   4:      Singlet-A      3.0020 eV  413.01 nm  f=0.9597  <S**2>=0.000
     175 ->177         0.41586
     176 ->178         0.49541
     176 ->180        -0.12808

 Excited State   5:      Singlet-A      3.0393 eV  407.93 nm  f=0.0445  <S**2>=0.000
     166 ->177        -0.25906
     166 ->178         0.17560
     166 ->179         0.41495
     166 ->180        -0.20407
     166 ->184        -0.13007
     166 ->186         0.14608
     167 ->177         0.12864
     167 ->179        -0.20084
     176 ->178        -0.10738

 The electronic state is 1-A.
 Alpha  occ. eigenvalues --   -1.83578  -1.82501  -1.79774  -1.72860  -1.71234
 Alpha  occ. eigenvalues --   -1.70041  -1.66334  -1.61741  -1.60658  -1.55815
 Alpha  occ. eigenvalues --   -1.54734  -1.51165  -1.48656  -1.47935  -1.46952
 Alpha  occ. eigenvalues --   -1.43931  -1.42652  -1.41651  -1.38466  -1.37930
 Alpha  occ. eigenvalues --   -1.35809  -1.33822  -1.33531  -1.32668  -1.28892
 Alpha  occ. eigenvalues --   -1.27326  -1.24699  -1.23030  -1.21330  -1.18252
 Alpha  occ. eigenvalues --   -1.17291  -1.17051  -1.15207  -1.14668  -1.12951
 Alpha  occ. eigenvalues --   -1.11952  -1.11111  -1.10437  -1.04312  -1.03293
 Alpha  occ. eigenvalues --   -1.01976  -1.00932  -0.98418  -0.97683  -0.97220
 Alpha  occ. eigenvalues --   -0.96839  -0.95674  -0.94707  -0.93019  -0.92638
 Alpha  occ. eigenvalues --   -0.92103  -0.90573  -0.89857  -0.88124  -0.86027
 Alpha  occ. eigenvalues --   -0.85613  -0.85385  -0.83654  -0.80864  -0.80160
 Alpha  occ. eigenvalues --   -0.78766  -0.77812  -0.77492  -0.76403  -0.76225
 Alpha  occ. eigenvalues --   -0.75538  -0.75420  -0.74592  -0.73868  -0.73325
 Alpha  occ. eigenvalues --   -0.72763  -0.72612  -0.72062  -0.71529  -0.71117
 Alpha  occ. eigenvalues --   -0.69962  -0.69749  -0.69056  -0.68803  -0.68568
 Alpha  occ. eigenvalues --   -0.68178  -0.67181  -0.66979  -0.66298  -0.66235
 Alpha  occ. eigenvalues --   -0.65391  -0.64648  -0.64554  -0.64258  -0.63522
 Alpha  occ. eigenvalues --   -0.63192  -0.63100  -0.62632  -0.62537  -0.61902
 Alpha  occ. eigenvalues --   -0.61583  -0.61234  -0.60826  -0.60597  -0.60480
 Alpha  occ. eigenvalues --   -0.59966  -0.59700  -0.59188  -0.59120  -0.59002
 Alpha  occ. eigenvalues --   -0.58616  -0.57377  -0.56734  -0.56449  -0.56377
 Alpha  occ. eigenvalues --   -0.55819  -0.55403  -0.55055  -0.54556  -0.54101
 Alpha  occ. eigenvalues --   -0.53806  -0.53487  -0.53410  -0.52673  -0.52010
 Alpha  occ. eigenvalues --   -0.51876  -0.51746  -0.51199  -0.50959  -0.50679
 Alpha  occ. eigenvalues --   -0.50439  -0.50384  -0.50229  -0.50199  -0.50071
 Alpha  occ. eigenvalues --   -0.49692  -0.49473  -0.49407  -0.49233  -0.49087
 Alpha  occ. eigenvalues --   -0.48534  -0.48415  -0.47882  -0.47639  -0.47459
 Alpha  occ. eigenvalues --   -0.47257  -0.47082  -0.46906  -0.46587  -0.46342
 Alpha  occ. eigenvalues --   -0.46090  -0.45784  -0.45531  -0.45342  -0.45226
 Alpha  occ. eigenvalues --   -0.45012  -0.44797  -0.44739  -0.44149  -0.43959
 Alpha  occ. eigenvalues --   -0.43455  -0.42861  -0.42420  -0.42051  -0.41803
 Alpha  occ. eigenvalues --   -0.41638  -0.41016  -0.40032  -0.38929  -0.38601
 Alpha  occ. eigenvalues --   -0.37440  -0.37237  -0.36110  -0.35229  -0.34200
 Alpha  occ. eigenvalues --   -0.33378  -0.32235  -0.31469  -0.30525  -0.26611
 Alpha  occ. eigenvalues --   -0.21613
 Alpha virt. eigenvalues --   -0.07582  -0.01934  -0.00799   0.01053   0.01871
 Alpha virt. eigenvalues --    0.02678   0.03337   0.03670   0.04656   0.04781
 Alpha virt. eigenvalues --    0.05680   0.06916   0.07010   0.07925   0.08043

 Mulliken charges:
               1
     1  Mg   0.423867
     2  C   -0.033752
     3  C   -0.106892
     4  C   -0.082307
     5  C   -0.063034
     6  N   -0.298274
     7  C    0.102398
     8  C   -0.011559
     9  C    0.000750
    10  C    0.174476
    11  C   -0.043077
    12  C   -0.012881
    13  C    0.011543
    14  C    0.474655
    15  O   -0.508298
    16  O   -0.284457
    17  N   -0.313396
    18  C    0.148371
    19  C    0.046048
    20  C   -0.041951
    21  C    0.152658
    22  C   -0.055727
    23  C    0.346190
    24  O   -0.501352
    25  C   -0.033320
    26  N   -0.243260
    27  C    0.171074
    28  C   -0.003013
    29  C    0.002897
    30  C    0.076234
    31  C   -0.046533
    32  C   -0.022821
    33  C   -0.054503
    34  N   -0.325407
    35  C    0.044190
    36  C    0.023806
    37  C   -0.083111
    38  C    0.092517
    39  C   -0.042609
    40  C    0.322917
    41  O   -0.538532
    42  C    0.063819
    43  C    0.492799
    44  O   -0.540092
    45  O   -0.249627
    46  C    0.071000
    47  C    0.111302
    48  C   -0.090460
    49  C   -0.020892
    50  C   -0.045896
    51  C   -0.026053
    52  C   -0.030716
    53  C   -0.025268
    54  C   -0.013965
    55  C   -0.065600
    56  C   -0.034275
    57  C   -0.045060
    58  C   -0.039444
    59  C   -0.008677
    60  C   -0.063840
    61  C   -0.025254
    62  C   -0.037346
    63  C   -0.031986
    64  C    0.000660
    65  C   -0.062536
    66  C   -0.056694
    67  H    0.027693
    68  H    0.038703
    69  H    0.035855
    70  H    0.059964
    71  H    0.032992
    72  H    0.010834
    73  H    0.042779
    74  H    0.026893
    75  H    0.015498
    76  H    0.031639
    77  H    0.037819
    78  H    0.045854
    79  H    0.028498
    80  H    0.031027
    81  H    0.026553
    82  H    0.053039
    83  H    0.031428
    84  H    0.037246
    85  H    0.039311
    86  H    0.027967
    87  H    0.020035
    88  H    0.022740
    89  H    0.029416
    90  H    0.012328
    91  H    0.014584
    92  H    0.013495
    93  H    0.024479
    94  H    0.024327
    95  H    0.035607
    96  H    0.020750
    97  H    0.025872
    98  H    0.056233
    99  H    0.022733
   100  H    0.051560
   101  H    0.039201
   102  H    0.049529
   103  H    0.045711
   104  H    0.025920
   105  H    0.027416
   106  H    0.027661
   107  H    0.040393
   108  H    0.009988
   109  H    0.020239
   110  H    0.026163
   111  H    0.012991
   112  H    0.013692
   113  H    0.020686
   114  H    0.025667
   115  H    0.015525
   116  H    0.013068
   117  H    0.018170
   118  H    0.019773
   119  H    0.026111
   120  H    0.025027
   121  H    0.013211
   122  H    0.020525
   123  H    0.014420
   124  H    0.028610
   125  H    0.027204
   126  H    0.019302
   127  H    0.014048
   128  H    0.019838
   129  H    0.012216
   130  H    0.018289
   131  H    0.016008
   132  H    0.020119
   133  H    0.010365
   134  H    0.024384
   135  H    0.008358
   136  H    0.015048
   137  H    0.016072
   138  H    0.016860
   139  H    0.024347
   140  H    0.011667
 Sum of Mulliken charges =  -0.00000

 Dipole moment (field-independent basis, Debye):
    X=             -8.9147    Y=              9.1905    Z=              3.2392  Tot=             13.2072
 N-N= 4.331537583083D+03 E-N= 0.000000000000D+00  KE=-9.337802274788D+03
 Leave Link  601 at Wed May  4 20:51:20 2022, MaxMem=  6710886400 cpu:               0.9 elap:               0.1
 (Enter /sw/apps/gaussian-16.0/g16/l9999.exe)
 1\1\GINC-BP1-COMPUTE216\SP\RZINDO CIS\STO-3G\C55H74Mg1N4O6\OF15641\04-
 May-2022\0\\#p ZINDO=(nstates=5)\\step_401_chromophore_24 ZINDO\\0,1\M
 g,0,-0.255,43.288,24.611\C,0,2.028,42.987,27.336\C,0,-2.733,42.348,26.
 842\C,0,-2.339,43.308,22.057\C,0,2.544,43.583,22.422\N,0,-0.335,42.835
 ,26.875\C,0,0.719,42.825,27.75\C,0,0.28,42.603,29.194\C,0,-1.273,42.15
 1,29.001\C,0,-1.494,42.483,27.515\C,0,-1.661,40.674,29.333\C,0,0.554,4
 3.912,30.054\C,0,1.052,43.637,31.441\C,0,0.801,42.254,32.04\O,0,1.522,

 Normal termination of Gaussian 16 at Wed May  4 20:51:20 2022.
