 Gaussian 16, Revision A.03,
 Gaussian 16:  ES64L-G16RevA.03 25-Dec-2016

 ------------------------------
 #p blyp/Def2SVP td=(nstates=5)
 ------------------------------

 -------------------------------------------------
 step_601_chromophore_9 TDDFT with blyp functional
 -------------------------------------------------
 Symbolic Z-matrix:
 Charge =  0 Multiplicity = 1

                         Standard orientation:
 ---------------------------------------------------------------------
 Center     Atomic      Atomic             Coordinates (Angstroms)
 Number     Number       Type             X           Y           Z
 ---------------------------------------------------------------------
      1         12           0       -5.000695    0.871271    0.170405
      2          6           0       -3.762742   -2.470967    0.125724
      3          6           0       -1.710327    1.893214    0.042214
      4          6           0       -6.241135    3.936176   -0.050871
      5          6           0       -8.218349   -0.416167    0.518221
      6          7           0       -3.003133   -0.178684    0.095357
      7          6           0       -2.750653   -1.503711   -0.007637
      8          6           0       -1.234662   -1.741210   -0.109740
      9          6           0       -0.642399   -0.379456    0.003614
     10          6           0       -1.850823    0.505035    0.157346
     11          6           0        0.320562   -0.239535    1.142536
     12          6           0       -0.970487   -2.627316   -1.420035
     13          6           0        0.298142   -3.575578   -1.470658
     14          6           0        1.294069   -3.486788   -0.310809
     15          8           0        0.999936   -3.715453    0.872753
     16          8           0        2.504877   -3.023027   -0.750686
     17          7           0       -4.096335    2.682554   -0.072757
     18          6           0       -2.754212    2.837440   -0.079009
     19          6           0       -2.531684    4.257841   -0.221315
     20          6           0       -3.806079    4.935477   -0.233738
     21          6           0       -4.815929    3.849575   -0.150806
     22          6           0       -1.131138    4.820679   -0.429131
     23          6           0       -4.112840    6.457578   -0.284333
     24          8           0       -5.297782    6.895362   -0.231563
     25          6           0       -3.054634    7.541402   -0.480395
     26          7           0       -6.905698    1.618090    0.171052
     27          6           0       -7.211348    2.951653   -0.037374
     28          6           0       -8.737556    3.311416   -0.089661
     29          6           0       -9.307872    1.912143    0.244809
     30          6           0       -8.050166    0.938519    0.269176
     31          6           0       -9.213457    4.394084    0.960289
     32          6           0      -10.560337    1.539324   -0.676815
     33          6           0      -10.307415    0.787500   -2.051481
     34          7           0       -5.910901   -1.057081    0.597540
     35          6           0       -7.215165   -1.430072    0.526138
     36          6           0       -7.346341   -2.805759    0.672736
     37          6           0       -6.041294   -3.270984    0.396973
     38          6           0       -5.152390   -2.197210    0.404926
     39          6           0       -8.576035   -3.628647    0.720950
     40          6           0       -5.197534   -4.429269    0.205288
     41          8           0       -5.578903   -5.557775    0.290017
     42          6           0       -3.741535   -3.989540   -0.015845
     43          6           0       -2.875754   -4.671885    1.049251
     44          8           0       -2.963863   -4.519719    2.265632
     45          8           0       -2.075639   -5.521632    0.390670
     46          6           0       -1.416056   -6.494043    1.217067
     47          6           0        3.521265   -2.764308    0.264613
     48          6           0        4.750760   -2.171842   -0.383581
     49          6           0        5.846917   -2.701416   -0.953672
     50          6           0        5.998432   -4.124133   -1.241110
     51          6           0        6.892429   -1.743450   -1.407872
     52          6           0        6.677581   -0.952593   -2.675293
     53          6           0        7.872728   -1.100463   -3.722461
     54          6           0        8.676156    0.256842   -3.949907
     55          6           0        8.957742    0.390556   -5.444822
     56          6           0        9.991119    0.364041   -3.079213
     57          6           0        9.977168    1.762138   -2.461595
     58          6           0       11.227484    2.027553   -1.625789
     59          6           0       10.844809    2.428232   -0.104278
     60          6           0       11.844919    3.508429    0.432608
     61          6           0       10.864503    1.240027    0.815411
     62          6           0       10.102005    1.430684    2.078405
     63          6           0       10.988920    1.184135    3.404333
     64          6           0       10.250622    1.368749    4.720335
     65          6           0       10.963208    2.419120    5.582188
     66          6           0       10.069076    0.048480    5.460313
     67          1           0       -0.703069    2.298034   -0.079527
     68          1           0       -6.734568    4.897666   -0.210327
     69          1           0       -9.236767   -0.746941    0.733336
     70          1           0       -1.018343   -2.369063    0.753882
     71          1           0       -0.061495   -0.117015   -0.880630
     72          1           0       -0.021919   -0.957447    1.888416
     73          1           0        0.220212    0.795514    1.468893
     74          1           0        1.316903   -0.364841    0.718586
     75          1           0       -0.907032   -1.895150   -2.224310
     76          1           0       -1.783108   -3.217292   -1.844385
     77          1           0        0.921140   -3.343039   -2.333760
     78          1           0       -0.003444   -4.612350   -1.621787
     79          1           0       -1.052797    5.329266   -1.390654
     80          1           0       -0.274982    4.145922   -0.413335
     81          1           0       -0.894780    5.557773    0.336803
     82          1           0       -2.771949    7.545342   -1.533694
     83          1           0       -2.194300    7.388154    0.170335
     84          1           0       -3.404772    8.530541   -0.183289
     85          1           0       -8.842477    3.533193   -1.152382
     86          1           0       -9.744749    1.873035    1.242473
     87          1           0       -8.456297    4.720088    1.672802
     88          1           0      -10.082263    4.143183    1.570177
     89          1           0       -9.699796    5.154238    0.349799
     90          1           0      -11.086313    2.459009   -0.931787
     91          1           0      -11.310166    0.897337   -0.216541
     92          1           0      -10.644691   -0.249348   -2.051666
     93          1           0       -9.253340    0.666727   -2.299453
     94          1           0      -10.797872    1.310746   -2.873035
     95          1           0       -8.883596   -4.132405   -0.195468
     96          1           0       -9.398650   -3.108496    1.211946
     97          1           0       -8.399360   -4.405854    1.465209
     98          1           0       -3.409302   -4.344850   -0.990591
     99          1           0       -1.760698   -6.479624    2.251016
    100          1           0       -0.327510   -6.438120    1.204033
    101          1           0       -1.744732   -7.448175    0.805089
    102          1           0        3.862602   -3.627577    0.835711
    103          1           0        3.135405   -2.014356    0.955566
    104          1           0        4.681897   -1.095977   -0.224431
    105          1           0        6.207250   -4.321343   -2.292975
    106          1           0        5.000554   -4.548064   -1.132961
    107          1           0        6.711414   -4.658346   -0.612686
    108          1           0        7.845618   -2.263456   -1.498268
    109          1           0        6.960411   -0.953838   -0.659821
    110          1           0        6.396163    0.091347   -2.534803
    111          1           0        5.809843   -1.411080   -3.151438
    112          1           0        7.380381   -1.399455   -4.647985
    113          1           0        8.666609   -1.830555   -3.566334
    114          1           0        8.030717    1.069462   -3.616627
    115          1           0        9.940803    0.738522   -5.758686
    116          1           0        8.276200    1.164213   -5.797964
    117          1           0        8.711384   -0.524059   -5.984013
    118          1           0       10.860358    0.231740   -3.723402
    119          1           0        9.896828   -0.426516   -2.335582
    120          1           0        9.115216    1.901208   -1.809094
    121          1           0       10.032691    2.450388   -3.304722
    122          1           0       11.850419    2.787219   -2.098817
    123          1           0       11.845323    1.136941   -1.509201
    124          1           0        9.831951    2.828640   -0.151234
    125          1           0       12.045244    4.248752   -0.341652
    126          1           0       12.781431    3.037783    0.730756
    127          1           0       11.571717    4.047407    1.338599
    128          1           0       11.921457    1.099721    1.044279
    129          1           0       10.583837    0.321274    0.299562
    130          1           0        9.240526    0.764255    2.058981
    131          1           0        9.874225    2.496632    2.107986
    132          1           0       11.821710    1.845281    3.163009
    133          1           0       11.275075    0.133571    3.354119
    134          1           0        9.292082    1.851923    4.534525
    135          1           0       11.266025    3.179070    4.862831
    136          1           0       11.908005    2.112789    6.030888
    137          1           0       10.202395    2.794050    6.266982
    138          1           0       10.379912   -0.882337    4.984849
    139          1           0        9.026194   -0.139043    5.714474
    140          1           0       10.765203    0.086383    6.298316
 ---------------------------------------------------------------------

 SCF Done:  E(RB-LYP) =  -3007.36397693     A.U. after   21 cycles

 Excitation energies and oscillator strengths:

 Excited State   1:      Singlet-A      1.7702 eV  700.38 nm  f=0.0050  <S**2>=0.000
     243 -> 247       -0.15057
     244 -> 247        0.67006
     245 -> 247       -0.15122
 This state for optimization and/or second-order correction.
 Total Energy, E(TD-HF/TD-DFT) =  -3007.29892187
 Copying the excited state density for this state as the 1-particle RhoCI density.

 Excited State   2:      Singlet-A      1.7776 eV  697.49 nm  f=0.0001  <S**2>=0.000
     243 -> 247        0.68868
     244 -> 247        0.15765

 Excited State   3:      Singlet-A      1.8341 eV  675.99 nm  f=0.3058  <S**2>=0.000
     245 -> 248       -0.17996
     246 -> 247        0.68862
     246 <- 247       -0.15052

 Excited State   4:      Singlet-A      2.0087 eV  617.23 nm  f=0.0981  <S**2>=0.000
     242 -> 247        0.14883
     244 -> 247        0.14916
     245 -> 247        0.63050
     246 -> 248        0.19454
     246 -> 249        0.10548

 Excited State   5:      Singlet-A      2.3311 eV  531.87 nm  f=0.0156  <S**2>=0.000
     242 -> 247        0.67888
     245 -> 247       -0.12297

 The electronic state is 1-A.
 Alpha  occ. eigenvalues --  -46.26525 -18.83385 -18.82548 -18.77588 -18.76185
 Alpha  occ. eigenvalues --  -18.75083 -18.74770 -14.03342 -14.03004 -14.01065
 Alpha  occ. eigenvalues --  -13.99634 -10.04907 -10.03599 -10.00149  -9.98435
 Alpha  occ. eigenvalues --   -9.98391  -9.96560  -9.96546  -9.96361  -9.96175
 Alpha  occ. eigenvalues --   -9.96106  -9.96046  -9.95467  -9.94413  -9.94349
 Alpha  occ. eigenvalues --   -9.94240  -9.94003  -9.93927  -9.93916  -9.93845
 Alpha  occ. eigenvalues --   -9.93752  -9.93716  -9.93563  -9.93515  -9.93260
 Alpha  occ. eigenvalues --   -9.93080  -9.93061  -9.93038  -9.92855  -9.92711
 Alpha  occ. eigenvalues --   -9.92439  -9.92415  -9.92307  -9.92167  -9.92048
 Alpha  occ. eigenvalues --   -9.91996  -9.91974  -9.91932  -9.91921  -9.91907
 Alpha  occ. eigenvalues --   -9.91871  -9.91825  -9.91774  -9.91556  -9.91432
 Alpha  occ. eigenvalues --   -9.91426  -9.91352  -9.91105  -9.91069  -9.91004
 Alpha  occ. eigenvalues --   -9.91002  -9.90828  -9.90827  -9.90745  -9.90459
 Alpha  occ. eigenvalues --   -9.89829  -2.91191  -1.71636  -1.71071  -1.70895
 Alpha  occ. eigenvalues --   -0.98710  -0.98425  -0.92198  -0.90164  -0.89542
 Alpha  occ. eigenvalues --   -0.89009  -0.87197  -0.86118  -0.85366  -0.84896
 Alpha  occ. eigenvalues --   -0.75170  -0.74847  -0.73530  -0.73260  -0.72399
 Alpha  occ. eigenvalues --   -0.71726  -0.71429  -0.71268  -0.70800  -0.69830
 Alpha  occ. eigenvalues --   -0.69449  -0.69126  -0.68605  -0.67446  -0.67153
 Alpha  occ. eigenvalues --   -0.66429  -0.65842  -0.65229  -0.64975  -0.64436
 Alpha  occ. eigenvalues --   -0.64152  -0.62592  -0.61995  -0.61130  -0.61051
 Alpha  occ. eigenvalues --   -0.60455  -0.60371  -0.60003  -0.59594  -0.59113
 Alpha  occ. eigenvalues --   -0.58514  -0.57983  -0.56528  -0.56089  -0.54784
 Alpha  occ. eigenvalues --   -0.53860  -0.53489  -0.52755  -0.52492  -0.51317
 Alpha  occ. eigenvalues --   -0.50840  -0.50777  -0.50629  -0.50547  -0.50237
 Alpha  occ. eigenvalues --   -0.50117  -0.49460  -0.48777  -0.48617  -0.46862
 Alpha  occ. eigenvalues --   -0.46321  -0.46096  -0.45558  -0.44711  -0.44245
 Alpha  occ. eigenvalues --   -0.44077  -0.43561  -0.43088  -0.42817  -0.42763
 Alpha  occ. eigenvalues --   -0.42566  -0.42034  -0.41943  -0.41632  -0.41563
 Alpha  occ. eigenvalues --   -0.41327  -0.40809  -0.40646  -0.40237  -0.40083
 Alpha  occ. eigenvalues --   -0.39810  -0.39540  -0.39429  -0.39185  -0.39148
 Alpha  occ. eigenvalues --   -0.39078  -0.38850  -0.38723  -0.38539  -0.38145
 Alpha  occ. eigenvalues --   -0.38028  -0.37692  -0.37619  -0.37437  -0.37217
 Alpha  occ. eigenvalues --   -0.37018  -0.36975  -0.36762  -0.36560  -0.36296
 Alpha  occ. eigenvalues --   -0.36048  -0.35860  -0.35822  -0.35712  -0.35647
 Alpha  occ. eigenvalues --   -0.35373  -0.35186  -0.34986  -0.34615  -0.34528
 Alpha  occ. eigenvalues --   -0.34431  -0.34286  -0.34193  -0.34043  -0.33897
 Alpha  occ. eigenvalues --   -0.33790  -0.33584  -0.33489  -0.33395  -0.32996
 Alpha  occ. eigenvalues --   -0.32842  -0.32770  -0.32683  -0.32432  -0.32124
 Alpha  occ. eigenvalues --   -0.31842  -0.31695  -0.31631  -0.31413  -0.31233
 Alpha  occ. eigenvalues --   -0.31195  -0.31011  -0.30981  -0.30820  -0.30591
 Alpha  occ. eigenvalues --   -0.30385  -0.30243  -0.30016  -0.29643  -0.29574
 Alpha  occ. eigenvalues --   -0.29479  -0.29344  -0.29314  -0.29181  -0.28850
 Alpha  occ. eigenvalues --   -0.28699  -0.28647  -0.28384  -0.28071  -0.27979
 Alpha  occ. eigenvalues --   -0.27526  -0.27278  -0.27170  -0.27098  -0.26686
 Alpha  occ. eigenvalues --   -0.26562  -0.26163  -0.26007  -0.25593  -0.25324
 Alpha  occ. eigenvalues --   -0.25033  -0.24747  -0.24727  -0.23732  -0.23541
 Alpha  occ. eigenvalues --   -0.22930  -0.22696  -0.22110  -0.21385  -0.20964
 Alpha  occ. eigenvalues --   -0.20331  -0.19485  -0.18033  -0.17966  -0.17074
 Alpha  occ. eigenvalues --   -0.15887
 Alpha virt. eigenvalues --   -0.11565  -0.06632  -0.05769  -0.04253  -0.04013
 Alpha virt. eigenvalues --   -0.03622  -0.01761  -0.01620  -0.00513  -0.00000
 Alpha virt. eigenvalues --    0.01175   0.01409   0.01710   0.02465   0.02658

 Mulliken charges:
               1
     1  Mg   0.682495
     2  C    0.033965
     3  C   -0.091495
     4  C   -0.017617
     5  C   -0.083512
     6  N   -0.168487
     7  C   -0.124961
     8  C    0.060476
     9  C   -0.004202
    10  C    0.035093
    11  C    0.157319
    12  C    0.097475
    13  C    0.156870
    14  C    0.071217
    15  O   -0.217997
    16  O   -0.253058
    17  N   -0.308558
    18  C    0.163106
    19  C   -0.136679
    20  C    0.039823
    21  C    0.112401
    22  C    0.147006
    23  C   -0.052202
    24  O   -0.205623
    25  C    0.130900
    26  N   -0.236990
    27  C   -0.052642
    28  C    0.075258
    29  C    0.027115
    30  C    0.065975
    31  C    0.128883
    32  C    0.048948
    33  C    0.037775
    34  N   -0.252483
    35  C    0.123057
    36  C   -0.170580
    37  C    0.102845
    38  C    0.041545
    39  C    0.176715
    40  C   -0.093241
    41  O   -0.106832
    42  C    0.072780
    43  C    0.109184
    44  O   -0.182633
    45  O   -0.237348
    46  C    0.198082
    47  C    0.315688
    48  C   -0.139600
    49  C   -0.125882
    50  C    0.157863
    51  C    0.165466
    52  C    0.085270
    53  C    0.071427
    54  C   -0.104480
    55  C    0.121206
    56  C    0.103835
    57  C    0.061635
    58  C    0.119431
    59  C   -0.097585
    60  C    0.087720
    61  C    0.116610
    62  C    0.065955
    63  C    0.059136
    64  C   -0.048336
    65  C    0.092373
    66  C    0.110918
    67  H   -0.060460
    68  H   -0.038555
    69  H   -0.064188
    70  H    0.017134
    71  H   -0.032374
    72  H    0.007901
    73  H   -0.025566
    74  H   -0.011631
    75  H   -0.037590
    76  H   -0.017516
    77  H   -0.018594
    78  H    0.005812
    79  H    0.003014
    80  H   -0.021171
    81  H    0.000106
    82  H    0.018170
    83  H   -0.012443
    84  H   -0.006019
    85  H   -0.007401
    86  H   -0.016890
    87  H    0.019671
    88  H   -0.014132
    89  H   -0.008219
    90  H   -0.020264
    91  H   -0.020767
    92  H   -0.009530
    93  H   -0.007665
    94  H   -0.008339
    95  H    0.017466
    96  H   -0.027234
    97  H   -0.006287
    98  H   -0.006209
    99  H    0.023467
   100  H    0.023398
   101  H    0.006461
   102  H    0.000932
   103  H   -0.007208
   104  H   -0.043748
   105  H   -0.006060
   106  H   -0.018032
   107  H    0.011917
   108  H   -0.037128
   109  H   -0.027898
   110  H   -0.022776
   111  H   -0.035698
   112  H   -0.035919
   113  H   -0.023886
   114  H   -0.034776
   115  H   -0.022872
   116  H   -0.024205
   117  H   -0.016907
   118  H   -0.027586
   119  H   -0.032660
   120  H   -0.017536
   121  H   -0.027639
   122  H   -0.042253
   123  H   -0.037186
   124  H   -0.034233
   125  H   -0.015298
   126  H   -0.020808
   127  H   -0.016867
   128  H   -0.045996
   129  H   -0.042006
   130  H   -0.028736
   131  H   -0.026809
   132  H   -0.028738
   133  H   -0.032850
   134  H   -0.038353
   135  H   -0.024174
   136  H   -0.011689
   137  H   -0.009320
   138  H   -0.024611
   139  H   -0.010144
   140  H   -0.021624
 Sum of Mulliken charges =  -0.00000

 Dipole moment (field-independent basis, Debye):
    X=              4.8437    Y=              1.2980    Z=             -3.7358  Tot=              6.2532
 Quadrupole moment (field-independent basis, Debye-Ang):
   XX=           -379.4248   YY=           -430.5953   ZZ=           -410.4222
   XY=            -14.7439   XZ=              1.4028   YZ=             10.7757

 Normal termination of Gaussian 16 at Sat Apr 30 07:19:50 2022.
