 Gaussian 16, Revision A.03,
 Gaussian 16:  ES64L-G16RevA.03 25-Dec-2016

 -----------------------------------
 #p cam-b3lyp/Def2SVP td=(nstates=5)
 -----------------------------------

 ------------------------------------------------------
 step_601_chromophore_9 TDDFT with cam-b3lyp functional
 ------------------------------------------------------
 Symbolic Z-matrix:
 Charge =  0 Multiplicity = 1

                         Standard orientation:
 ---------------------------------------------------------------------
 Center     Atomic      Atomic             Coordinates (Angstroms)
 Number     Number       Type             X           Y           Z
 ---------------------------------------------------------------------
      1         12           0       -5.000695    0.871271    0.170405
      2          6           0       -3.762742   -2.470967    0.125724
      3          6           0       -1.710327    1.893214    0.042214
      4          6           0       -6.241135    3.936176   -0.050871
      5          6           0       -8.218349   -0.416167    0.518221
      6          7           0       -3.003133   -0.178684    0.095357
      7          6           0       -2.750653   -1.503711   -0.007637
      8          6           0       -1.234662   -1.741210   -0.109740
      9          6           0       -0.642399   -0.379456    0.003614
     10          6           0       -1.850823    0.505035    0.157346
     11          6           0        0.320562   -0.239535    1.142536
     12          6           0       -0.970487   -2.627316   -1.420035
     13          6           0        0.298142   -3.575578   -1.470658
     14          6           0        1.294069   -3.486788   -0.310809
     15          8           0        0.999936   -3.715453    0.872753
     16          8           0        2.504877   -3.023027   -0.750686
     17          7           0       -4.096335    2.682554   -0.072757
     18          6           0       -2.754212    2.837440   -0.079009
     19          6           0       -2.531684    4.257841   -0.221315
     20          6           0       -3.806079    4.935477   -0.233738
     21          6           0       -4.815929    3.849575   -0.150806
     22          6           0       -1.131138    4.820679   -0.429131
     23          6           0       -4.112840    6.457578   -0.284333
     24          8           0       -5.297782    6.895362   -0.231563
     25          6           0       -3.054634    7.541402   -0.480395
     26          7           0       -6.905698    1.618090    0.171052
     27          6           0       -7.211348    2.951653   -0.037374
     28          6           0       -8.737556    3.311416   -0.089661
     29          6           0       -9.307872    1.912143    0.244809
     30          6           0       -8.050166    0.938519    0.269176
     31          6           0       -9.213457    4.394084    0.960289
     32          6           0      -10.560337    1.539324   -0.676815
     33          6           0      -10.307415    0.787500   -2.051481
     34          7           0       -5.910901   -1.057081    0.597540
     35          6           0       -7.215165   -1.430072    0.526138
     36          6           0       -7.346341   -2.805759    0.672736
     37          6           0       -6.041294   -3.270984    0.396973
     38          6           0       -5.152390   -2.197210    0.404926
     39          6           0       -8.576035   -3.628647    0.720950
     40          6           0       -5.197534   -4.429269    0.205288
     41          8           0       -5.578903   -5.557775    0.290017
     42          6           0       -3.741535   -3.989540   -0.015845
     43          6           0       -2.875754   -4.671885    1.049251
     44          8           0       -2.963863   -4.519719    2.265632
     45          8           0       -2.075639   -5.521632    0.390670
     46          6           0       -1.416056   -6.494043    1.217067
     47          6           0        3.521265   -2.764308    0.264613
     48          6           0        4.750760   -2.171842   -0.383581
     49          6           0        5.846917   -2.701416   -0.953672
     50          6           0        5.998432   -4.124133   -1.241110
     51          6           0        6.892429   -1.743450   -1.407872
     52          6           0        6.677581   -0.952593   -2.675293
     53          6           0        7.872728   -1.100463   -3.722461
     54          6           0        8.676156    0.256842   -3.949907
     55          6           0        8.957742    0.390556   -5.444822
     56          6           0        9.991119    0.364041   -3.079213
     57          6           0        9.977168    1.762138   -2.461595
     58          6           0       11.227484    2.027553   -1.625789
     59          6           0       10.844809    2.428232   -0.104278
     60          6           0       11.844919    3.508429    0.432608
     61          6           0       10.864503    1.240027    0.815411
     62          6           0       10.102005    1.430684    2.078405
     63          6           0       10.988920    1.184135    3.404333
     64          6           0       10.250622    1.368749    4.720335
     65          6           0       10.963208    2.419120    5.582188
     66          6           0       10.069076    0.048480    5.460313
     67          1           0       -0.703069    2.298034   -0.079527
     68          1           0       -6.734568    4.897666   -0.210327
     69          1           0       -9.236767   -0.746941    0.733336
     70          1           0       -1.018343   -2.369063    0.753882
     71          1           0       -0.061495   -0.117015   -0.880630
     72          1           0       -0.021919   -0.957447    1.888416
     73          1           0        0.220212    0.795514    1.468893
     74          1           0        1.316903   -0.364841    0.718586
     75          1           0       -0.907032   -1.895150   -2.224310
     76          1           0       -1.783108   -3.217292   -1.844385
     77          1           0        0.921140   -3.343039   -2.333760
     78          1           0       -0.003444   -4.612350   -1.621787
     79          1           0       -1.052797    5.329266   -1.390654
     80          1           0       -0.274982    4.145922   -0.413335
     81          1           0       -0.894780    5.557773    0.336803
     82          1           0       -2.771949    7.545342   -1.533694
     83          1           0       -2.194300    7.388154    0.170335
     84          1           0       -3.404772    8.530541   -0.183289
     85          1           0       -8.842477    3.533193   -1.152382
     86          1           0       -9.744749    1.873035    1.242473
     87          1           0       -8.456297    4.720088    1.672802
     88          1           0      -10.082263    4.143183    1.570177
     89          1           0       -9.699796    5.154238    0.349799
     90          1           0      -11.086313    2.459009   -0.931787
     91          1           0      -11.310166    0.897337   -0.216541
     92          1           0      -10.644691   -0.249348   -2.051666
     93          1           0       -9.253340    0.666727   -2.299453
     94          1           0      -10.797872    1.310746   -2.873035
     95          1           0       -8.883596   -4.132405   -0.195468
     96          1           0       -9.398650   -3.108496    1.211946
     97          1           0       -8.399360   -4.405854    1.465209
     98          1           0       -3.409302   -4.344850   -0.990591
     99          1           0       -1.760698   -6.479624    2.251016
    100          1           0       -0.327510   -6.438120    1.204033
    101          1           0       -1.744732   -7.448175    0.805089
    102          1           0        3.862602   -3.627577    0.835711
    103          1           0        3.135405   -2.014356    0.955566
    104          1           0        4.681897   -1.095977   -0.224431
    105          1           0        6.207250   -4.321343   -2.292975
    106          1           0        5.000554   -4.548064   -1.132961
    107          1           0        6.711414   -4.658346   -0.612686
    108          1           0        7.845618   -2.263456   -1.498268
    109          1           0        6.960411   -0.953838   -0.659821
    110          1           0        6.396163    0.091347   -2.534803
    111          1           0        5.809843   -1.411080   -3.151438
    112          1           0        7.380381   -1.399455   -4.647985
    113          1           0        8.666609   -1.830555   -3.566334
    114          1           0        8.030717    1.069462   -3.616627
    115          1           0        9.940803    0.738522   -5.758686
    116          1           0        8.276200    1.164213   -5.797964
    117          1           0        8.711384   -0.524059   -5.984013
    118          1           0       10.860358    0.231740   -3.723402
    119          1           0        9.896828   -0.426516   -2.335582
    120          1           0        9.115216    1.901208   -1.809094
    121          1           0       10.032691    2.450388   -3.304722
    122          1           0       11.850419    2.787219   -2.098817
    123          1           0       11.845323    1.136941   -1.509201
    124          1           0        9.831951    2.828640   -0.151234
    125          1           0       12.045244    4.248752   -0.341652
    126          1           0       12.781431    3.037783    0.730756
    127          1           0       11.571717    4.047407    1.338599
    128          1           0       11.921457    1.099721    1.044279
    129          1           0       10.583837    0.321274    0.299562
    130          1           0        9.240526    0.764255    2.058981
    131          1           0        9.874225    2.496632    2.107986
    132          1           0       11.821710    1.845281    3.163009
    133          1           0       11.275075    0.133571    3.354119
    134          1           0        9.292082    1.851923    4.534525
    135          1           0       11.266025    3.179070    4.862831
    136          1           0       11.908005    2.112789    6.030888
    137          1           0       10.202395    2.794050    6.266982
    138          1           0       10.379912   -0.882337    4.984849
    139          1           0        9.026194   -0.139043    5.714474
    140          1           0       10.765203    0.086383    6.298316
 ---------------------------------------------------------------------

 SCF Done:  E(RCAM-B3LYP) =  -3007.16116790     A.U. after   17 cycles

 Excitation energies and oscillator strengths:

 Excited State   1:      Singlet-A      1.7090 eV  725.46 nm  f=0.3930  <S**2>=0.000
     245 -> 248        0.17639
     246 -> 247        0.68654
     245 <- 248        0.10741
 This state for optimization and/or second-order correction.
 Total Energy, E(TD-HF/TD-DFT) =  -3007.09836195
 Copying the excited state density for this state as the 1-particle RhoCI density.

 Excited State   2:      Singlet-A      2.2010 eV  563.30 nm  f=0.1618  <S**2>=0.000
     245 -> 247        0.65330
     246 -> 248       -0.25134

 Excited State   3:      Singlet-A      3.0754 eV  403.14 nm  f=0.0068  <S**2>=0.000
     244 -> 247        0.68764

 Excited State   4:      Singlet-A      3.3742 eV  367.45 nm  f=0.0017  <S**2>=0.000
     242 -> 247        0.58841
     242 -> 249       -0.18016
     242 -> 250        0.20880
     243 -> 247        0.22905

 Excited State   5:      Singlet-A      3.4267 eV  361.81 nm  f=0.0020  <S**2>=0.000
     242 -> 247       -0.21739
     243 -> 247        0.64186
     246 -> 248        0.13786

 The electronic state is 1-A.
 Alpha  occ. eigenvalues --  -46.88019 -19.26308 -19.25458 -19.20539 -19.19199
 Alpha  occ. eigenvalues --  -19.18413 -19.17924 -14.42344 -14.41732 -14.39552
 Alpha  occ. eigenvalues --  -14.37871 -10.40255 -10.39006 -10.35564 -10.33574
 Alpha  occ. eigenvalues --  -10.32531 -10.31002 -10.30963 -10.30640 -10.30538
 Alpha  occ. eigenvalues --  -10.30489 -10.30470 -10.29848 -10.28624 -10.28444
 Alpha  occ. eigenvalues --  -10.28320 -10.28293 -10.28243 -10.28120 -10.27983
 Alpha  occ. eigenvalues --  -10.27943 -10.27789 -10.27735 -10.27684 -10.27626
 Alpha  occ. eigenvalues --  -10.27370 -10.27080 -10.26970 -10.26612 -10.26541
 Alpha  occ. eigenvalues --  -10.26295 -10.26191 -10.26109 -10.25981 -10.25950
 Alpha  occ. eigenvalues --  -10.25917 -10.25912 -10.25807 -10.25706 -10.25669
 Alpha  occ. eigenvalues --  -10.25615 -10.25512 -10.25432 -10.25113 -10.25082
 Alpha  occ. eigenvalues --  -10.25043 -10.25001 -10.24778 -10.24733 -10.24727
 Alpha  occ. eigenvalues --  -10.24716 -10.24413 -10.24411 -10.24310 -10.24079
 Alpha  occ. eigenvalues --  -10.23822  -3.16595  -1.91516  -1.91054  -1.90888
 Alpha  occ. eigenvalues --   -1.17212  -1.16854  -1.10640  -1.08022  -1.07493
 Alpha  occ. eigenvalues --   -1.07427  -1.05035  -1.03733  -1.02954  -1.02371
 Alpha  occ. eigenvalues --   -0.92306  -0.91765  -0.90392  -0.90035  -0.89126
 Alpha  occ. eigenvalues --   -0.88477  -0.87999  -0.87876  -0.87368  -0.86217
 Alpha  occ. eigenvalues --   -0.85983  -0.85599  -0.84921  -0.83584  -0.83242
 Alpha  occ. eigenvalues --   -0.82511  -0.81722  -0.81177  -0.80875  -0.80308
 Alpha  occ. eigenvalues --   -0.80196  -0.78222  -0.77782  -0.76568  -0.76433
 Alpha  occ. eigenvalues --   -0.75825  -0.75758  -0.75286  -0.74908  -0.74378
 Alpha  occ. eigenvalues --   -0.73564  -0.72987  -0.71421  -0.70911  -0.69375
 Alpha  occ. eigenvalues --   -0.68427  -0.68056  -0.67144  -0.66968  -0.65510
 Alpha  occ. eigenvalues --   -0.64928  -0.64779  -0.64611  -0.64418  -0.64235
 Alpha  occ. eigenvalues --   -0.64226  -0.63453  -0.62665  -0.62379  -0.60427
 Alpha  occ. eigenvalues --   -0.59951  -0.59703  -0.59090  -0.58061  -0.57794
 Alpha  occ. eigenvalues --   -0.57435  -0.56905  -0.56345  -0.56111  -0.55812
 Alpha  occ. eigenvalues --   -0.55660  -0.55258  -0.54804  -0.54742  -0.54575
 Alpha  occ. eigenvalues --   -0.54355  -0.53722  -0.53499  -0.52912  -0.52738
 Alpha  occ. eigenvalues --   -0.52567  -0.52307  -0.51937  -0.51839  -0.51766
 Alpha  occ. eigenvalues --   -0.51528  -0.51448  -0.51151  -0.51102  -0.50560
 Alpha  occ. eigenvalues --   -0.50323  -0.50161  -0.49971  -0.49823  -0.49433
 Alpha  occ. eigenvalues --   -0.49315  -0.49229  -0.49069  -0.48877  -0.48660
 Alpha  occ. eigenvalues --   -0.48436  -0.48390  -0.48103  -0.47847  -0.47800
 Alpha  occ. eigenvalues --   -0.47628  -0.47281  -0.46723  -0.46550  -0.46421
 Alpha  occ. eigenvalues --   -0.46201  -0.46125  -0.46092  -0.45987  -0.45850
 Alpha  occ. eigenvalues --   -0.45604  -0.45416  -0.45300  -0.45225  -0.44581
 Alpha  occ. eigenvalues --   -0.44572  -0.44407  -0.44330  -0.44106  -0.43898
 Alpha  occ. eigenvalues --   -0.43508  -0.43348  -0.43125  -0.43008  -0.42926
 Alpha  occ. eigenvalues --   -0.42754  -0.42640  -0.42550  -0.42146  -0.41922
 Alpha  occ. eigenvalues --   -0.41711  -0.41703  -0.41452  -0.41148  -0.41064
 Alpha  occ. eigenvalues --   -0.40816  -0.40749  -0.40526  -0.40452  -0.39905
 Alpha  occ. eigenvalues --   -0.39858  -0.39580  -0.39376  -0.39015  -0.38941
 Alpha  occ. eigenvalues --   -0.38391  -0.38340  -0.37984  -0.37922  -0.37456
 Alpha  occ. eigenvalues --   -0.37341  -0.37263  -0.36790  -0.36493  -0.36304
 Alpha  occ. eigenvalues --   -0.36099  -0.35910  -0.35211  -0.34501  -0.34121
 Alpha  occ. eigenvalues --   -0.34026  -0.33893  -0.32581  -0.31067  -0.30808
 Alpha  occ. eigenvalues --   -0.30524  -0.30024  -0.29782  -0.28552  -0.23771
 Alpha  occ. eigenvalues --   -0.21259
 Alpha virt. eigenvalues --   -0.08818  -0.01240   0.00648   0.03039   0.03308
 Alpha virt. eigenvalues --    0.03768   0.04140   0.05214   0.06183   0.06599
 Alpha virt. eigenvalues --    0.07660   0.08128   0.08625   0.08917   0.09087

 Mulliken charges:
               1
     1  Mg   0.817093
     2  C    0.006678
     3  C   -0.095721
     4  C   -0.040654
     5  C   -0.089007
     6  N   -0.237768
     7  C   -0.077974
     8  C    0.000770
     9  C   -0.062542
    10  C    0.053341
    11  C    0.101676
    12  C    0.047588
    13  C    0.089871
    14  C    0.147820
    15  O   -0.258419
    16  O   -0.317444
    17  N   -0.401272
    18  C    0.172332
    19  C   -0.144514
    20  C   -0.030640
    21  C    0.140634
    22  C    0.089822
    23  C    0.022738
    24  O   -0.245055
    25  C    0.056482
    26  N   -0.315222
    27  C   -0.021123
    28  C    0.011744
    29  C   -0.021253
    30  C    0.079134
    31  C    0.066345
    32  C   -0.002309
    33  C   -0.021181
    34  N   -0.336369
    35  C    0.125829
    36  C   -0.166262
    37  C    0.029545
    38  C    0.075574
    39  C    0.120864
    40  C    0.002123
    41  O   -0.145667
    42  C   -0.003763
    43  C    0.198790
    44  O   -0.221714
    45  O   -0.299485
    46  C    0.159218
    47  C    0.283551
    48  C   -0.158827
    49  C   -0.145774
    50  C    0.093137
    51  C    0.104419
    52  C    0.030239
    53  C    0.017884
    54  C   -0.155482
    55  C    0.059525
    56  C    0.054632
    57  C    0.005303
    58  C    0.068370
    59  C   -0.154918
    60  C    0.031219
    61  C    0.061146
    62  C    0.014530
    63  C    0.011004
    64  C   -0.113109
    65  C    0.036872
    66  C    0.048264
    67  H   -0.025949
    68  H    0.000456
    69  H   -0.029912
    70  H    0.050989
    71  H    0.004357
    72  H    0.034761
    73  H    0.000966
    74  H    0.009213
    75  H   -0.005754
    76  H    0.012467
    77  H    0.017866
    78  H    0.036780
    79  H    0.029232
    80  H    0.008292
    81  H    0.025145
    82  H    0.044798
    83  H    0.014394
    84  H    0.028991
    85  H    0.026958
    86  H    0.018044
    87  H    0.045353
    88  H    0.011616
    89  H    0.016531
    90  H    0.007063
    91  H    0.007191
    92  H    0.013624
    93  H    0.014840
    94  H    0.015007
    95  H    0.042217
    96  H   -0.001678
    97  H    0.021416
    98  H    0.037236
    99  H    0.050995
   100  H    0.043457
   101  H    0.028892
   102  H    0.029146
   103  H    0.020156
   104  H   -0.013138
   105  H    0.018472
   106  H    0.007594
   107  H    0.036599
   108  H   -0.007579
   109  H    0.002120
   110  H    0.004428
   111  H   -0.004157
   112  H   -0.005217
   113  H    0.003170
   114  H   -0.003850
   115  H    0.001948
   116  H    0.000516
   117  H    0.007452
   118  H    0.001007
   119  H   -0.008001
   120  H    0.007590
   121  H    0.000690
   122  H   -0.011558
   123  H   -0.008241
   124  H   -0.003435
   125  H    0.009669
   126  H    0.001868
   127  H    0.006549
   128  H   -0.016486
   129  H   -0.012875
   130  H   -0.001146
   131  H   -0.000982
   132  H   -0.003717
   133  H   -0.004641
   134  H   -0.005312
   135  H   -0.001637
   136  H    0.011486
   137  H    0.015180
   138  H    0.000923
   139  H    0.014183
   140  H    0.002728
 Sum of Mulliken charges =  -0.00000

 Dipole moment (field-independent basis, Debye):
    X=              5.2807    Y=              1.8515    Z=             -4.0354  Tot=              6.8991
 Quadrupole moment (field-independent basis, Debye-Ang):
   XX=           -379.9329   YY=           -425.5632   ZZ=           -410.8465
   XY=            -16.0670   XZ=              2.1599   YZ=             11.1081

 Normal termination of Gaussian 16 at Sat Apr 30 06:19:43 2022.
