 Gaussian 16, Revision A.03,
 Gaussian 16:  ES64L-G16RevA.03 25-Dec-2016

 ---------------------------------
 #p PBE1PBE/Def2SVP td=(nstates=5)
 ---------------------------------

 ----------------------------------------------------
 step_601_chromophore_9 TDDFT with PBE1PBE functional
 ----------------------------------------------------
 Symbolic Z-matrix:
 Charge =  0 Multiplicity = 1

                         Standard orientation:
 ---------------------------------------------------------------------
 Center     Atomic      Atomic             Coordinates (Angstroms)
 Number     Number       Type             X           Y           Z
 ---------------------------------------------------------------------
      1         12           0       -5.000695    0.871271    0.170405
      2          6           0       -3.762742   -2.470967    0.125724
      3          6           0       -1.710327    1.893214    0.042214
      4          6           0       -6.241135    3.936176   -0.050871
      5          6           0       -8.218349   -0.416167    0.518221
      6          7           0       -3.003133   -0.178684    0.095357
      7          6           0       -2.750653   -1.503711   -0.007637
      8          6           0       -1.234662   -1.741210   -0.109740
      9          6           0       -0.642399   -0.379456    0.003614
     10          6           0       -1.850823    0.505035    0.157346
     11          6           0        0.320562   -0.239535    1.142536
     12          6           0       -0.970487   -2.627316   -1.420035
     13          6           0        0.298142   -3.575578   -1.470658
     14          6           0        1.294069   -3.486788   -0.310809
     15          8           0        0.999936   -3.715453    0.872753
     16          8           0        2.504877   -3.023027   -0.750686
     17          7           0       -4.096335    2.682554   -0.072757
     18          6           0       -2.754212    2.837440   -0.079009
     19          6           0       -2.531684    4.257841   -0.221315
     20          6           0       -3.806079    4.935477   -0.233738
     21          6           0       -4.815929    3.849575   -0.150806
     22          6           0       -1.131138    4.820679   -0.429131
     23          6           0       -4.112840    6.457578   -0.284333
     24          8           0       -5.297782    6.895362   -0.231563
     25          6           0       -3.054634    7.541402   -0.480395
     26          7           0       -6.905698    1.618090    0.171052
     27          6           0       -7.211348    2.951653   -0.037374
     28          6           0       -8.737556    3.311416   -0.089661
     29          6           0       -9.307872    1.912143    0.244809
     30          6           0       -8.050166    0.938519    0.269176
     31          6           0       -9.213457    4.394084    0.960289
     32          6           0      -10.560337    1.539324   -0.676815
     33          6           0      -10.307415    0.787500   -2.051481
     34          7           0       -5.910901   -1.057081    0.597540
     35          6           0       -7.215165   -1.430072    0.526138
     36          6           0       -7.346341   -2.805759    0.672736
     37          6           0       -6.041294   -3.270984    0.396973
     38          6           0       -5.152390   -2.197210    0.404926
     39          6           0       -8.576035   -3.628647    0.720950
     40          6           0       -5.197534   -4.429269    0.205288
     41          8           0       -5.578903   -5.557775    0.290017
     42          6           0       -3.741535   -3.989540   -0.015845
     43          6           0       -2.875754   -4.671885    1.049251
     44          8           0       -2.963863   -4.519719    2.265632
     45          8           0       -2.075639   -5.521632    0.390670
     46          6           0       -1.416056   -6.494043    1.217067
     47          6           0        3.521265   -2.764308    0.264613
     48          6           0        4.750760   -2.171842   -0.383581
     49          6           0        5.846917   -2.701416   -0.953672
     50          6           0        5.998432   -4.124133   -1.241110
     51          6           0        6.892429   -1.743450   -1.407872
     52          6           0        6.677581   -0.952593   -2.675293
     53          6           0        7.872728   -1.100463   -3.722461
     54          6           0        8.676156    0.256842   -3.949907
     55          6           0        8.957742    0.390556   -5.444822
     56          6           0        9.991119    0.364041   -3.079213
     57          6           0        9.977168    1.762138   -2.461595
     58          6           0       11.227484    2.027553   -1.625789
     59          6           0       10.844809    2.428232   -0.104278
     60          6           0       11.844919    3.508429    0.432608
     61          6           0       10.864503    1.240027    0.815411
     62          6           0       10.102005    1.430684    2.078405
     63          6           0       10.988920    1.184135    3.404333
     64          6           0       10.250622    1.368749    4.720335
     65          6           0       10.963208    2.419120    5.582188
     66          6           0       10.069076    0.048480    5.460313
     67          1           0       -0.703069    2.298034   -0.079527
     68          1           0       -6.734568    4.897666   -0.210327
     69          1           0       -9.236767   -0.746941    0.733336
     70          1           0       -1.018343   -2.369063    0.753882
     71          1           0       -0.061495   -0.117015   -0.880630
     72          1           0       -0.021919   -0.957447    1.888416
     73          1           0        0.220212    0.795514    1.468893
     74          1           0        1.316903   -0.364841    0.718586
     75          1           0       -0.907032   -1.895150   -2.224310
     76          1           0       -1.783108   -3.217292   -1.844385
     77          1           0        0.921140   -3.343039   -2.333760
     78          1           0       -0.003444   -4.612350   -1.621787
     79          1           0       -1.052797    5.329266   -1.390654
     80          1           0       -0.274982    4.145922   -0.413335
     81          1           0       -0.894780    5.557773    0.336803
     82          1           0       -2.771949    7.545342   -1.533694
     83          1           0       -2.194300    7.388154    0.170335
     84          1           0       -3.404772    8.530541   -0.183289
     85          1           0       -8.842477    3.533193   -1.152382
     86          1           0       -9.744749    1.873035    1.242473
     87          1           0       -8.456297    4.720088    1.672802
     88          1           0      -10.082263    4.143183    1.570177
     89          1           0       -9.699796    5.154238    0.349799
     90          1           0      -11.086313    2.459009   -0.931787
     91          1           0      -11.310166    0.897337   -0.216541
     92          1           0      -10.644691   -0.249348   -2.051666
     93          1           0       -9.253340    0.666727   -2.299453
     94          1           0      -10.797872    1.310746   -2.873035
     95          1           0       -8.883596   -4.132405   -0.195468
     96          1           0       -9.398650   -3.108496    1.211946
     97          1           0       -8.399360   -4.405854    1.465209
     98          1           0       -3.409302   -4.344850   -0.990591
     99          1           0       -1.760698   -6.479624    2.251016
    100          1           0       -0.327510   -6.438120    1.204033
    101          1           0       -1.744732   -7.448175    0.805089
    102          1           0        3.862602   -3.627577    0.835711
    103          1           0        3.135405   -2.014356    0.955566
    104          1           0        4.681897   -1.095977   -0.224431
    105          1           0        6.207250   -4.321343   -2.292975
    106          1           0        5.000554   -4.548064   -1.132961
    107          1           0        6.711414   -4.658346   -0.612686
    108          1           0        7.845618   -2.263456   -1.498268
    109          1           0        6.960411   -0.953838   -0.659821
    110          1           0        6.396163    0.091347   -2.534803
    111          1           0        5.809843   -1.411080   -3.151438
    112          1           0        7.380381   -1.399455   -4.647985
    113          1           0        8.666609   -1.830555   -3.566334
    114          1           0        8.030717    1.069462   -3.616627
    115          1           0        9.940803    0.738522   -5.758686
    116          1           0        8.276200    1.164213   -5.797964
    117          1           0        8.711384   -0.524059   -5.984013
    118          1           0       10.860358    0.231740   -3.723402
    119          1           0        9.896828   -0.426516   -2.335582
    120          1           0        9.115216    1.901208   -1.809094
    121          1           0       10.032691    2.450388   -3.304722
    122          1           0       11.850419    2.787219   -2.098817
    123          1           0       11.845323    1.136941   -1.509201
    124          1           0        9.831951    2.828640   -0.151234
    125          1           0       12.045244    4.248752   -0.341652
    126          1           0       12.781431    3.037783    0.730756
    127          1           0       11.571717    4.047407    1.338599
    128          1           0       11.921457    1.099721    1.044279
    129          1           0       10.583837    0.321274    0.299562
    130          1           0        9.240526    0.764255    2.058981
    131          1           0        9.874225    2.496632    2.107986
    132          1           0       11.821710    1.845281    3.163009
    133          1           0       11.275075    0.133571    3.354119
    134          1           0        9.292082    1.851923    4.534525
    135          1           0       11.266025    3.179070    4.862831
    136          1           0       11.908005    2.112789    6.030888
    137          1           0       10.202395    2.794050    6.266982
    138          1           0       10.379912   -0.882337    4.984849
    139          1           0        9.026194   -0.139043    5.714474
    140          1           0       10.765203    0.086383    6.298316
 ---------------------------------------------------------------------

 SCF Done:  E(RPBE1PBE) =  -3005.35008226     A.U. after   15 cycles

 Excitation energies and oscillator strengths:

 Excited State   1:      Singlet-A      1.8727 eV  662.06 nm  f=0.3768  <S**2>=0.000
     245 -> 248        0.16854
     246 -> 247        0.69349
     246 <- 247       -0.10961
 This state for optimization and/or second-order correction.
 Total Energy, E(TD-HF/TD-DFT) =  -3005.28126163
 Copying the excited state density for this state as the 1-particle RhoCI density.

 Excited State   2:      Singlet-A      2.2151 eV  559.71 nm  f=0.1485  <S**2>=0.000
     245 -> 247        0.65950
     246 -> 248       -0.22616

 Excited State   3:      Singlet-A      2.7465 eV  451.43 nm  f=0.0076  <S**2>=0.000
     243 -> 247        0.19195
     244 -> 247        0.66575

 Excited State   4:      Singlet-A      2.8458 eV  435.67 nm  f=0.0033  <S**2>=0.000
     243 -> 247        0.66079
     244 -> 247       -0.19601

 Excited State   5:      Singlet-A      2.9643 eV  418.25 nm  f=0.0001  <S**2>=0.000
     242 -> 247        0.66463
     242 -> 248        0.10849
     242 -> 249        0.17143

 The electronic state is 1-A.
 Alpha  occ. eigenvalues --  -46.91411 -19.26963 -19.26109 -19.20805 -19.19457
 Alpha  occ. eigenvalues --  -19.18592 -19.18150 -14.41749 -14.41319 -14.39185
 Alpha  occ. eigenvalues --  -14.37603 -10.37278 -10.36031 -10.32680 -10.30739
 Alpha  occ. eigenvalues --  -10.29891 -10.28772 -10.28571 -10.28342 -10.28268
 Alpha  occ. eigenvalues --  -10.28187 -10.27696 -10.27459 -10.26202 -10.26194
 Alpha  occ. eigenvalues --  -10.26125 -10.26095 -10.25915 -10.25909 -10.25574
 Alpha  occ. eigenvalues --  -10.25560 -10.25555 -10.25486 -10.25475 -10.25246
 Alpha  occ. eigenvalues --  -10.24915 -10.24681 -10.24436 -10.24325 -10.24279
 Alpha  occ. eigenvalues --  -10.23676 -10.23654 -10.23649 -10.23623 -10.23563
 Alpha  occ. eigenvalues --  -10.23508 -10.23473 -10.23452 -10.23394 -10.23312
 Alpha  occ. eigenvalues --  -10.23066 -10.23055 -10.23047 -10.22617 -10.22604
 Alpha  occ. eigenvalues --  -10.22602 -10.22442 -10.22318 -10.22304 -10.22280
 Alpha  occ. eigenvalues --  -10.22146 -10.21818 -10.21797 -10.21683 -10.21598
 Alpha  occ. eigenvalues --  -10.21592  -3.13567  -1.86430  -1.85946  -1.85783
 Alpha  occ. eigenvalues --   -1.12020  -1.11641  -1.05426  -1.02847  -1.02307
 Alpha  occ. eigenvalues --   -1.02076  -0.99610  -0.98386  -0.97636  -0.97086
 Alpha  occ. eigenvalues --   -0.86662  -0.85927  -0.84474  -0.84304  -0.83230
 Alpha  occ. eigenvalues --   -0.82769  -0.82289  -0.81997  -0.81650  -0.80471
 Alpha  occ. eigenvalues --   -0.80248  -0.79932  -0.79097  -0.77874  -0.77506
 Alpha  occ. eigenvalues --   -0.76740  -0.75943  -0.75386  -0.75202  -0.74455
 Alpha  occ. eigenvalues --   -0.74399  -0.72506  -0.72036  -0.70889  -0.70624
 Alpha  occ. eigenvalues --   -0.70093  -0.69908  -0.69641  -0.69031  -0.68547
 Alpha  occ. eigenvalues --   -0.67889  -0.67451  -0.65804  -0.65238  -0.63752
 Alpha  occ. eigenvalues --   -0.62679  -0.62512  -0.61496  -0.61279  -0.59988
 Alpha  occ. eigenvalues --   -0.59250  -0.59195  -0.59106  -0.58892  -0.58785
 Alpha  occ. eigenvalues --   -0.58351  -0.57606  -0.56963  -0.56874  -0.54783
 Alpha  occ. eigenvalues --   -0.54468  -0.54206  -0.53666  -0.52696  -0.52201
 Alpha  occ. eigenvalues --   -0.51779  -0.51501  -0.50930  -0.50645  -0.50346
 Alpha  occ. eigenvalues --   -0.50000  -0.49795  -0.49355  -0.49313  -0.49079
 Alpha  occ. eigenvalues --   -0.48733  -0.48288  -0.48003  -0.47549  -0.47271
 Alpha  occ. eigenvalues --   -0.47086  -0.46844  -0.46508  -0.46307  -0.46202
 Alpha  occ. eigenvalues --   -0.46042  -0.45965  -0.45687  -0.45611  -0.45126
 Alpha  occ. eigenvalues --   -0.44868  -0.44789  -0.44504  -0.44345  -0.44023
 Alpha  occ. eigenvalues --   -0.43926  -0.43812  -0.43691  -0.43451  -0.43273
 Alpha  occ. eigenvalues --   -0.43044  -0.42967  -0.42721  -0.42554  -0.42442
 Alpha  occ. eigenvalues --   -0.42251  -0.41935  -0.41316  -0.41253  -0.41128
 Alpha  occ. eigenvalues --   -0.40898  -0.40844  -0.40776  -0.40632  -0.40520
 Alpha  occ. eigenvalues --   -0.40318  -0.40111  -0.40082  -0.39837  -0.39322
 Alpha  occ. eigenvalues --   -0.39261  -0.39219  -0.38996  -0.38923  -0.38682
 Alpha  occ. eigenvalues --   -0.38323  -0.38152  -0.37960  -0.37742  -0.37691
 Alpha  occ. eigenvalues --   -0.37499  -0.37433  -0.37344  -0.36907  -0.36766
 Alpha  occ. eigenvalues --   -0.36563  -0.36459  -0.36291  -0.35916  -0.35813
 Alpha  occ. eigenvalues --   -0.35592  -0.35555  -0.35350  -0.35290  -0.34809
 Alpha  occ. eigenvalues --   -0.34632  -0.34532  -0.34143  -0.33862  -0.33804
 Alpha  occ. eigenvalues --   -0.33281  -0.33192  -0.32761  -0.32693  -0.32282
 Alpha  occ. eigenvalues --   -0.32216  -0.32056  -0.31858  -0.31527  -0.31318
 Alpha  occ. eigenvalues --   -0.31077  -0.30831  -0.30158  -0.29327  -0.29249
 Alpha  occ. eigenvalues --   -0.29055  -0.28912  -0.28115  -0.26697  -0.26133
 Alpha  occ. eigenvalues --   -0.25344  -0.25176  -0.24932  -0.24221  -0.20738
 Alpha  occ. eigenvalues --   -0.18857
 Alpha virt. eigenvalues --   -0.11215  -0.04823  -0.03529  -0.01399  -0.01182
 Alpha virt. eigenvalues --   -0.00559   0.00931   0.01484   0.01793   0.02855
 Alpha virt. eigenvalues --    0.04002   0.04287   0.04733   0.05395   0.05618

 Mulliken charges:
               1
     1  Mg   0.969168
     2  C   -0.001586
     3  C   -0.078757
     4  C   -0.036303
     5  C   -0.071392
     6  N   -0.348954
     7  C   -0.007155
     8  C   -0.075131
     9  C   -0.144258
    10  C    0.094296
    11  C    0.042344
    12  C    0.004792
    13  C    0.015080
    14  C    0.212484
    15  O   -0.290183
    16  O   -0.348922
    17  N   -0.525879
    18  C    0.201022
    19  C   -0.178933
    20  C   -0.082119
    21  C    0.174075
    22  C    0.033756
    23  C    0.068272
    24  O   -0.278499
    25  C   -0.013696
    26  N   -0.424654
    27  C    0.018374
    28  C   -0.075770
    29  C   -0.082241
    30  C    0.108919
    31  C    0.009166
    32  C   -0.065075
    33  C   -0.090745
    34  N   -0.452748
    35  C    0.139396
    36  C   -0.176238
    37  C   -0.033551
    38  C    0.138251
    39  C    0.065570
    40  C    0.106071
    41  O   -0.193329
    42  C   -0.120820
    43  C    0.294013
    44  O   -0.257358
    45  O   -0.333093
    46  C    0.105767
    47  C    0.237177
    48  C   -0.165487
    49  C   -0.193281
    50  C    0.030782
    51  C    0.039864
    52  C   -0.030198
    53  C   -0.037545
    54  C   -0.236751
    55  C    0.000769
    56  C    0.000028
    57  C   -0.067107
    58  C    0.021895
    59  C   -0.249209
    60  C   -0.025924
    61  C    0.010703
    62  C   -0.050538
    63  C   -0.045031
    64  C   -0.206831
    65  C   -0.026517
    66  C   -0.009056
    67  H    0.004946
    68  H    0.032757
    69  H    0.002569
    70  H    0.091958
    71  H    0.041031
    72  H    0.061547
    73  H    0.030843
    74  H    0.039627
    75  H    0.027612
    76  H    0.044333
    77  H    0.050538
    78  H    0.067866
    79  H    0.056605
    80  H    0.034205
    81  H    0.052286
    82  H    0.070843
    83  H    0.040678
    84  H    0.055540
    85  H    0.064192
    86  H    0.055251
    87  H    0.071247
    88  H    0.038467
    89  H    0.044046
    90  H    0.040287
    91  H    0.038544
    92  H    0.040511
    93  H    0.044216
    94  H    0.042703
    95  H    0.069191
    96  H    0.025936
    97  H    0.050524
    98  H    0.074269
    99  H    0.071598
   100  H    0.065264
   101  H    0.051415
   102  H    0.055505
   103  H    0.047719
   104  H    0.016240
   105  H    0.046450
   106  H    0.036767
   107  H    0.063634
   108  H    0.025107
   109  H    0.035753
   110  H    0.034100
   111  H    0.030412
   112  H    0.027823
   113  H    0.034130
   114  H    0.034077
   115  H    0.028726
   116  H    0.028890
   117  H    0.034168
   118  H    0.033345
   119  H    0.027247
   120  H    0.039664
   121  H    0.035639
   122  H    0.020058
   123  H    0.024195
   124  H    0.034657
   125  H    0.037884
   126  H    0.028532
   127  H    0.033423
   128  H    0.016421
   129  H    0.021218
   130  H    0.031735
   131  H    0.033645
   132  H    0.028875
   133  H    0.029453
   134  H    0.032200
   135  H    0.027582
   136  H    0.038574
   137  H    0.043413
   138  H    0.027185
   139  H    0.041204
   140  H    0.029732
 Sum of Mulliken charges =  -0.00000

 Dipole moment (field-independent basis, Debye):
    X=              5.1287    Y=              1.6827    Z=             -4.0610  Tot=              6.7548
 Quadrupole moment (field-independent basis, Debye-Ang):
   XX=           -372.2868   YY=           -423.1697   ZZ=           -408.3586
   XY=            -15.6149   XZ=              1.4382   YZ=             11.1432

 Normal termination of Gaussian 16 at Sat Apr 30 06:37:44 2022.
