 Gaussian 16, Revision A.03,
 Gaussian 16:  ES64L-G16RevA.03 25-Dec-2016

 --------------------------------
 #p wB97XD/Def2SVP td=(nstates=5)
 --------------------------------

 ---------------------------------------------------
 step_601_chromophore_9 TDDFT with wB97XD functional
 ---------------------------------------------------
 Symbolic Z-matrix:
 Charge =  0 Multiplicity = 1

                         Standard orientation:
 ---------------------------------------------------------------------
 Center     Atomic      Atomic             Coordinates (Angstroms)
 Number     Number       Type             X           Y           Z
 ---------------------------------------------------------------------
      1         12           0       -5.000695    0.871271    0.170405
      2          6           0       -3.762742   -2.470967    0.125724
      3          6           0       -1.710327    1.893214    0.042214
      4          6           0       -6.241135    3.936176   -0.050871
      5          6           0       -8.218349   -0.416167    0.518221
      6          7           0       -3.003133   -0.178684    0.095357
      7          6           0       -2.750653   -1.503711   -0.007637
      8          6           0       -1.234662   -1.741210   -0.109740
      9          6           0       -0.642399   -0.379456    0.003614
     10          6           0       -1.850823    0.505035    0.157346
     11          6           0        0.320562   -0.239535    1.142536
     12          6           0       -0.970487   -2.627316   -1.420035
     13          6           0        0.298142   -3.575578   -1.470658
     14          6           0        1.294069   -3.486788   -0.310809
     15          8           0        0.999936   -3.715453    0.872753
     16          8           0        2.504877   -3.023027   -0.750686
     17          7           0       -4.096335    2.682554   -0.072757
     18          6           0       -2.754212    2.837440   -0.079009
     19          6           0       -2.531684    4.257841   -0.221315
     20          6           0       -3.806079    4.935477   -0.233738
     21          6           0       -4.815929    3.849575   -0.150806
     22          6           0       -1.131138    4.820679   -0.429131
     23          6           0       -4.112840    6.457578   -0.284333
     24          8           0       -5.297782    6.895362   -0.231563
     25          6           0       -3.054634    7.541402   -0.480395
     26          7           0       -6.905698    1.618090    0.171052
     27          6           0       -7.211348    2.951653   -0.037374
     28          6           0       -8.737556    3.311416   -0.089661
     29          6           0       -9.307872    1.912143    0.244809
     30          6           0       -8.050166    0.938519    0.269176
     31          6           0       -9.213457    4.394084    0.960289
     32          6           0      -10.560337    1.539324   -0.676815
     33          6           0      -10.307415    0.787500   -2.051481
     34          7           0       -5.910901   -1.057081    0.597540
     35          6           0       -7.215165   -1.430072    0.526138
     36          6           0       -7.346341   -2.805759    0.672736
     37          6           0       -6.041294   -3.270984    0.396973
     38          6           0       -5.152390   -2.197210    0.404926
     39          6           0       -8.576035   -3.628647    0.720950
     40          6           0       -5.197534   -4.429269    0.205288
     41          8           0       -5.578903   -5.557775    0.290017
     42          6           0       -3.741535   -3.989540   -0.015845
     43          6           0       -2.875754   -4.671885    1.049251
     44          8           0       -2.963863   -4.519719    2.265632
     45          8           0       -2.075639   -5.521632    0.390670
     46          6           0       -1.416056   -6.494043    1.217067
     47          6           0        3.521265   -2.764308    0.264613
     48          6           0        4.750760   -2.171842   -0.383581
     49          6           0        5.846917   -2.701416   -0.953672
     50          6           0        5.998432   -4.124133   -1.241110
     51          6           0        6.892429   -1.743450   -1.407872
     52          6           0        6.677581   -0.952593   -2.675293
     53          6           0        7.872728   -1.100463   -3.722461
     54          6           0        8.676156    0.256842   -3.949907
     55          6           0        8.957742    0.390556   -5.444822
     56          6           0        9.991119    0.364041   -3.079213
     57          6           0        9.977168    1.762138   -2.461595
     58          6           0       11.227484    2.027553   -1.625789
     59          6           0       10.844809    2.428232   -0.104278
     60          6           0       11.844919    3.508429    0.432608
     61          6           0       10.864503    1.240027    0.815411
     62          6           0       10.102005    1.430684    2.078405
     63          6           0       10.988920    1.184135    3.404333
     64          6           0       10.250622    1.368749    4.720335
     65          6           0       10.963208    2.419120    5.582188
     66          6           0       10.069076    0.048480    5.460313
     67          1           0       -0.703069    2.298034   -0.079527
     68          1           0       -6.734568    4.897666   -0.210327
     69          1           0       -9.236767   -0.746941    0.733336
     70          1           0       -1.018343   -2.369063    0.753882
     71          1           0       -0.061495   -0.117015   -0.880630
     72          1           0       -0.021919   -0.957447    1.888416
     73          1           0        0.220212    0.795514    1.468893
     74          1           0        1.316903   -0.364841    0.718586
     75          1           0       -0.907032   -1.895150   -2.224310
     76          1           0       -1.783108   -3.217292   -1.844385
     77          1           0        0.921140   -3.343039   -2.333760
     78          1           0       -0.003444   -4.612350   -1.621787
     79          1           0       -1.052797    5.329266   -1.390654
     80          1           0       -0.274982    4.145922   -0.413335
     81          1           0       -0.894780    5.557773    0.336803
     82          1           0       -2.771949    7.545342   -1.533694
     83          1           0       -2.194300    7.388154    0.170335
     84          1           0       -3.404772    8.530541   -0.183289
     85          1           0       -8.842477    3.533193   -1.152382
     86          1           0       -9.744749    1.873035    1.242473
     87          1           0       -8.456297    4.720088    1.672802
     88          1           0      -10.082263    4.143183    1.570177
     89          1           0       -9.699796    5.154238    0.349799
     90          1           0      -11.086313    2.459009   -0.931787
     91          1           0      -11.310166    0.897337   -0.216541
     92          1           0      -10.644691   -0.249348   -2.051666
     93          1           0       -9.253340    0.666727   -2.299453
     94          1           0      -10.797872    1.310746   -2.873035
     95          1           0       -8.883596   -4.132405   -0.195468
     96          1           0       -9.398650   -3.108496    1.211946
     97          1           0       -8.399360   -4.405854    1.465209
     98          1           0       -3.409302   -4.344850   -0.990591
     99          1           0       -1.760698   -6.479624    2.251016
    100          1           0       -0.327510   -6.438120    1.204033
    101          1           0       -1.744732   -7.448175    0.805089
    102          1           0        3.862602   -3.627577    0.835711
    103          1           0        3.135405   -2.014356    0.955566
    104          1           0        4.681897   -1.095977   -0.224431
    105          1           0        6.207250   -4.321343   -2.292975
    106          1           0        5.000554   -4.548064   -1.132961
    107          1           0        6.711414   -4.658346   -0.612686
    108          1           0        7.845618   -2.263456   -1.498268
    109          1           0        6.960411   -0.953838   -0.659821
    110          1           0        6.396163    0.091347   -2.534803
    111          1           0        5.809843   -1.411080   -3.151438
    112          1           0        7.380381   -1.399455   -4.647985
    113          1           0        8.666609   -1.830555   -3.566334
    114          1           0        8.030717    1.069462   -3.616627
    115          1           0        9.940803    0.738522   -5.758686
    116          1           0        8.276200    1.164213   -5.797964
    117          1           0        8.711384   -0.524059   -5.984013
    118          1           0       10.860358    0.231740   -3.723402
    119          1           0        9.896828   -0.426516   -2.335582
    120          1           0        9.115216    1.901208   -1.809094
    121          1           0       10.032691    2.450388   -3.304722
    122          1           0       11.850419    2.787219   -2.098817
    123          1           0       11.845323    1.136941   -1.509201
    124          1           0        9.831951    2.828640   -0.151234
    125          1           0       12.045244    4.248752   -0.341652
    126          1           0       12.781431    3.037783    0.730756
    127          1           0       11.571717    4.047407    1.338599
    128          1           0       11.921457    1.099721    1.044279
    129          1           0       10.583837    0.321274    0.299562
    130          1           0        9.240526    0.764255    2.058981
    131          1           0        9.874225    2.496632    2.107986
    132          1           0       11.821710    1.845281    3.163009
    133          1           0       11.275075    0.133571    3.354119
    134          1           0        9.292082    1.851923    4.534525
    135          1           0       11.266025    3.179070    4.862831
    136          1           0       11.908005    2.112789    6.030888
    137          1           0       10.202395    2.794050    6.266982
    138          1           0       10.379912   -0.882337    4.984849
    139          1           0        9.026194   -0.139043    5.714474
    140          1           0       10.765203    0.086383    6.298316
 ---------------------------------------------------------------------

 SCF Done:  E(RwB97XD) =  -3007.85902239     A.U. after   19 cycles

 Excitation energies and oscillator strengths:

 Excited State   1:      Singlet-A      1.6492 eV  751.78 nm  f=0.3921  <S**2>=0.000
     245 -> 248        0.18185
     246 -> 247        0.68444
     245 <- 248        0.11676
 This state for optimization and/or second-order correction.
 Total Energy, E(TD-HF/TD-DFT) =  -3007.79841545
 Copying the excited state density for this state as the 1-particle RhoCI density.

 Excited State   2:      Singlet-A      2.1442 eV  578.24 nm  f=0.1571  <S**2>=0.000
     245 -> 247        0.65095
     246 -> 248       -0.25437

 Excited State   3:      Singlet-A      3.0972 eV  400.31 nm  f=0.0059  <S**2>=0.000
     244 -> 247        0.67933

 Excited State   4:      Singlet-A      3.3972 eV  364.95 nm  f=0.0016  <S**2>=0.000
     242 -> 247        0.35478
     242 -> 249       -0.15025
     242 -> 250        0.16369
     243 -> 247        0.50292
     243 -> 249       -0.12963
     243 -> 250        0.14835

 Excited State   5:      Singlet-A      3.4584 eV  358.51 nm  f=0.0025  <S**2>=0.000
     242 -> 247        0.52821
     243 -> 247       -0.40760
     246 -> 248       -0.16654

 The electronic state is 1-A.
 Alpha  occ. eigenvalues --  -46.94364 -19.31520 -19.30669 -19.25460 -19.24158
 Alpha  occ. eigenvalues --  -19.23463 -19.22955 -14.46951 -14.46324 -14.44157
 Alpha  occ. eigenvalues --  -14.42471 -10.44058 -10.42866 -10.39572 -10.37560
 Alpha  occ. eigenvalues --  -10.36423 -10.35046 -10.35025 -10.34684 -10.34553
 Alpha  occ. eigenvalues --  -10.34489 -10.34190 -10.33892 -10.32802 -10.32485
 Alpha  occ. eigenvalues --  -10.32428 -10.32342 -10.32262 -10.32130 -10.32006
 Alpha  occ. eigenvalues --  -10.31924 -10.31894 -10.31809 -10.31734 -10.31603
 Alpha  occ. eigenvalues --  -10.31458 -10.31030 -10.30973 -10.30630 -10.30552
 Alpha  occ. eigenvalues --  -10.30102 -10.30052 -10.29991 -10.29944 -10.29928
 Alpha  occ. eigenvalues --  -10.29922 -10.29848 -10.29848 -10.29713 -10.29645
 Alpha  occ. eigenvalues --  -10.29480 -10.29431 -10.29362 -10.29002 -10.28979
 Alpha  occ. eigenvalues --  -10.28973 -10.28809 -10.28683 -10.28673 -10.28648
 Alpha  occ. eigenvalues --  -10.28582 -10.28245 -10.28231 -10.28111 -10.27977
 Alpha  occ. eigenvalues --  -10.27858  -3.20366  -1.93980  -1.93496  -1.93332
 Alpha  occ. eigenvalues --   -1.19406  -1.19021  -1.12869  -1.10192  -1.09681
 Alpha  occ. eigenvalues --   -1.09644  -1.07044  -1.05737  -1.05005  -1.04419
 Alpha  occ. eigenvalues --   -0.94285  -0.93588  -0.92146  -0.91905  -0.90898
 Alpha  occ. eigenvalues --   -0.90428  -0.89858  -0.89657  -0.89256  -0.88120
 Alpha  occ. eigenvalues --   -0.87914  -0.87537  -0.86763  -0.85497  -0.85141
 Alpha  occ. eigenvalues --   -0.84383  -0.83581  -0.83079  -0.82826  -0.82167
 Alpha  occ. eigenvalues --   -0.82093  -0.80129  -0.79751  -0.78484  -0.78288
 Alpha  occ. eigenvalues --   -0.77691  -0.77608  -0.77227  -0.76725  -0.76215
 Alpha  occ. eigenvalues --   -0.75488  -0.74960  -0.73373  -0.72840  -0.71292
 Alpha  occ. eigenvalues --   -0.70306  -0.70044  -0.69088  -0.68909  -0.67486
 Alpha  occ. eigenvalues --   -0.66772  -0.66722  -0.66607  -0.66378  -0.66225
 Alpha  occ. eigenvalues --   -0.66042  -0.65277  -0.64504  -0.64359  -0.62314
 Alpha  occ. eigenvalues --   -0.61946  -0.61674  -0.61086  -0.60051  -0.59740
 Alpha  occ. eigenvalues --   -0.59299  -0.58894  -0.58313  -0.58075  -0.57749
 Alpha  occ. eigenvalues --   -0.57497  -0.57190  -0.56755  -0.56679  -0.56507
 Alpha  occ. eigenvalues --   -0.56210  -0.55657  -0.55404  -0.54845  -0.54643
 Alpha  occ. eigenvalues --   -0.54460  -0.54244  -0.53858  -0.53741  -0.53687
 Alpha  occ. eigenvalues --   -0.53431  -0.53323  -0.53064  -0.52974  -0.52466
 Alpha  occ. eigenvalues --   -0.52204  -0.52076  -0.51919  -0.51729  -0.51361
 Alpha  occ. eigenvalues --   -0.51235  -0.51121  -0.50984  -0.50763  -0.50579
 Alpha  occ. eigenvalues --   -0.50398  -0.50309  -0.50014  -0.49765  -0.49717
 Alpha  occ. eigenvalues --   -0.49551  -0.49217  -0.48564  -0.48473  -0.48364
 Alpha  occ. eigenvalues --   -0.48135  -0.48064  -0.47981  -0.47875  -0.47762
 Alpha  occ. eigenvalues --   -0.47487  -0.47308  -0.47223  -0.47082  -0.46504
 Alpha  occ. eigenvalues --   -0.46443  -0.46359  -0.46197  -0.46008  -0.45812
 Alpha  occ. eigenvalues --   -0.45423  -0.45275  -0.45050  -0.44926  -0.44852
 Alpha  occ. eigenvalues --   -0.44655  -0.44553  -0.44429  -0.44016  -0.43867
 Alpha  occ. eigenvalues --   -0.43646  -0.43583  -0.43395  -0.43088  -0.43003
 Alpha  occ. eigenvalues --   -0.42671  -0.42638  -0.42396  -0.42354  -0.41810
 Alpha  occ. eigenvalues --   -0.41702  -0.41480  -0.41242  -0.40854  -0.40840
 Alpha  occ. eigenvalues --   -0.40256  -0.40225  -0.39819  -0.39763  -0.39334
 Alpha  occ. eigenvalues --   -0.39285  -0.39092  -0.38832  -0.38480  -0.38284
 Alpha  occ. eigenvalues --   -0.38110  -0.37786  -0.37061  -0.36407  -0.36139
 Alpha  occ. eigenvalues --   -0.35871  -0.35861  -0.34816  -0.33277  -0.32839
 Alpha  occ. eigenvalues --   -0.32451  -0.32017  -0.31945  -0.30714  -0.25684
 Alpha  occ. eigenvalues --   -0.23067
 Alpha virt. eigenvalues --   -0.07181   0.00682   0.02713   0.05139   0.05547
 Alpha virt. eigenvalues --    0.06219   0.06980   0.07974   0.08303   0.09317
 Alpha virt. eigenvalues --    0.10606   0.11037   0.11550   0.12149   0.12403

 Mulliken charges:
               1
     1  Mg   0.958913
     2  C   -0.007470
     3  C   -0.099351
     4  C   -0.052846
     5  C   -0.092299
     6  N   -0.309624
     7  C   -0.035299
     8  C   -0.043942
     9  C   -0.118728
    10  C    0.081205
    11  C    0.053289
    12  C    0.010885
    13  C    0.031825
    14  C    0.198049
    15  O   -0.285628
    16  O   -0.346601
    17  N   -0.489964
    18  C    0.190081
    19  C   -0.164326
    20  C   -0.075091
    21  C    0.166459
    22  C    0.043249
    23  C    0.064526
    24  O   -0.273306
    25  C   -0.002374
    26  N   -0.393242
    27  C    0.006257
    28  C   -0.047648
    29  C   -0.062307
    30  C    0.097392
    31  C    0.018033
    32  C   -0.050125
    33  C   -0.074512
    34  N   -0.419158
    35  C    0.135714
    36  C   -0.175965
    37  C   -0.021607
    38  C    0.115557
    39  C    0.077285
    40  C    0.083491
    41  O   -0.183682
    42  C   -0.075114
    43  C    0.266327
    44  O   -0.251888
    45  O   -0.330479
    46  C    0.120908
    47  C    0.251654
    48  C   -0.174957
    49  C   -0.176796
    50  C    0.041930
    51  C    0.058892
    52  C   -0.015242
    53  C   -0.021583
    54  C   -0.206150
    55  C    0.011419
    56  C    0.013817
    57  C   -0.042631
    58  C    0.031403
    59  C   -0.211374
    60  C   -0.014703
    61  C    0.025087
    62  C   -0.032274
    63  C   -0.024395
    64  C   -0.179316
    65  C   -0.012367
    66  C    0.000943
    67  H   -0.003389
    68  H    0.026610
    69  H   -0.004210
    70  H    0.073618
    71  H    0.031647
    72  H    0.057867
    73  H    0.023525
    74  H    0.031675
    75  H    0.019830
    76  H    0.035148
    77  H    0.045279
    78  H    0.063351
    79  H    0.051940
    80  H    0.032002
    81  H    0.046634
    82  H    0.067051
    83  H    0.034408
    84  H    0.054701
    85  H    0.054381
    86  H    0.044556
    87  H    0.066649
    88  H    0.032895
    89  H    0.038584
    90  H    0.031481
    91  H    0.031823
    92  H    0.034909
    93  H    0.034800
    94  H    0.037602
    95  H    0.064883
    96  H    0.020164
    97  H    0.045020
    98  H    0.066730
    99  H    0.067798
   100  H    0.062048
   101  H    0.047225
   102  H    0.050932
   103  H    0.041238
   104  H    0.012084
   105  H    0.040802
   106  H    0.030249
   107  H    0.059653
   108  H    0.015466
   109  H    0.027304
   110  H    0.027671
   111  H    0.020616
   112  H    0.019282
   113  H    0.024930
   114  H    0.017612
   115  H    0.023392
   116  H    0.023035
   117  H    0.027784
   118  H    0.025276
   119  H    0.013964
   120  H    0.027713
   121  H    0.026260
   122  H    0.013560
   123  H    0.013940
   124  H    0.020308
   125  H    0.031898
   126  H    0.021125
   127  H    0.027624
   128  H    0.002810
   129  H    0.012135
   130  H    0.024710
   131  H    0.019682
   132  H    0.015842
   133  H    0.018501
   134  H    0.021851
   135  H    0.019220
   136  H    0.032664
   137  H    0.038367
   138  H    0.021341
   139  H    0.036604
   140  H    0.023091
 Sum of Mulliken charges =  -0.00000

 Dipole moment (field-independent basis, Debye):
    X=              5.3694    Y=              1.8954    Z=             -4.1107  Tot=              7.0228
 Quadrupole moment (field-independent basis, Debye-Ang):
   XX=           -375.0435   YY=           -420.9732   ZZ=           -407.9479
   XY=            -16.0132   XZ=              1.9812   YZ=             11.1997

 Normal termination of Gaussian 16 at Sat Apr 30 07:06:59 2022.
