 Gaussian 16, Revision A.03,
 Gaussian 16:  ES64L-G16RevA.03 25-Dec-2016

 --------------------
 #p ZINDO=(nstates=5)
 --------------------

 ----------------------------
 step_601_chromophore_9 ZINDO
 ----------------------------
 Symbolic Z-matrix:
 Charge =  0 Multiplicity = 1

                         Standard orientation:
 ---------------------------------------------------------------------
 Center     Atomic      Atomic             Coordinates (Angstroms)
 Number     Number       Type             X           Y           Z
 ---------------------------------------------------------------------
      1         12           0       -5.000695    0.871271    0.170405
      2          6           0       -3.762742   -2.470967    0.125724
      3          6           0       -1.710327    1.893214    0.042214
      4          6           0       -6.241135    3.936176   -0.050871
      5          6           0       -8.218349   -0.416167    0.518221
      6          7           0       -3.003133   -0.178684    0.095357
      7          6           0       -2.750653   -1.503711   -0.007637
      8          6           0       -1.234662   -1.741210   -0.109740
      9          6           0       -0.642399   -0.379456    0.003614
     10          6           0       -1.850823    0.505035    0.157346
     11          6           0        0.320562   -0.239535    1.142536
     12          6           0       -0.970487   -2.627316   -1.420035
     13          6           0        0.298142   -3.575578   -1.470658
     14          6           0        1.294069   -3.486788   -0.310809
     15          8           0        0.999936   -3.715453    0.872753
     16          8           0        2.504877   -3.023027   -0.750686
     17          7           0       -4.096335    2.682554   -0.072757
     18          6           0       -2.754212    2.837440   -0.079009
     19          6           0       -2.531684    4.257841   -0.221315
     20          6           0       -3.806079    4.935477   -0.233738
     21          6           0       -4.815929    3.849575   -0.150806
     22          6           0       -1.131138    4.820679   -0.429131
     23          6           0       -4.112840    6.457578   -0.284333
     24          8           0       -5.297782    6.895362   -0.231563
     25          6           0       -3.054634    7.541402   -0.480395
     26          7           0       -6.905698    1.618090    0.171052
     27          6           0       -7.211348    2.951653   -0.037374
     28          6           0       -8.737556    3.311416   -0.089661
     29          6           0       -9.307872    1.912143    0.244809
     30          6           0       -8.050166    0.938519    0.269176
     31          6           0       -9.213457    4.394084    0.960289
     32          6           0      -10.560337    1.539324   -0.676815
     33          6           0      -10.307415    0.787500   -2.051481
     34          7           0       -5.910901   -1.057081    0.597540
     35          6           0       -7.215165   -1.430072    0.526138
     36          6           0       -7.346341   -2.805759    0.672736
     37          6           0       -6.041294   -3.270984    0.396973
     38          6           0       -5.152390   -2.197210    0.404926
     39          6           0       -8.576035   -3.628647    0.720950
     40          6           0       -5.197534   -4.429269    0.205288
     41          8           0       -5.578903   -5.557775    0.290017
     42          6           0       -3.741535   -3.989540   -0.015845
     43          6           0       -2.875754   -4.671885    1.049251
     44          8           0       -2.963863   -4.519719    2.265632
     45          8           0       -2.075639   -5.521632    0.390670
     46          6           0       -1.416056   -6.494043    1.217067
     47          6           0        3.521265   -2.764308    0.264613
     48          6           0        4.750760   -2.171842   -0.383581
     49          6           0        5.846917   -2.701416   -0.953672
     50          6           0        5.998432   -4.124133   -1.241110
     51          6           0        6.892429   -1.743450   -1.407872
     52          6           0        6.677581   -0.952593   -2.675293
     53          6           0        7.872728   -1.100463   -3.722461
     54          6           0        8.676156    0.256842   -3.949907
     55          6           0        8.957742    0.390556   -5.444822
     56          6           0        9.991119    0.364041   -3.079213
     57          6           0        9.977168    1.762138   -2.461595
     58          6           0       11.227484    2.027553   -1.625789
     59          6           0       10.844809    2.428232   -0.104278
     60          6           0       11.844919    3.508429    0.432608
     61          6           0       10.864503    1.240027    0.815411
     62          6           0       10.102005    1.430684    2.078405
     63          6           0       10.988920    1.184135    3.404333
     64          6           0       10.250622    1.368749    4.720335
     65          6           0       10.963208    2.419120    5.582188
     66          6           0       10.069076    0.048480    5.460313
     67          1           0       -0.703069    2.298034   -0.079527
     68          1           0       -6.734568    4.897666   -0.210327
     69          1           0       -9.236767   -0.746941    0.733336
     70          1           0       -1.018343   -2.369063    0.753882
     71          1           0       -0.061495   -0.117015   -0.880630
     72          1           0       -0.021919   -0.957447    1.888416
     73          1           0        0.220212    0.795514    1.468893
     74          1           0        1.316903   -0.364841    0.718586
     75          1           0       -0.907032   -1.895150   -2.224310
     76          1           0       -1.783108   -3.217292   -1.844385
     77          1           0        0.921140   -3.343039   -2.333760
     78          1           0       -0.003444   -4.612350   -1.621787
     79          1           0       -1.052797    5.329266   -1.390654
     80          1           0       -0.274982    4.145922   -0.413335
     81          1           0       -0.894780    5.557773    0.336803
     82          1           0       -2.771949    7.545342   -1.533694
     83          1           0       -2.194300    7.388154    0.170335
     84          1           0       -3.404772    8.530541   -0.183289
     85          1           0       -8.842477    3.533193   -1.152382
     86          1           0       -9.744749    1.873035    1.242473
     87          1           0       -8.456297    4.720088    1.672802
     88          1           0      -10.082263    4.143183    1.570177
     89          1           0       -9.699796    5.154238    0.349799
     90          1           0      -11.086313    2.459009   -0.931787
     91          1           0      -11.310166    0.897337   -0.216541
     92          1           0      -10.644691   -0.249348   -2.051666
     93          1           0       -9.253340    0.666727   -2.299453
     94          1           0      -10.797872    1.310746   -2.873035
     95          1           0       -8.883596   -4.132405   -0.195468
     96          1           0       -9.398650   -3.108496    1.211946
     97          1           0       -8.399360   -4.405854    1.465209
     98          1           0       -3.409302   -4.344850   -0.990591
     99          1           0       -1.760698   -6.479624    2.251016
    100          1           0       -0.327510   -6.438120    1.204033
    101          1           0       -1.744732   -7.448175    0.805089
    102          1           0        3.862602   -3.627577    0.835711
    103          1           0        3.135405   -2.014356    0.955566
    104          1           0        4.681897   -1.095977   -0.224431
    105          1           0        6.207250   -4.321343   -2.292975
    106          1           0        5.000554   -4.548064   -1.132961
    107          1           0        6.711414   -4.658346   -0.612686
    108          1           0        7.845618   -2.263456   -1.498268
    109          1           0        6.960411   -0.953838   -0.659821
    110          1           0        6.396163    0.091347   -2.534803
    111          1           0        5.809843   -1.411080   -3.151438
    112          1           0        7.380381   -1.399455   -4.647985
    113          1           0        8.666609   -1.830555   -3.566334
    114          1           0        8.030717    1.069462   -3.616627
    115          1           0        9.940803    0.738522   -5.758686
    116          1           0        8.276200    1.164213   -5.797964
    117          1           0        8.711384   -0.524059   -5.984013
    118          1           0       10.860358    0.231740   -3.723402
    119          1           0        9.896828   -0.426516   -2.335582
    120          1           0        9.115216    1.901208   -1.809094
    121          1           0       10.032691    2.450388   -3.304722
    122          1           0       11.850419    2.787219   -2.098817
    123          1           0       11.845323    1.136941   -1.509201
    124          1           0        9.831951    2.828640   -0.151234
    125          1           0       12.045244    4.248752   -0.341652
    126          1           0       12.781431    3.037783    0.730756
    127          1           0       11.571717    4.047407    1.338599
    128          1           0       11.921457    1.099721    1.044279
    129          1           0       10.583837    0.321274    0.299562
    130          1           0        9.240526    0.764255    2.058981
    131          1           0        9.874225    2.496632    2.107986
    132          1           0       11.821710    1.845281    3.163009
    133          1           0       11.275075    0.133571    3.354119
    134          1           0        9.292082    1.851923    4.534525
    135          1           0       11.266025    3.179070    4.862831
    136          1           0       11.908005    2.112789    6.030888
    137          1           0       10.202395    2.794050    6.266982
    138          1           0       10.379912   -0.882337    4.984849
    139          1           0        9.026194   -0.139043    5.714474
    140          1           0       10.765203    0.086383    6.298316
 ---------------------------------------------------------------------

 SCF Done:  E(RZINDO/S) =  -474.435734857     A.U. after   18 cycles

 Excitation energies and oscillator strengths:

 Excited State   1:      Singlet-A      1.2495 eV  992.31 nm  f=0.6192  <S**2>=0.000
     175 ->178         0.19326
     176 ->177         0.66194
 This state for optimization and/or second-order correction.
 Total Energy, E(CIS/TDA) =  -474.389818353
 Copying the excited state density for this state as the 1-particle RhoCI density.

 Excited State   2:      Singlet-A      1.9042 eV  651.12 nm  f=0.0952  <S**2>=0.000
     175 ->177         0.57576
     176 ->178        -0.38221

 Excited State   3:      Singlet-A      2.8733 eV  431.50 nm  f=0.0023  <S**2>=0.000
     169 ->177         0.14220
     169 ->179         0.10731
     169 ->181         0.13489
     170 ->177         0.32268
     170 ->178         0.14088
     170 ->179         0.21990
     170 ->181         0.29563
     170 ->183         0.10464
     170 ->186         0.16351
     170 ->188         0.11039
     170 ->201        -0.10123
     174 ->177        -0.19249

 Excited State   4:      Singlet-A      2.9501 eV  420.27 nm  f=0.0020  <S**2>=0.000
     167 ->179        -0.10947
     168 ->177         0.26687
     168 ->178         0.12478
     168 ->179        -0.46330
     168 ->181         0.24990
     168 ->183         0.11178
     168 ->186        -0.22252
     168 ->188         0.10275

 Excited State   5:      Singlet-A      2.9966 eV  413.75 nm  f=0.1611  <S**2>=0.000
     170 ->177         0.10503
     173 ->177         0.22509
     174 ->177         0.53357
     175 ->177        -0.12984
     176 ->178        -0.26450

 The electronic state is 1-A.
 Alpha  occ. eigenvalues --   -1.84878  -1.82214  -1.80120  -1.74490  -1.72961
 Alpha  occ. eigenvalues --   -1.71064  -1.66306  -1.61882  -1.60673  -1.56832
 Alpha  occ. eigenvalues --   -1.55296  -1.53150  -1.49009  -1.48738  -1.45112
 Alpha  occ. eigenvalues --   -1.44266  -1.42580  -1.40370  -1.39957  -1.39546
 Alpha  occ. eigenvalues --   -1.35983  -1.33514  -1.33271  -1.31733  -1.27914
 Alpha  occ. eigenvalues --   -1.27548  -1.25006  -1.22819  -1.20648  -1.18524
 Alpha  occ. eigenvalues --   -1.17007  -1.16381  -1.15903  -1.14314  -1.13072
 Alpha  occ. eigenvalues --   -1.11747  -1.11247  -1.09792  -1.05612  -1.03575
 Alpha  occ. eigenvalues --   -1.02452  -1.01310  -0.99420  -0.98334  -0.97148
 Alpha  occ. eigenvalues --   -0.96225  -0.94891  -0.94063  -0.93667  -0.92658
 Alpha  occ. eigenvalues --   -0.90556  -0.90175  -0.87960  -0.87823  -0.86538
 Alpha  occ. eigenvalues --   -0.85106  -0.84726  -0.83472  -0.81584  -0.80333
 Alpha  occ. eigenvalues --   -0.79851  -0.79396  -0.78973  -0.77325  -0.76138
 Alpha  occ. eigenvalues --   -0.75927  -0.75744  -0.75008  -0.74434  -0.74160
 Alpha  occ. eigenvalues --   -0.73309  -0.72779  -0.72208  -0.71276  -0.70688
 Alpha  occ. eigenvalues --   -0.70149  -0.69644  -0.68782  -0.68309  -0.67902
 Alpha  occ. eigenvalues --   -0.67589  -0.67407  -0.66553  -0.65954  -0.65528
 Alpha  occ. eigenvalues --   -0.65326  -0.64732  -0.64653  -0.64310  -0.63687
 Alpha  occ. eigenvalues --   -0.63328  -0.62890  -0.62639  -0.62452  -0.61744
 Alpha  occ. eigenvalues --   -0.61144  -0.60564  -0.60522  -0.60333  -0.60011
 Alpha  occ. eigenvalues --   -0.59519  -0.59259  -0.58748  -0.58530  -0.58068
 Alpha  occ. eigenvalues --   -0.57838  -0.57367  -0.57204  -0.56951  -0.56423
 Alpha  occ. eigenvalues --   -0.56158  -0.56008  -0.55128  -0.54974  -0.54846
 Alpha  occ. eigenvalues --   -0.54354  -0.53853  -0.52970  -0.52543  -0.52063
 Alpha  occ. eigenvalues --   -0.52020  -0.51826  -0.51659  -0.51400  -0.51246
 Alpha  occ. eigenvalues --   -0.50949  -0.50574  -0.50358  -0.50298  -0.49636
 Alpha  occ. eigenvalues --   -0.49592  -0.49426  -0.49335  -0.49077  -0.48992
 Alpha  occ. eigenvalues --   -0.48915  -0.48856  -0.48237  -0.48057  -0.47517
 Alpha  occ. eigenvalues --   -0.47232  -0.47004  -0.46631  -0.46553  -0.46176
 Alpha  occ. eigenvalues --   -0.46013  -0.45894  -0.45781  -0.45579  -0.45332
 Alpha  occ. eigenvalues --   -0.45254  -0.44933  -0.44556  -0.44378  -0.44088
 Alpha  occ. eigenvalues --   -0.43693  -0.43306  -0.43136  -0.42632  -0.42159
 Alpha  occ. eigenvalues --   -0.42025  -0.41135  -0.40756  -0.39436  -0.38564
 Alpha  occ. eigenvalues --   -0.37788  -0.36733  -0.35371  -0.34303  -0.33830
 Alpha  occ. eigenvalues --   -0.33032  -0.33005  -0.32461  -0.31649  -0.26340
 Alpha  occ. eigenvalues --   -0.21949
 Alpha virt. eigenvalues --   -0.08714  -0.01823  -0.00342   0.01038   0.01649
 Alpha virt. eigenvalues --    0.03006   0.03360   0.03818   0.04051   0.04988
 Alpha virt. eigenvalues --    0.06291   0.06611   0.06851   0.07549   0.08393

 Mulliken charges:
               1
     1  Mg   0.419674
     2  C   -0.034375
     3  C   -0.074764
     4  C   -0.068308
     5  C   -0.078892
     6  N   -0.264509
     7  C    0.111451
     8  C    0.013376
     9  C    0.015955
    10  C    0.132224
    11  C   -0.053558
    12  C   -0.030377
    13  C    0.002366
    14  C    0.466478
    15  O   -0.522713
    16  O   -0.259159
    17  N   -0.312572
    18  C    0.108314
    19  C    0.012778
    20  C   -0.054435
    21  C    0.144883
    22  C   -0.045976
    23  C    0.321289
    24  O   -0.538031
    25  C   -0.023826
    26  N   -0.263266
    27  C    0.131953
    28  C    0.005351
    29  C   -0.001720
    30  C    0.129937
    31  C   -0.051898
    32  C   -0.038418
    33  C   -0.062599
    34  N   -0.343622
    35  C    0.120917
    36  C    0.028329
    37  C   -0.045084
    38  C    0.093274
    39  C   -0.040845
    40  C    0.338065
    41  O   -0.514972
    42  C    0.057584
    43  C    0.491674
    44  O   -0.518939
    45  O   -0.255049
    46  C    0.073074
    47  C    0.105105
    48  C   -0.099373
    49  C    0.020029
    50  C   -0.036814
    51  C   -0.015975
    52  C   -0.029021
    53  C   -0.047625
    54  C   -0.025786
    55  C   -0.057930
    56  C   -0.035934
    57  C   -0.032567
    58  C   -0.049083
    59  C   -0.013714
    60  C   -0.060295
    61  C   -0.025800
    62  C   -0.045210
    63  C   -0.044312
    64  C   -0.002860
    65  C   -0.059051
    66  C   -0.057568
    67  H    0.034666
    68  H    0.040432
    69  H    0.023647
    70  H    0.051717
    71  H    0.025035
    72  H    0.043231
    73  H    0.017941
    74  H    0.023852
    75  H    0.013302
    76  H    0.031706
    77  H    0.025882
    78  H    0.047827
    79  H    0.024918
    80  H    0.025424
    81  H    0.024901
    82  H    0.043404
    83  H    0.025938
    84  H    0.038835
    85  H    0.047982
    86  H    0.030038
    87  H    0.041042
    88  H    0.018054
    89  H    0.021351
    90  H    0.017125
    91  H    0.020434
    92  H    0.018502
    93  H    0.018225
    94  H    0.018996
    95  H    0.040955
    96  H    0.017212
    97  H    0.027155
    98  H    0.052003
    99  H    0.054135
   100  H    0.043091
   101  H    0.027587
   102  H    0.049665
   103  H    0.040969
   104  H    0.014030
   105  H    0.025858
   106  H    0.017155
   107  H    0.036915
   108  H    0.018887
   109  H    0.018016
   110  H    0.029332
   111  H    0.011189
   112  H    0.012839
   113  H    0.028349
   114  H    0.020829
   115  H    0.019639
   116  H    0.008460
   117  H    0.020569
   118  H    0.027617
   119  H    0.021357
   120  H    0.029624
   121  H    0.021556
   122  H    0.019076
   123  H    0.016736
   124  H    0.019614
   125  H    0.013974
   126  H    0.017122
   127  H    0.017514
   128  H    0.012271
   129  H    0.010537
   130  H    0.022017
   131  H    0.020912
   132  H    0.026980
   133  H    0.016584
   134  H    0.019017
   135  H    0.009750
   136  H    0.025503
   137  H    0.021436
   138  H    0.015987
   139  H    0.020015
   140  H    0.018303
 Sum of Mulliken charges =  -0.00000

 Dipole moment (field-independent basis, Debye):
    X=              7.5343    Y=              2.8282    Z=             -6.8003  Tot=             10.5361
 N-N= 4.361050192352D+03 E-N= 0.000000000000D+00  KE=-9.396644880433D+03
 Leave Link  601 at Sat Apr 30 07:19:57 2022, MaxMem=  6710886400 cpu:               0.9 elap:               0.1
 (Enter /sw/apps/gaussian-16.0/g16/l9999.exe)
 1\1\GINC-BP1-COMPUTE154\SP\RZINDO CIS\STO-3G\C55H74Mg1N4O6\OF15641\30-
 Apr-2022\0\\#p ZINDO=(nstates=5)\\step_601_chromophore_9 ZINDO\\0,1\Mg
 ,0,36.064,1.362,29.828\C,0,33.637,2.017,32.355\C,0,38.433,1.504,32.329
 \C,0,38.22,0.491,27.467\C,0,33.51,1.487,27.463\N,0,36.015,1.719,32.057
 \C,0,34.939,1.864,32.864\C,0,35.396,2.001,34.326\C,0,36.883,1.971,34.2
 49\C,0,37.144,1.821,32.774\C,0,37.536,3.189,34.827\C,0,34.612,0.896,35
 .184\C,0,34.33,1.165,36.72\C,0,34.954,2.416,37.345\O,0,34.721,3.572,36

 Normal termination of Gaussian 16 at Sat Apr 30 07:19:57 2022.
