 Gaussian 16, Revision A.03,
 Gaussian 16:  ES64L-G16RevA.03 25-Dec-2016

 ------------------------------
 #p blyp/Def2SVP td=(nstates=5)
 ------------------------------

 --------------------------------------------------
 step_1201_chromophore_4 TDDFT with blyp functional
 --------------------------------------------------
 Symbolic Z-matrix:
 Charge =  0 Multiplicity = 1

                         Standard orientation:
 ---------------------------------------------------------------------
 Center     Atomic      Atomic             Coordinates (Angstroms)
 Number     Number       Type             X           Y           Z
 ---------------------------------------------------------------------
      1         12           0        6.110276    0.581512   -0.121261
      2          6           0        3.808928   -2.119513    0.002277
      3          6           0        3.465412    2.568710   -0.978658
      4          6           0        8.272691    3.076747   -0.083249
      5          6           0        8.776334   -1.719276    0.579348
      6          7           0        3.786234    0.242550   -0.461577
      7          6           0        3.150428   -0.949176   -0.349751
      8          6           0        1.602610   -0.718618   -0.511144
      9          6           0        1.584987    0.760374   -1.081172
     10          6           0        3.049835    1.248233   -0.924079
     11          6           0        1.037870    0.838398   -2.572493
     12          6           0        0.740905   -1.026979    0.716703
     13          6           0       -0.734570   -0.503613    0.581419
     14          6           0       -1.667491   -1.683616    0.155935
     15          8           0       -1.564760   -2.353667   -0.843246
     16          8           0       -2.690817   -1.887933    1.099235
     17          7           0        5.875134    2.564521   -0.504096
     18          6           0        4.711841    3.205063   -0.830740
     19          6           0        4.981397    4.635784   -0.792963
     20          6           0        6.401255    4.791619   -0.520968
     21          6           0        6.901319    3.423557   -0.342552
     22          6           0        3.896135    5.685909   -0.878014
     23          6           0        7.199117    6.061990   -0.284762
     24          8           0        8.389639    6.122564    0.009758
     25          6           0        6.453936    7.450128   -0.336552
     26          7           0        8.284928    0.601805   -0.009290
     27          6           0        8.875314    1.829783    0.131098
     28          6           0       10.454165    1.690119    0.327506
     29          6           0       10.602207    0.173630    0.753541
     30          6           0        9.162066   -0.360896    0.483132
     31          6           0       11.260390    2.253218   -0.964444
     32          6           0       11.041557   -0.014003    2.237844
     33          6           0       12.473467   -0.741900    2.481900
     34          7           0        6.291410   -1.472519    0.206985
     35          6           0        7.436265   -2.269240    0.465775
     36          6           0        7.004324   -3.641670    0.616114
     37          6           0        5.612005   -3.646271    0.402606
     38          6           0        5.252949   -2.313573    0.158006
     39          6           0        7.821270   -4.836494    0.989494
     40          6           0        4.452658   -4.452194    0.450159
     41          8           0        4.308657   -5.628842    0.653698
     42          6           0        3.182630   -3.499943    0.198614
     43          6           0        2.360720   -4.061102   -0.981100
     44          8           0        2.598770   -3.886369   -2.157143
     45          8           0        1.170257   -4.778529   -0.572026
     46          6           0        0.247989   -5.308561   -1.639128
     47          6           0       -3.703168   -2.821426    0.599369
     48          6           0       -5.114352   -2.301092    0.500284
     49          6           0       -6.266016   -3.032402    0.461466
     50          6           0       -6.259691   -4.541815    0.450030
     51          6           0       -7.547003   -2.182885    0.318844
     52          6           0       -7.798535   -1.432433   -0.989158
     53          6           0       -7.976514    0.143172   -0.837373
     54          6           0       -9.449657    0.535733   -0.700631
     55          6           0      -10.049989    0.774125   -2.090660
     56          6           0       -9.641775    1.744112    0.293402
     57          6           0      -10.653164    1.342707    1.429954
     58          6           0      -11.211781    2.477812    2.180574
     59          6           0      -12.736818    2.374515    2.486910
     60          6           0      -13.004344    2.917244    3.898708
     61          6           0      -13.593257    3.044694    1.359125
     62          6           0      -14.794337    2.236581    0.809034
     63          6           0      -14.368063    0.936468    0.036261
     64          6           0      -15.192079    0.658861   -1.284932
     65          6           0      -16.145369   -0.561725   -1.212556
     66          6           0      -14.311969    0.665296   -2.558005
     67          1           0        2.609005    3.206447   -1.206478
     68          1           0        8.992290    3.866229    0.141163
     69          1           0        9.591338   -2.438801    0.685421
     70          1           0        1.236110   -1.470551   -1.210678
     71          1           0        0.940042    1.440023   -0.523106
     72          1           0        1.948763    0.868462   -3.169522
     73          1           0        0.537525    1.777532   -2.810879
     74          1           0        0.418548   -0.024151   -2.821478
     75          1           0        1.233415   -0.743970    1.646772
     76          1           0        0.650955   -2.112958    0.709770
     77          1           0       -0.833457    0.253778   -0.196213
     78          1           0       -0.876853   -0.303551    1.644116
     79          1           0        3.653893    6.219365    0.041608
     80          1           0        3.009889    5.231382   -1.321047
     81          1           0        4.172424    6.371697   -1.678677
     82          1           0        5.509103    7.400673    0.205069
     83          1           0        6.169065    7.703339   -1.357449
     84          1           0        6.972754    8.318007    0.070549
     85          1           0       10.598502    2.323563    1.202035
     86          1           0       11.440953   -0.282527    0.227248
     87          1           0       10.526882    2.628171   -1.678052
     88          1           0       11.821567    1.441131   -1.426795
     89          1           0       12.012881    2.998698   -0.707907
     90          1           0       10.319415   -0.633648    2.770057
     91          1           0       11.010783    0.911967    2.813763
     92          1           0       13.037008    0.028804    3.008198
     93          1           0       12.971313   -0.965191    1.537987
     94          1           0       12.397571   -1.632868    3.105356
     95          1           0        8.770934   -4.631853    1.485341
     96          1           0        8.027464   -5.357508    0.055184
     97          1           0        7.219153   -5.499901    1.610069
     98          1           0        2.450617   -3.399132    0.999638
     99          1           0        0.695873   -5.569434   -2.597652
    100          1           0       -0.543866   -4.576761   -1.794954
    101          1           0       -0.292729   -6.118548   -1.150241
    102          1           0       -3.756057   -3.547785    1.410454
    103          1           0       -3.500776   -3.367430   -0.322134
    104          1           0       -5.099569   -1.222046    0.344110
    105          1           0       -7.197793   -4.973339    0.798456
    106          1           0       -5.449020   -4.980455    1.030734
    107          1           0       -6.065075   -4.955344   -0.539242
    108          1           0       -7.618351   -1.453772    1.126129
    109          1           0       -8.401221   -2.855776    0.395330
    110          1           0       -8.688323   -1.841332   -1.468045
    111          1           0       -7.061924   -1.623248   -1.768844
    112          1           0       -7.549606    0.569205   -1.744899
    113          1           0       -7.251820    0.459995   -0.088075
    114          1           0      -10.014806   -0.330332   -0.356837
    115          1           0      -11.096818    1.066539   -2.008173
    116          1           0      -10.059578   -0.162658   -2.647347
    117          1           0       -9.550269    1.512780   -2.718486
    118          1           0      -10.080883    2.556417   -0.286472
    119          1           0       -8.717089    2.053841    0.781143
    120          1           0      -10.126877    0.764067    2.189080
    121          1           0      -11.412294    0.649964    1.066424
    122          1           0      -10.967502    3.441963    1.735141
    123          1           0      -10.719822    2.501285    3.152416
    124          1           0      -13.013898    1.321841    2.536493
    125          1           0      -12.349494    3.675475    4.327598
    126          1           0      -12.925265    1.984991    4.457943
    127          1           0      -13.982860    3.398466    3.922486
    128          1           0      -12.941279    3.255851    0.511245
    129          1           0      -14.067235    3.924243    1.795744
    130          1           0      -15.283470    3.021386    0.233187
    131          1           0      -15.500034    2.043621    1.617214
    132          1           0      -14.430779    0.028004    0.635424
    133          1           0      -13.296301    0.988624   -0.154783
    134          1           0      -15.812829    1.549226   -1.379146
    135          1           0      -15.931618   -1.239082   -0.385753
    136          1           0      -16.071230   -1.154443   -2.125002
    137          1           0      -17.189902   -0.253572   -1.164653
    138          1           0      -13.409598    1.273145   -2.500846
    139          1           0      -14.843661    0.976790   -3.457872
    140          1           0      -13.975617   -0.340452   -2.811684
 ---------------------------------------------------------------------

 SCF Done:  E(RB-LYP) =  -3007.40396077     A.U. after   20 cycles

 Excitation energies and oscillator strengths:

 Excited State   1:      Singlet-A      1.8088 eV  685.44 nm  f=0.1905  <S**2>=0.000
     243 -> 247       -0.30791
     244 -> 247       -0.18147
     245 -> 248       -0.15154
     246 -> 247        0.59266
     246 <- 247       -0.12341
 This state for optimization and/or second-order correction.
 Total Energy, E(TD-HF/TD-DFT) =  -3007.33748776
 Copying the excited state density for this state as the 1-particle RhoCI density.

 Excited State   2:      Singlet-A      1.8485 eV  670.75 nm  f=0.0150  <S**2>=0.000
     243 -> 247       -0.16312
     244 -> 247        0.67282
     246 -> 247        0.12258

 Excited State   3:      Singlet-A      1.8812 eV  659.06 nm  f=0.0883  <S**2>=0.000
     243 -> 247        0.61111
     246 -> 247        0.32942

 Excited State   4:      Singlet-A      1.9994 eV  620.09 nm  f=0.1277  <S**2>=0.000
     245 -> 247        0.65226
     246 -> 248        0.20395
     246 -> 249        0.10143

 Excited State   5:      Singlet-A      2.0721 eV  598.36 nm  f=0.0004  <S**2>=0.000
     242 -> 247        0.70677

 The electronic state is 1-A.
 Alpha  occ. eigenvalues --  -46.28047 -18.82851 -18.80108 -18.78474 -18.76338
 Alpha  occ. eigenvalues --  -18.75835 -18.75510 -14.03411 -14.02964 -14.01760
 Alpha  occ. eigenvalues --  -14.01330 -10.05147 -10.03427 -10.00498  -9.99436
 Alpha  occ. eigenvalues --   -9.97439  -9.97132  -9.96588  -9.96530  -9.96524
 Alpha  occ. eigenvalues --   -9.96500  -9.96347  -9.96283  -9.96167  -9.94987
 Alpha  occ. eigenvalues --   -9.94883  -9.94681  -9.94556  -9.94409  -9.94381
 Alpha  occ. eigenvalues --   -9.94119  -9.94006  -9.93943  -9.93847  -9.93690
 Alpha  occ. eigenvalues --   -9.93489  -9.93363  -9.93320  -9.93261  -9.93208
 Alpha  occ. eigenvalues --   -9.92894  -9.92690  -9.92654  -9.92436  -9.92381
 Alpha  occ. eigenvalues --   -9.92378  -9.92238  -9.92201  -9.92033  -9.91960
 Alpha  occ. eigenvalues --   -9.91814  -9.91704  -9.91467  -9.91417  -9.91399
 Alpha  occ. eigenvalues --   -9.91369  -9.91314  -9.91192  -9.90995  -9.90994
 Alpha  occ. eigenvalues --   -9.90922  -9.90855  -9.90813  -9.90691  -9.90600
 Alpha  occ. eigenvalues --   -9.90241  -2.92526  -1.72965  -1.72437  -1.72209
 Alpha  occ. eigenvalues --   -0.98476  -0.94768  -0.92156  -0.91327  -0.91099
 Alpha  occ. eigenvalues --   -0.87385  -0.86678  -0.86002  -0.85574  -0.84609
 Alpha  occ. eigenvalues --   -0.74731  -0.73386  -0.73029  -0.72693  -0.71859
 Alpha  occ. eigenvalues --   -0.71606  -0.71151  -0.70586  -0.70532  -0.70157
 Alpha  occ. eigenvalues --   -0.69913  -0.68666  -0.67951  -0.66954  -0.66426
 Alpha  occ. eigenvalues --   -0.66335  -0.65265  -0.64977  -0.64418  -0.64021
 Alpha  occ. eigenvalues --   -0.63570  -0.62547  -0.62341  -0.61407  -0.60560
 Alpha  occ. eigenvalues --   -0.60364  -0.60103  -0.59757  -0.59384  -0.59166
 Alpha  occ. eigenvalues --   -0.58239  -0.57640  -0.56473  -0.55691  -0.54465
 Alpha  occ. eigenvalues --   -0.53997  -0.53836  -0.52901  -0.52447  -0.51329
 Alpha  occ. eigenvalues --   -0.51176  -0.50843  -0.50666  -0.50374  -0.49909
 Alpha  occ. eigenvalues --   -0.49672  -0.49167  -0.48208  -0.47122  -0.46745
 Alpha  occ. eigenvalues --   -0.46618  -0.46127  -0.45864  -0.45023  -0.44757
 Alpha  occ. eigenvalues --   -0.44484  -0.43154  -0.43046  -0.42763  -0.41871
 Alpha  occ. eigenvalues --   -0.41745  -0.41611  -0.41368  -0.41265  -0.40630
 Alpha  occ. eigenvalues --   -0.40529  -0.40050  -0.39937  -0.39795  -0.39601
 Alpha  occ. eigenvalues --   -0.39298  -0.39194  -0.38941  -0.38822  -0.38761
 Alpha  occ. eigenvalues --   -0.38638  -0.38279  -0.38191  -0.38052  -0.37825
 Alpha  occ. eigenvalues --   -0.37575  -0.37499  -0.37302  -0.37244  -0.37168
 Alpha  occ. eigenvalues --   -0.36928  -0.36892  -0.36676  -0.36483  -0.36308
 Alpha  occ. eigenvalues --   -0.36210  -0.35870  -0.35814  -0.35638  -0.35463
 Alpha  occ. eigenvalues --   -0.35203  -0.35162  -0.35011  -0.34879  -0.34784
 Alpha  occ. eigenvalues --   -0.34429  -0.34354  -0.34175  -0.34023  -0.33940
 Alpha  occ. eigenvalues --   -0.33765  -0.33733  -0.33459  -0.33444  -0.33330
 Alpha  occ. eigenvalues --   -0.33100  -0.32925  -0.32597  -0.32559  -0.32451
 Alpha  occ. eigenvalues --   -0.32435  -0.32134  -0.32122  -0.31754  -0.31633
 Alpha  occ. eigenvalues --   -0.31306  -0.31218  -0.31117  -0.30734  -0.30619
 Alpha  occ. eigenvalues --   -0.30525  -0.30301  -0.30267  -0.30076  -0.29984
 Alpha  occ. eigenvalues --   -0.29545  -0.29495  -0.29394  -0.29239  -0.28947
 Alpha  occ. eigenvalues --   -0.28785  -0.28711  -0.28553  -0.28365  -0.28223
 Alpha  occ. eigenvalues --   -0.28065  -0.27473  -0.27073  -0.26691  -0.26353
 Alpha  occ. eigenvalues --   -0.26253  -0.26005  -0.25825  -0.25512  -0.25217
 Alpha  occ. eigenvalues --   -0.25009  -0.24376  -0.23874  -0.23820  -0.23555
 Alpha  occ. eigenvalues --   -0.23229  -0.22979  -0.22267  -0.21112  -0.21020
 Alpha  occ. eigenvalues --   -0.20702  -0.19584  -0.18737  -0.18683  -0.17364
 Alpha  occ. eigenvalues --   -0.16325
 Alpha virt. eigenvalues --   -0.11969  -0.06852  -0.06101  -0.04881  -0.03726
 Alpha virt. eigenvalues --   -0.02440  -0.02205  -0.01704  -0.01624  -0.00217
 Alpha virt. eigenvalues --    0.00659   0.01413   0.02234   0.02828   0.03188

 Mulliken charges:
               1
     1  Mg   0.684007
     2  C    0.026030
     3  C   -0.056338
     4  C   -0.014359
     5  C   -0.066830
     6  N   -0.164501
     7  C   -0.084493
     8  C    0.033763
     9  C   -0.032818
    10  C    0.003508
    11  C    0.103410
    12  C    0.033762
    13  C    0.188819
    14  C    0.055925
    15  O   -0.167024
    16  O   -0.277965
    17  N   -0.304089
    18  C    0.169403
    19  C   -0.151114
    20  C    0.028836
    21  C    0.112113
    22  C    0.178075
    23  C   -0.045241
    24  O   -0.161224
    25  C    0.100685
    26  N   -0.232903
    27  C   -0.033244
    28  C    0.021510
    29  C    0.041751
    30  C    0.056968
    31  C    0.123600
    32  C    0.053671
    33  C    0.035810
    34  N   -0.264848
    35  C    0.111991
    36  C   -0.179242
    37  C    0.129081
    38  C    0.053907
    39  C    0.174642
    40  C   -0.067893
    41  O   -0.106784
    42  C    0.034309
    43  C    0.138065
    44  O   -0.169170
    45  O   -0.333616
    46  C    0.211279
    47  C    0.292874
    48  C   -0.110642
    49  C   -0.137599
    50  C    0.142522
    51  C    0.161884
    52  C    0.042298
    53  C    0.100911
    54  C   -0.039359
    55  C    0.087015
    56  C    0.121888
    57  C    0.029904
    58  C    0.131725
    59  C   -0.084398
    60  C    0.102170
    61  C    0.090880
    62  C    0.057900
    63  C    0.100147
    64  C   -0.065232
    65  C    0.109480
    66  C    0.075795
    67  H   -0.069152
    68  H   -0.036533
    69  H   -0.053066
    70  H   -0.010824
    71  H   -0.019265
    72  H   -0.005928
    73  H   -0.011185
    74  H    0.017479
    75  H   -0.015137
    76  H    0.014789
    77  H    0.020795
    78  H   -0.003504
    79  H    0.031441
    80  H   -0.028667
    81  H   -0.009143
    82  H   -0.014181
    83  H    0.003491
    84  H   -0.009393
    85  H   -0.019816
    86  H   -0.023082
    87  H    0.012337
    88  H   -0.013035
    89  H    0.003668
    90  H   -0.023686
    91  H   -0.020174
    92  H   -0.000762
    93  H   -0.002319
    94  H    0.006806
    95  H   -0.012399
    96  H    0.006528
    97  H    0.010723
    98  H   -0.000113
    99  H    0.028023
   100  H    0.014916
   101  H    0.004282
   102  H   -0.004447
   103  H    0.022292
   104  H   -0.039307
   105  H   -0.009432
   106  H   -0.014633
   107  H    0.002714
   108  H   -0.012233
   109  H   -0.046741
   110  H   -0.040994
   111  H   -0.038598
   112  H   -0.047087
   113  H   -0.034342
   114  H   -0.030990
   115  H   -0.016205
   116  H   -0.023062
   117  H   -0.014544
   118  H   -0.032926
   119  H   -0.026805
   120  H   -0.037101
   121  H   -0.022256
   122  H   -0.037590
   123  H   -0.055447
   124  H   -0.039577
   125  H   -0.011647
   126  H   -0.012297
   127  H   -0.026823
   128  H   -0.025790
   129  H   -0.040644
   130  H   -0.027016
   131  H   -0.031536
   132  H   -0.035157
   133  H   -0.028568
   134  H   -0.031712
   135  H   -0.014600
   136  H   -0.025615
   137  H   -0.013359
   138  H   -0.008033
   139  H   -0.021003
   140  H   -0.022192
 Sum of Mulliken charges =  -0.00000

 Dipole moment (field-independent basis, Debye):
    X=             -2.7822    Y=              2.7767    Z=              1.2446  Tot=              4.1231
 Quadrupole moment (field-independent basis, Debye-Ang):
   XX=           -371.2156   YY=           -428.2612   ZZ=           -409.7446
   XY=              0.3250   XZ=             12.2336   YZ=             -4.7475

 Normal termination of Gaussian 16 at Wed May  4 01:50:40 2022.
