 Gaussian 16, Revision A.03,
 Gaussian 16:  ES64L-G16RevA.03 25-Dec-2016

 -----------------------------------
 #p cam-b3lyp/Def2SVP td=(nstates=5)
 -----------------------------------

 -------------------------------------------------------
 step_1201_chromophore_4 TDDFT with cam-b3lyp functional
 -------------------------------------------------------
 Symbolic Z-matrix:
 Charge =  0 Multiplicity = 1

                         Standard orientation:
 ---------------------------------------------------------------------
 Center     Atomic      Atomic             Coordinates (Angstroms)
 Number     Number       Type             X           Y           Z
 ---------------------------------------------------------------------
      1         12           0        6.110276    0.581512   -0.121261
      2          6           0        3.808928   -2.119513    0.002277
      3          6           0        3.465412    2.568710   -0.978658
      4          6           0        8.272691    3.076747   -0.083249
      5          6           0        8.776334   -1.719276    0.579348
      6          7           0        3.786234    0.242550   -0.461577
      7          6           0        3.150428   -0.949176   -0.349751
      8          6           0        1.602610   -0.718618   -0.511144
      9          6           0        1.584987    0.760374   -1.081172
     10          6           0        3.049835    1.248233   -0.924079
     11          6           0        1.037870    0.838398   -2.572493
     12          6           0        0.740905   -1.026979    0.716703
     13          6           0       -0.734570   -0.503613    0.581419
     14          6           0       -1.667491   -1.683616    0.155935
     15          8           0       -1.564760   -2.353667   -0.843246
     16          8           0       -2.690817   -1.887933    1.099235
     17          7           0        5.875134    2.564521   -0.504096
     18          6           0        4.711841    3.205063   -0.830740
     19          6           0        4.981397    4.635784   -0.792963
     20          6           0        6.401255    4.791619   -0.520968
     21          6           0        6.901319    3.423557   -0.342552
     22          6           0        3.896135    5.685909   -0.878014
     23          6           0        7.199117    6.061990   -0.284762
     24          8           0        8.389639    6.122564    0.009758
     25          6           0        6.453936    7.450128   -0.336552
     26          7           0        8.284928    0.601805   -0.009290
     27          6           0        8.875314    1.829783    0.131098
     28          6           0       10.454165    1.690119    0.327506
     29          6           0       10.602207    0.173630    0.753541
     30          6           0        9.162066   -0.360896    0.483132
     31          6           0       11.260390    2.253218   -0.964444
     32          6           0       11.041557   -0.014003    2.237844
     33          6           0       12.473467   -0.741900    2.481900
     34          7           0        6.291410   -1.472519    0.206985
     35          6           0        7.436265   -2.269240    0.465775
     36          6           0        7.004324   -3.641670    0.616114
     37          6           0        5.612005   -3.646271    0.402606
     38          6           0        5.252949   -2.313573    0.158006
     39          6           0        7.821270   -4.836494    0.989494
     40          6           0        4.452658   -4.452194    0.450159
     41          8           0        4.308657   -5.628842    0.653698
     42          6           0        3.182630   -3.499943    0.198614
     43          6           0        2.360720   -4.061102   -0.981100
     44          8           0        2.598770   -3.886369   -2.157143
     45          8           0        1.170257   -4.778529   -0.572026
     46          6           0        0.247989   -5.308561   -1.639128
     47          6           0       -3.703168   -2.821426    0.599369
     48          6           0       -5.114352   -2.301092    0.500284
     49          6           0       -6.266016   -3.032402    0.461466
     50          6           0       -6.259691   -4.541815    0.450030
     51          6           0       -7.547003   -2.182885    0.318844
     52          6           0       -7.798535   -1.432433   -0.989158
     53          6           0       -7.976514    0.143172   -0.837373
     54          6           0       -9.449657    0.535733   -0.700631
     55          6           0      -10.049989    0.774125   -2.090660
     56          6           0       -9.641775    1.744112    0.293402
     57          6           0      -10.653164    1.342707    1.429954
     58          6           0      -11.211781    2.477812    2.180574
     59          6           0      -12.736818    2.374515    2.486910
     60          6           0      -13.004344    2.917244    3.898708
     61          6           0      -13.593257    3.044694    1.359125
     62          6           0      -14.794337    2.236581    0.809034
     63          6           0      -14.368063    0.936468    0.036261
     64          6           0      -15.192079    0.658861   -1.284932
     65          6           0      -16.145369   -0.561725   -1.212556
     66          6           0      -14.311969    0.665296   -2.558005
     67          1           0        2.609005    3.206447   -1.206478
     68          1           0        8.992290    3.866229    0.141163
     69          1           0        9.591338   -2.438801    0.685421
     70          1           0        1.236110   -1.470551   -1.210678
     71          1           0        0.940042    1.440023   -0.523106
     72          1           0        1.948763    0.868462   -3.169522
     73          1           0        0.537525    1.777532   -2.810879
     74          1           0        0.418548   -0.024151   -2.821478
     75          1           0        1.233415   -0.743970    1.646772
     76          1           0        0.650955   -2.112958    0.709770
     77          1           0       -0.833457    0.253778   -0.196213
     78          1           0       -0.876853   -0.303551    1.644116
     79          1           0        3.653893    6.219365    0.041608
     80          1           0        3.009889    5.231382   -1.321047
     81          1           0        4.172424    6.371697   -1.678677
     82          1           0        5.509103    7.400673    0.205069
     83          1           0        6.169065    7.703339   -1.357449
     84          1           0        6.972754    8.318007    0.070549
     85          1           0       10.598502    2.323563    1.202035
     86          1           0       11.440953   -0.282527    0.227248
     87          1           0       10.526882    2.628171   -1.678052
     88          1           0       11.821567    1.441131   -1.426795
     89          1           0       12.012881    2.998698   -0.707907
     90          1           0       10.319415   -0.633648    2.770057
     91          1           0       11.010783    0.911967    2.813763
     92          1           0       13.037008    0.028804    3.008198
     93          1           0       12.971313   -0.965191    1.537987
     94          1           0       12.397571   -1.632868    3.105356
     95          1           0        8.770934   -4.631853    1.485341
     96          1           0        8.027464   -5.357508    0.055184
     97          1           0        7.219153   -5.499901    1.610069
     98          1           0        2.450617   -3.399132    0.999638
     99          1           0        0.695873   -5.569434   -2.597652
    100          1           0       -0.543866   -4.576761   -1.794954
    101          1           0       -0.292729   -6.118548   -1.150241
    102          1           0       -3.756057   -3.547785    1.410454
    103          1           0       -3.500776   -3.367430   -0.322134
    104          1           0       -5.099569   -1.222046    0.344110
    105          1           0       -7.197793   -4.973339    0.798456
    106          1           0       -5.449020   -4.980455    1.030734
    107          1           0       -6.065075   -4.955344   -0.539242
    108          1           0       -7.618351   -1.453772    1.126129
    109          1           0       -8.401221   -2.855776    0.395330
    110          1           0       -8.688323   -1.841332   -1.468045
    111          1           0       -7.061924   -1.623248   -1.768844
    112          1           0       -7.549606    0.569205   -1.744899
    113          1           0       -7.251820    0.459995   -0.088075
    114          1           0      -10.014806   -0.330332   -0.356837
    115          1           0      -11.096818    1.066539   -2.008173
    116          1           0      -10.059578   -0.162658   -2.647347
    117          1           0       -9.550269    1.512780   -2.718486
    118          1           0      -10.080883    2.556417   -0.286472
    119          1           0       -8.717089    2.053841    0.781143
    120          1           0      -10.126877    0.764067    2.189080
    121          1           0      -11.412294    0.649964    1.066424
    122          1           0      -10.967502    3.441963    1.735141
    123          1           0      -10.719822    2.501285    3.152416
    124          1           0      -13.013898    1.321841    2.536493
    125          1           0      -12.349494    3.675475    4.327598
    126          1           0      -12.925265    1.984991    4.457943
    127          1           0      -13.982860    3.398466    3.922486
    128          1           0      -12.941279    3.255851    0.511245
    129          1           0      -14.067235    3.924243    1.795744
    130          1           0      -15.283470    3.021386    0.233187
    131          1           0      -15.500034    2.043621    1.617214
    132          1           0      -14.430779    0.028004    0.635424
    133          1           0      -13.296301    0.988624   -0.154783
    134          1           0      -15.812829    1.549226   -1.379146
    135          1           0      -15.931618   -1.239082   -0.385753
    136          1           0      -16.071230   -1.154443   -2.125002
    137          1           0      -17.189902   -0.253572   -1.164653
    138          1           0      -13.409598    1.273145   -2.500846
    139          1           0      -14.843661    0.976790   -3.457872
    140          1           0      -13.975617   -0.340452   -2.811684
 ---------------------------------------------------------------------

 SCF Done:  E(RCAM-B3LYP) =  -3007.17824561     A.U. after   18 cycles

 Excitation energies and oscillator strengths:

 Excited State   1:      Singlet-A      1.7195 eV  721.03 nm  f=0.3744  <S**2>=0.000
     245 -> 248       -0.18156
     246 -> 247        0.68431
     245 <- 248       -0.10895
 This state for optimization and/or second-order correction.
 Total Energy, E(TD-HF/TD-DFT) =  -3007.11505340
 Copying the excited state density for this state as the 1-particle RhoCI density.

 Excited State   2:      Singlet-A      2.1787 eV  569.07 nm  f=0.1859  <S**2>=0.000
     245 -> 247        0.65854
     246 -> 248        0.24643

 Excited State   3:      Singlet-A      3.3830 eV  366.49 nm  f=0.0023  <S**2>=0.000
     241 -> 247       -0.26894
     243 -> 247        0.63989

 Excited State   4:      Singlet-A      3.5110 eV  353.13 nm  f=0.0001  <S**2>=0.000
     240 -> 247        0.36124
     240 -> 249        0.22863
     240 -> 250        0.12706
     241 -> 247        0.46630
     243 -> 247        0.19551
     246 -> 248       -0.11227

 Excited State   5:      Singlet-A      3.5189 eV  352.34 nm  f=0.0009  <S**2>=0.000
     239 -> 247       -0.12621
     240 -> 247       -0.25496
     240 -> 249       -0.14742
     241 -> 247        0.17161
     242 -> 247        0.50349
     242 -> 249       -0.17498
     242 -> 250        0.17044
     243 -> 247        0.11064
     246 -> 248       -0.10369

 The electronic state is 1-A.
 Alpha  occ. eigenvalues --  -46.89628 -19.25652 -19.22898 -19.21492 -19.19490
 Alpha  occ. eigenvalues --  -19.19279 -19.18509 -14.42201 -14.41928 -14.40332
 Alpha  occ. eigenvalues --  -14.39647 -10.40513 -10.39004 -10.35996 -10.34594
 Alpha  occ. eigenvalues --  -10.31413 -10.31356 -10.31308 -10.31170 -10.31154
 Alpha  occ. eigenvalues --  -10.30968 -10.30896 -10.30193 -10.30168 -10.29707
 Alpha  occ. eigenvalues --  -10.29141 -10.28964 -10.28567 -10.28519 -10.28458
 Alpha  occ. eigenvalues --  -10.28438 -10.28343 -10.28051 -10.28006 -10.27977
 Alpha  occ. eigenvalues --  -10.27667 -10.27602 -10.27539 -10.27454 -10.27315
 Alpha  occ. eigenvalues --  -10.26595 -10.26451 -10.26369 -10.26316 -10.26194
 Alpha  occ. eigenvalues --  -10.26063 -10.26044 -10.25960 -10.25787 -10.25779
 Alpha  occ. eigenvalues --  -10.25686 -10.25650 -10.25206 -10.25134 -10.25089
 Alpha  occ. eigenvalues --  -10.25066 -10.25005 -10.24902 -10.24634 -10.24607
 Alpha  occ. eigenvalues --  -10.24591 -10.24578 -10.24463 -10.24320 -10.24181
 Alpha  occ. eigenvalues --  -10.23858  -3.18008  -1.92926  -1.92475  -1.92293
 Alpha  occ. eigenvalues --   -1.16940  -1.13283  -1.10440  -1.09939  -1.08903
 Alpha  occ. eigenvalues --   -1.05105  -1.04524  -1.03738  -1.03041  -1.02072
 Alpha  occ. eigenvalues --   -0.91759  -0.90239  -0.89858  -0.89487  -0.88668
 Alpha  occ. eigenvalues --   -0.88278  -0.87676  -0.87245  -0.87145  -0.86722
 Alpha  occ. eigenvalues --   -0.86416  -0.85011  -0.84220  -0.83097  -0.82488
 Alpha  occ. eigenvalues --   -0.82426  -0.81211  -0.80884  -0.80294  -0.80066
 Alpha  occ. eigenvalues --   -0.79314  -0.78499  -0.77955  -0.76829  -0.75890
 Alpha  occ. eigenvalues --   -0.75705  -0.75445  -0.74994  -0.74675  -0.74429
 Alpha  occ. eigenvalues --   -0.73235  -0.72611  -0.71372  -0.70494  -0.68987
 Alpha  occ. eigenvalues --   -0.68606  -0.68411  -0.67527  -0.66821  -0.65413
 Alpha  occ. eigenvalues --   -0.65363  -0.65035  -0.64699  -0.64283  -0.63922
 Alpha  occ. eigenvalues --   -0.63652  -0.62958  -0.62021  -0.60769  -0.60346
 Alpha  occ. eigenvalues --   -0.60194  -0.59573  -0.59447  -0.58485  -0.58141
 Alpha  occ. eigenvalues --   -0.57765  -0.56613  -0.56282  -0.56135  -0.55182
 Alpha  occ. eigenvalues --   -0.54857  -0.54522  -0.54340  -0.54165  -0.53286
 Alpha  occ. eigenvalues --   -0.53168  -0.53006  -0.52801  -0.52418  -0.52393
 Alpha  occ. eigenvalues --   -0.52118  -0.51963  -0.51623  -0.51468  -0.51268
 Alpha  occ. eigenvalues --   -0.51007  -0.50974  -0.50781  -0.50365  -0.50134
 Alpha  occ. eigenvalues --   -0.50099  -0.49806  -0.49716  -0.49524  -0.49488
 Alpha  occ. eigenvalues --   -0.49427  -0.49205  -0.49005  -0.48821  -0.48716
 Alpha  occ. eigenvalues --   -0.48596  -0.48485  -0.48141  -0.47841  -0.47784
 Alpha  occ. eigenvalues --   -0.47161  -0.47117  -0.47048  -0.46817  -0.46591
 Alpha  occ. eigenvalues --   -0.46279  -0.46221  -0.46169  -0.45824  -0.45768
 Alpha  occ. eigenvalues --   -0.45538  -0.45508  -0.45286  -0.45155  -0.45019
 Alpha  occ. eigenvalues --   -0.44791  -0.44671  -0.44211  -0.44127  -0.44069
 Alpha  occ. eigenvalues --   -0.43977  -0.43915  -0.43823  -0.43440  -0.43146
 Alpha  occ. eigenvalues --   -0.43043  -0.42804  -0.42528  -0.42357  -0.41982
 Alpha  occ. eigenvalues --   -0.41769  -0.41612  -0.41524  -0.41332  -0.41211
 Alpha  occ. eigenvalues --   -0.41028  -0.40711  -0.40638  -0.40581  -0.40358
 Alpha  occ. eigenvalues --   -0.40012  -0.39695  -0.39626  -0.39352  -0.39130
 Alpha  occ. eigenvalues --   -0.39036  -0.38379  -0.38018  -0.37959  -0.37094
 Alpha  occ. eigenvalues --   -0.36850  -0.36698  -0.36478  -0.36196  -0.36108
 Alpha  occ. eigenvalues --   -0.36081  -0.35306  -0.34854  -0.34548  -0.34209
 Alpha  occ. eigenvalues --   -0.34185  -0.33552  -0.32936  -0.31344  -0.31062
 Alpha  occ. eigenvalues --   -0.30654  -0.30556  -0.29860  -0.29133  -0.23997
 Alpha  occ. eigenvalues --   -0.21755
 Alpha virt. eigenvalues --   -0.09257  -0.01549   0.00280   0.02111   0.03173
 Alpha virt. eigenvalues --    0.04190   0.05079   0.05332   0.05566   0.06019
 Alpha virt. eigenvalues --    0.07966   0.08288   0.08475   0.09239   0.09420

 Mulliken charges:
               1
     1  Mg   0.815163
     2  C    0.000571
     3  C   -0.072093
     4  C   -0.040898
     5  C   -0.070061
     6  N   -0.232011
     7  C   -0.044511
     8  C   -0.003809
     9  C   -0.095115
    10  C    0.027277
    11  C    0.051174
    12  C   -0.013137
    13  C    0.110236
    14  C    0.141529
    15  O   -0.210031
    16  O   -0.342249
    17  N   -0.397506
    18  C    0.179262
    19  C   -0.152845
    20  C   -0.039365
    21  C    0.142010
    22  C    0.117580
    23  C    0.030148
    24  O   -0.200819
    25  C    0.027040
    26  N   -0.301291
    27  C   -0.010037
    28  C   -0.028815
    29  C   -0.009088
    30  C    0.064655
    31  C    0.065306
    32  C    0.000492
    33  C   -0.022645
    34  N   -0.353299
    35  C    0.112108
    36  C   -0.176122
    37  C    0.042827
    38  C    0.095474
    39  C    0.122167
    40  C    0.026086
    41  O   -0.147075
    42  C   -0.034317
    43  C    0.223148
    44  O   -0.203860
    45  O   -0.399749
    46  C    0.177273
    47  C    0.255435
    48  C   -0.125763
    49  C   -0.164848
    50  C    0.078844
    51  C    0.106021
    52  C   -0.012212
    53  C    0.045461
    54  C   -0.098570
    55  C    0.040666
    56  C    0.070132
    57  C   -0.020336
    58  C    0.074226
    59  C   -0.141185
    60  C    0.045152
    61  C    0.038829
    62  C    0.008892
    63  C    0.046809
    64  C   -0.125173
    65  C    0.048671
    66  C    0.022191
    67  H   -0.034623
    68  H    0.003669
    69  H   -0.018332
    70  H    0.022596
    71  H    0.013463
    72  H    0.019635
    73  H    0.012745
    74  H    0.041399
    75  H    0.016395
    76  H    0.039521
    77  H    0.049628
    78  H    0.035262
    79  H    0.057451
    80  H    0.001443
    81  H    0.019085
    82  H    0.012207
    83  H    0.030546
    84  H    0.026098
    85  H    0.013701
    86  H    0.010430
    87  H    0.037122
    88  H    0.011341
    89  H    0.027541
    90  H    0.007614
    91  H    0.007482
    92  H    0.021387
    93  H    0.018511
    94  H    0.029342
    95  H    0.011582
    96  H    0.032404
    97  H    0.036451
    98  H    0.042057
    99  H    0.051730
   100  H    0.034287
   101  H    0.027130
   102  H    0.022438
   103  H    0.053302
   104  H   -0.007589
   105  H    0.015766
   106  H    0.010418
   107  H    0.027025
   108  H    0.016885
   109  H   -0.015781
   110  H   -0.012945
   111  H   -0.007250
   112  H   -0.016025
   113  H   -0.007454
   114  H   -0.000662
   115  H    0.000544
   116  H    0.000623
   117  H    0.009248
   118  H   -0.005896
   119  H    0.002203
   120  H   -0.008489
   121  H    0.001669
   122  H   -0.008322
   123  H   -0.022609
   124  H   -0.007714
   125  H    0.012251
   126  H    0.011440
   127  H   -0.002918
   128  H   -0.000238
   129  H   -0.011173
   130  H    0.001504
   131  H   -0.004634
   132  H   -0.007291
   133  H   -0.006621
   134  H    0.000377
   135  H    0.008716
   136  H   -0.000633
   137  H    0.010929
   138  H    0.011951
   139  H    0.004224
   140  H    0.000414
 Sum of Mulliken charges =  -0.00000

 Dipole moment (field-independent basis, Debye):
    X=             -2.9487    Y=              3.8917    Z=              1.1195  Tot=              5.0094
 Quadrupole moment (field-independent basis, Debye-Ang):
   XX=           -372.3788   YY=           -423.1094   ZZ=           -409.9903
   XY=              5.6898   XZ=             13.1564   YZ=             -5.0741

 Normal termination of Gaussian 16 at Wed May  4 00:52:15 2022.
