 Gaussian 16, Revision A.03,
 Gaussian 16:  ES64L-G16RevA.03 25-Dec-2016

 ---------------------------------
 #p PBE1PBE/Def2SVP td=(nstates=5)
 ---------------------------------

 -----------------------------------------------------
 step_1201_chromophore_4 TDDFT with PBE1PBE functional
 -----------------------------------------------------
 Symbolic Z-matrix:
 Charge =  0 Multiplicity = 1

                         Standard orientation:
 ---------------------------------------------------------------------
 Center     Atomic      Atomic             Coordinates (Angstroms)
 Number     Number       Type             X           Y           Z
 ---------------------------------------------------------------------
      1         12           0        6.110276    0.581512   -0.121261
      2          6           0        3.808928   -2.119513    0.002277
      3          6           0        3.465412    2.568710   -0.978658
      4          6           0        8.272691    3.076747   -0.083249
      5          6           0        8.776334   -1.719276    0.579348
      6          7           0        3.786234    0.242550   -0.461577
      7          6           0        3.150428   -0.949176   -0.349751
      8          6           0        1.602610   -0.718618   -0.511144
      9          6           0        1.584987    0.760374   -1.081172
     10          6           0        3.049835    1.248233   -0.924079
     11          6           0        1.037870    0.838398   -2.572493
     12          6           0        0.740905   -1.026979    0.716703
     13          6           0       -0.734570   -0.503613    0.581419
     14          6           0       -1.667491   -1.683616    0.155935
     15          8           0       -1.564760   -2.353667   -0.843246
     16          8           0       -2.690817   -1.887933    1.099235
     17          7           0        5.875134    2.564521   -0.504096
     18          6           0        4.711841    3.205063   -0.830740
     19          6           0        4.981397    4.635784   -0.792963
     20          6           0        6.401255    4.791619   -0.520968
     21          6           0        6.901319    3.423557   -0.342552
     22          6           0        3.896135    5.685909   -0.878014
     23          6           0        7.199117    6.061990   -0.284762
     24          8           0        8.389639    6.122564    0.009758
     25          6           0        6.453936    7.450128   -0.336552
     26          7           0        8.284928    0.601805   -0.009290
     27          6           0        8.875314    1.829783    0.131098
     28          6           0       10.454165    1.690119    0.327506
     29          6           0       10.602207    0.173630    0.753541
     30          6           0        9.162066   -0.360896    0.483132
     31          6           0       11.260390    2.253218   -0.964444
     32          6           0       11.041557   -0.014003    2.237844
     33          6           0       12.473467   -0.741900    2.481900
     34          7           0        6.291410   -1.472519    0.206985
     35          6           0        7.436265   -2.269240    0.465775
     36          6           0        7.004324   -3.641670    0.616114
     37          6           0        5.612005   -3.646271    0.402606
     38          6           0        5.252949   -2.313573    0.158006
     39          6           0        7.821270   -4.836494    0.989494
     40          6           0        4.452658   -4.452194    0.450159
     41          8           0        4.308657   -5.628842    0.653698
     42          6           0        3.182630   -3.499943    0.198614
     43          6           0        2.360720   -4.061102   -0.981100
     44          8           0        2.598770   -3.886369   -2.157143
     45          8           0        1.170257   -4.778529   -0.572026
     46          6           0        0.247989   -5.308561   -1.639128
     47          6           0       -3.703168   -2.821426    0.599369
     48          6           0       -5.114352   -2.301092    0.500284
     49          6           0       -6.266016   -3.032402    0.461466
     50          6           0       -6.259691   -4.541815    0.450030
     51          6           0       -7.547003   -2.182885    0.318844
     52          6           0       -7.798535   -1.432433   -0.989158
     53          6           0       -7.976514    0.143172   -0.837373
     54          6           0       -9.449657    0.535733   -0.700631
     55          6           0      -10.049989    0.774125   -2.090660
     56          6           0       -9.641775    1.744112    0.293402
     57          6           0      -10.653164    1.342707    1.429954
     58          6           0      -11.211781    2.477812    2.180574
     59          6           0      -12.736818    2.374515    2.486910
     60          6           0      -13.004344    2.917244    3.898708
     61          6           0      -13.593257    3.044694    1.359125
     62          6           0      -14.794337    2.236581    0.809034
     63          6           0      -14.368063    0.936468    0.036261
     64          6           0      -15.192079    0.658861   -1.284932
     65          6           0      -16.145369   -0.561725   -1.212556
     66          6           0      -14.311969    0.665296   -2.558005
     67          1           0        2.609005    3.206447   -1.206478
     68          1           0        8.992290    3.866229    0.141163
     69          1           0        9.591338   -2.438801    0.685421
     70          1           0        1.236110   -1.470551   -1.210678
     71          1           0        0.940042    1.440023   -0.523106
     72          1           0        1.948763    0.868462   -3.169522
     73          1           0        0.537525    1.777532   -2.810879
     74          1           0        0.418548   -0.024151   -2.821478
     75          1           0        1.233415   -0.743970    1.646772
     76          1           0        0.650955   -2.112958    0.709770
     77          1           0       -0.833457    0.253778   -0.196213
     78          1           0       -0.876853   -0.303551    1.644116
     79          1           0        3.653893    6.219365    0.041608
     80          1           0        3.009889    5.231382   -1.321047
     81          1           0        4.172424    6.371697   -1.678677
     82          1           0        5.509103    7.400673    0.205069
     83          1           0        6.169065    7.703339   -1.357449
     84          1           0        6.972754    8.318007    0.070549
     85          1           0       10.598502    2.323563    1.202035
     86          1           0       11.440953   -0.282527    0.227248
     87          1           0       10.526882    2.628171   -1.678052
     88          1           0       11.821567    1.441131   -1.426795
     89          1           0       12.012881    2.998698   -0.707907
     90          1           0       10.319415   -0.633648    2.770057
     91          1           0       11.010783    0.911967    2.813763
     92          1           0       13.037008    0.028804    3.008198
     93          1           0       12.971313   -0.965191    1.537987
     94          1           0       12.397571   -1.632868    3.105356
     95          1           0        8.770934   -4.631853    1.485341
     96          1           0        8.027464   -5.357508    0.055184
     97          1           0        7.219153   -5.499901    1.610069
     98          1           0        2.450617   -3.399132    0.999638
     99          1           0        0.695873   -5.569434   -2.597652
    100          1           0       -0.543866   -4.576761   -1.794954
    101          1           0       -0.292729   -6.118548   -1.150241
    102          1           0       -3.756057   -3.547785    1.410454
    103          1           0       -3.500776   -3.367430   -0.322134
    104          1           0       -5.099569   -1.222046    0.344110
    105          1           0       -7.197793   -4.973339    0.798456
    106          1           0       -5.449020   -4.980455    1.030734
    107          1           0       -6.065075   -4.955344   -0.539242
    108          1           0       -7.618351   -1.453772    1.126129
    109          1           0       -8.401221   -2.855776    0.395330
    110          1           0       -8.688323   -1.841332   -1.468045
    111          1           0       -7.061924   -1.623248   -1.768844
    112          1           0       -7.549606    0.569205   -1.744899
    113          1           0       -7.251820    0.459995   -0.088075
    114          1           0      -10.014806   -0.330332   -0.356837
    115          1           0      -11.096818    1.066539   -2.008173
    116          1           0      -10.059578   -0.162658   -2.647347
    117          1           0       -9.550269    1.512780   -2.718486
    118          1           0      -10.080883    2.556417   -0.286472
    119          1           0       -8.717089    2.053841    0.781143
    120          1           0      -10.126877    0.764067    2.189080
    121          1           0      -11.412294    0.649964    1.066424
    122          1           0      -10.967502    3.441963    1.735141
    123          1           0      -10.719822    2.501285    3.152416
    124          1           0      -13.013898    1.321841    2.536493
    125          1           0      -12.349494    3.675475    4.327598
    126          1           0      -12.925265    1.984991    4.457943
    127          1           0      -13.982860    3.398466    3.922486
    128          1           0      -12.941279    3.255851    0.511245
    129          1           0      -14.067235    3.924243    1.795744
    130          1           0      -15.283470    3.021386    0.233187
    131          1           0      -15.500034    2.043621    1.617214
    132          1           0      -14.430779    0.028004    0.635424
    133          1           0      -13.296301    0.988624   -0.154783
    134          1           0      -15.812829    1.549226   -1.379146
    135          1           0      -15.931618   -1.239082   -0.385753
    136          1           0      -16.071230   -1.154443   -2.125002
    137          1           0      -17.189902   -0.253572   -1.164653
    138          1           0      -13.409598    1.273145   -2.500846
    139          1           0      -14.843661    0.976790   -3.457872
    140          1           0      -13.975617   -0.340452   -2.811684
 ---------------------------------------------------------------------

 SCF Done:  E(RPBE1PBE) =  -3005.36548324     A.U. after   15 cycles

 Excitation energies and oscillator strengths:

 Excited State   1:      Singlet-A      1.8763 eV  660.78 nm  f=0.3566  <S**2>=0.000
     245 -> 248       -0.17419
     246 -> 247        0.69159
     246 <- 247       -0.10534
 This state for optimization and/or second-order correction.
 Total Energy, E(TD-HF/TD-DFT) =  -3005.29652924
 Copying the excited state density for this state as the 1-particle RhoCI density.

 Excited State   2:      Singlet-A      2.1958 eV  564.65 nm  f=0.1749  <S**2>=0.000
     245 -> 247        0.66641
     246 -> 248        0.22685

 Excited State   3:      Singlet-A      2.9349 eV  422.44 nm  f=0.0005  <S**2>=0.000
     243 -> 247        0.68422
     243 -> 249       -0.12773
     243 -> 250        0.10155

 Excited State   4:      Singlet-A      2.9621 eV  418.57 nm  f=0.0002  <S**2>=0.000
     241 -> 247        0.60499
     241 -> 249        0.13787
     242 -> 247       -0.30547

 Excited State   5:      Singlet-A      3.0481 eV  406.76 nm  f=0.0027  <S**2>=0.000
     240 -> 247       -0.12594
     241 -> 247        0.30161
     242 -> 247        0.62106

 The electronic state is 1-A.
 Alpha  occ. eigenvalues --  -46.93027 -19.26394 -19.23655 -19.21752 -19.19717
 Alpha  occ. eigenvalues --  -19.19357 -19.18869 -14.41801 -14.41335 -14.39905
 Alpha  occ. eigenvalues --  -14.39416 -10.37577 -10.36091 -10.33009 -10.31838
 Alpha  occ. eigenvalues --  -10.29341 -10.28839 -10.28810 -10.28804 -10.28709
 Alpha  occ. eigenvalues --  -10.28704 -10.28458 -10.28162 -10.27498 -10.27156
 Alpha  occ. eigenvalues --  -10.26993 -10.26492 -10.26368 -10.26334 -10.26303
 Alpha  occ. eigenvalues --  -10.26215 -10.26161 -10.25904 -10.25860 -10.25561
 Alpha  occ. eigenvalues --  -10.25290 -10.25236 -10.25095 -10.24997 -10.24816
 Alpha  occ. eigenvalues --  -10.24331 -10.24151 -10.23860 -10.23706 -10.23638
 Alpha  occ. eigenvalues --  -10.23617 -10.23584 -10.23471 -10.23337 -10.23264
 Alpha  occ. eigenvalues --  -10.23208 -10.23194 -10.22898 -10.22701 -10.22651
 Alpha  occ. eigenvalues --  -10.22603 -10.22573 -10.22507 -10.22482 -10.22157
 Alpha  occ. eigenvalues --  -10.22028 -10.21959 -10.21848 -10.21832 -10.21573
 Alpha  occ. eigenvalues --  -10.21387  -3.14993  -1.87852  -1.87379  -1.87201
 Alpha  occ. eigenvalues --   -1.11750  -1.08047  -1.05334  -1.04538  -1.03803
 Alpha  occ. eigenvalues --   -1.00003  -0.99075  -0.98328  -0.97807  -0.96760
 Alpha  occ. eigenvalues --   -0.86163  -0.84353  -0.84008  -0.83612  -0.82926
 Alpha  occ. eigenvalues --   -0.82382  -0.82003  -0.81488  -0.81239  -0.81013
 Alpha  occ. eigenvalues --   -0.80819  -0.79225  -0.78367  -0.77362  -0.76844
 Alpha  occ. eigenvalues --   -0.76635  -0.75461  -0.75055  -0.74405  -0.74256
 Alpha  occ. eigenvalues --   -0.73648  -0.72641  -0.72222  -0.71155  -0.70197
 Alpha  occ. eigenvalues --   -0.69908  -0.69534  -0.69347  -0.68820  -0.68576
 Alpha  occ. eigenvalues --   -0.67723  -0.66950  -0.65735  -0.64847  -0.63396
 Alpha  occ. eigenvalues --   -0.63101  -0.62675  -0.61920  -0.61086  -0.59886
 Alpha  occ. eigenvalues --   -0.59730  -0.59258  -0.59137  -0.58928  -0.58156
 Alpha  occ. eigenvalues --   -0.57866  -0.57390  -0.56208  -0.55371  -0.54858
 Alpha  occ. eigenvalues --   -0.54563  -0.54244  -0.53972  -0.52962  -0.52738
 Alpha  occ. eigenvalues --   -0.52487  -0.51052  -0.50845  -0.50683  -0.49777
 Alpha  occ. eigenvalues --   -0.49391  -0.49011  -0.48885  -0.48527  -0.47914
 Alpha  occ. eigenvalues --   -0.47682  -0.47493  -0.47241  -0.46929  -0.46794
 Alpha  occ. eigenvalues --   -0.46602  -0.46531  -0.46110  -0.46010  -0.45874
 Alpha  occ. eigenvalues --   -0.45617  -0.45491  -0.45390  -0.44892  -0.44744
 Alpha  occ. eigenvalues --   -0.44687  -0.44406  -0.44348  -0.44115  -0.44054
 Alpha  occ. eigenvalues --   -0.43824  -0.43794  -0.43521  -0.43348  -0.43325
 Alpha  occ. eigenvalues --   -0.43202  -0.43026  -0.42818  -0.42420  -0.42285
 Alpha  occ. eigenvalues --   -0.41826  -0.41767  -0.41669  -0.41489  -0.41217
 Alpha  occ. eigenvalues --   -0.41000  -0.40953  -0.40858  -0.40548  -0.40390
 Alpha  occ. eigenvalues --   -0.40341  -0.40243  -0.40059  -0.39868  -0.39612
 Alpha  occ. eigenvalues --   -0.39563  -0.39486  -0.39011  -0.38947  -0.38827
 Alpha  occ. eigenvalues --   -0.38749  -0.38616  -0.38613  -0.38203  -0.38016
 Alpha  occ. eigenvalues --   -0.37876  -0.37612  -0.37243  -0.37018  -0.36754
 Alpha  occ. eigenvalues --   -0.36637  -0.36554  -0.36225  -0.36182  -0.36059
 Alpha  occ. eigenvalues --   -0.35916  -0.35570  -0.35514  -0.35344  -0.35242
 Alpha  occ. eigenvalues --   -0.34754  -0.34604  -0.34486  -0.34398  -0.33997
 Alpha  occ. eigenvalues --   -0.33924  -0.33194  -0.32988  -0.32811  -0.31948
 Alpha  occ. eigenvalues --   -0.31864  -0.31560  -0.31302  -0.31250  -0.31037
 Alpha  occ. eigenvalues --   -0.30963  -0.30200  -0.29744  -0.29528  -0.29377
 Alpha  occ. eigenvalues --   -0.29189  -0.28929  -0.28123  -0.26967  -0.26155
 Alpha  occ. eigenvalues --   -0.25717  -0.25654  -0.25564  -0.24429  -0.21003
 Alpha  occ. eigenvalues --   -0.19346
 Alpha virt. eigenvalues --   -0.11651  -0.05125  -0.03895  -0.02327  -0.00472
 Alpha virt. eigenvalues --    0.00404   0.00714   0.00856   0.01195   0.02453
 Alpha virt. eigenvalues --    0.03545   0.04410   0.05081   0.05688   0.06130

 Mulliken charges:
               1
     1  Mg   0.962942
     2  C   -0.013220
     3  C   -0.072521
     4  C   -0.027746
     5  C   -0.058603
     6  N   -0.336970
     7  C    0.032637
     8  C   -0.060350
     9  C   -0.180919
    10  C    0.075345
    11  C   -0.003146
    12  C   -0.070164
    13  C    0.028080
    14  C    0.207580
    15  O   -0.243185
    16  O   -0.371874
    17  N   -0.519757
    18  C    0.203401
    19  C   -0.181836
    20  C   -0.084722
    21  C    0.170687
    22  C    0.055826
    23  C    0.077434
    24  O   -0.239001
    25  C   -0.045475
    26  N   -0.392594
    27  C    0.014255
    28  C   -0.092456
    29  C   -0.087306
    30  C    0.091744
    31  C    0.004042
    32  C   -0.049077
    33  C   -0.095810
    34  N   -0.480028
    35  C    0.132217
    36  C   -0.195698
    37  C   -0.009123
    38  C    0.154641
    39  C    0.069846
    40  C    0.118580
    41  O   -0.193112
    42  C   -0.139001
    43  C    0.306737
    44  O   -0.237621
    45  O   -0.429666
    46  C    0.121358
    47  C    0.212184
    48  C   -0.133580
    49  C   -0.211532
    50  C    0.015711
    51  C    0.042954
    52  C   -0.071474
    53  C   -0.009160
    54  C   -0.185867
    55  C   -0.026644
    56  C    0.014824
    57  C   -0.082870
    58  C    0.019389
    59  C   -0.224182
    60  C   -0.014687
    61  C   -0.022118
    62  C   -0.052332
    63  C   -0.014610
    64  C   -0.214560
    65  C   -0.011384
    66  C   -0.044710
    67  H   -0.001699
    68  H    0.034956
    69  H    0.014147
    70  H    0.063215
    71  H    0.049933
    72  H    0.048104
    73  H    0.039742
    74  H    0.066583
    75  H    0.047947
    76  H    0.076197
    77  H    0.082480
    78  H    0.068421
    79  H    0.082292
    80  H    0.029537
    81  H    0.047707
    82  H    0.039605
    83  H    0.057025
    84  H    0.052875
    85  H    0.050750
    86  H    0.047232
    87  H    0.064914
    88  H    0.038724
    89  H    0.054377
    90  H    0.040898
    91  H    0.039102
    92  H    0.049507
    93  H    0.044936
    94  H    0.056141
    95  H    0.038677
    96  H    0.061925
    97  H    0.064242
    98  H    0.079273
    99  H    0.072613
   100  H    0.059483
   101  H    0.049568
   102  H    0.050838
   103  H    0.079703
   104  H    0.024260
   105  H    0.042632
   106  H    0.036537
   107  H    0.054644
   108  H    0.049658
   109  H    0.017604
   110  H    0.019500
   111  H    0.025230
   112  H    0.017425
   113  H    0.023715
   114  H    0.037044
   115  H    0.036450
   116  H    0.029084
   117  H    0.036451
   118  H    0.027058
   119  H    0.034029
   120  H    0.025913
   121  H    0.032351
   122  H    0.023432
   123  H    0.011762
   124  H    0.031127
   125  H    0.038897
   126  H    0.039427
   127  H    0.024684
   128  H    0.033392
   129  H    0.021931
   130  H    0.033322
   131  H    0.028407
   132  H    0.024088
   133  H    0.033618
   134  H    0.039262
   135  H    0.035043
   136  H    0.026745
   137  H    0.038233
   138  H    0.042561
   139  H    0.032538
   140  H    0.028252
 Sum of Mulliken charges =  -0.00000

 Dipole moment (field-independent basis, Debye):
    X=             -2.8165    Y=              3.4118    Z=              1.1946  Tot=              4.5826
 Quadrupole moment (field-independent basis, Debye-Ang):
   XX=           -364.8275   YY=           -420.6869   ZZ=           -407.5215
   XY=              2.7080   XZ=             14.4076   YZ=             -5.0497

 Normal termination of Gaussian 16 at Wed May  4 01:09:32 2022.
