 Gaussian 16, Revision A.03,
 Gaussian 16:  ES64L-G16RevA.03 25-Dec-2016

 --------------------------------
 #p wB97XD/Def2SVP td=(nstates=5)
 --------------------------------

 ----------------------------------------------------
 step_1201_chromophore_4 TDDFT with wB97XD functional
 ----------------------------------------------------
 Symbolic Z-matrix:
 Charge =  0 Multiplicity = 1

                         Standard orientation:
 ---------------------------------------------------------------------
 Center     Atomic      Atomic             Coordinates (Angstroms)
 Number     Number       Type             X           Y           Z
 ---------------------------------------------------------------------
      1         12           0        6.110276    0.581512   -0.121261
      2          6           0        3.808928   -2.119513    0.002277
      3          6           0        3.465412    2.568710   -0.978658
      4          6           0        8.272691    3.076747   -0.083249
      5          6           0        8.776334   -1.719276    0.579348
      6          7           0        3.786234    0.242550   -0.461577
      7          6           0        3.150428   -0.949176   -0.349751
      8          6           0        1.602610   -0.718618   -0.511144
      9          6           0        1.584987    0.760374   -1.081172
     10          6           0        3.049835    1.248233   -0.924079
     11          6           0        1.037870    0.838398   -2.572493
     12          6           0        0.740905   -1.026979    0.716703
     13          6           0       -0.734570   -0.503613    0.581419
     14          6           0       -1.667491   -1.683616    0.155935
     15          8           0       -1.564760   -2.353667   -0.843246
     16          8           0       -2.690817   -1.887933    1.099235
     17          7           0        5.875134    2.564521   -0.504096
     18          6           0        4.711841    3.205063   -0.830740
     19          6           0        4.981397    4.635784   -0.792963
     20          6           0        6.401255    4.791619   -0.520968
     21          6           0        6.901319    3.423557   -0.342552
     22          6           0        3.896135    5.685909   -0.878014
     23          6           0        7.199117    6.061990   -0.284762
     24          8           0        8.389639    6.122564    0.009758
     25          6           0        6.453936    7.450128   -0.336552
     26          7           0        8.284928    0.601805   -0.009290
     27          6           0        8.875314    1.829783    0.131098
     28          6           0       10.454165    1.690119    0.327506
     29          6           0       10.602207    0.173630    0.753541
     30          6           0        9.162066   -0.360896    0.483132
     31          6           0       11.260390    2.253218   -0.964444
     32          6           0       11.041557   -0.014003    2.237844
     33          6           0       12.473467   -0.741900    2.481900
     34          7           0        6.291410   -1.472519    0.206985
     35          6           0        7.436265   -2.269240    0.465775
     36          6           0        7.004324   -3.641670    0.616114
     37          6           0        5.612005   -3.646271    0.402606
     38          6           0        5.252949   -2.313573    0.158006
     39          6           0        7.821270   -4.836494    0.989494
     40          6           0        4.452658   -4.452194    0.450159
     41          8           0        4.308657   -5.628842    0.653698
     42          6           0        3.182630   -3.499943    0.198614
     43          6           0        2.360720   -4.061102   -0.981100
     44          8           0        2.598770   -3.886369   -2.157143
     45          8           0        1.170257   -4.778529   -0.572026
     46          6           0        0.247989   -5.308561   -1.639128
     47          6           0       -3.703168   -2.821426    0.599369
     48          6           0       -5.114352   -2.301092    0.500284
     49          6           0       -6.266016   -3.032402    0.461466
     50          6           0       -6.259691   -4.541815    0.450030
     51          6           0       -7.547003   -2.182885    0.318844
     52          6           0       -7.798535   -1.432433   -0.989158
     53          6           0       -7.976514    0.143172   -0.837373
     54          6           0       -9.449657    0.535733   -0.700631
     55          6           0      -10.049989    0.774125   -2.090660
     56          6           0       -9.641775    1.744112    0.293402
     57          6           0      -10.653164    1.342707    1.429954
     58          6           0      -11.211781    2.477812    2.180574
     59          6           0      -12.736818    2.374515    2.486910
     60          6           0      -13.004344    2.917244    3.898708
     61          6           0      -13.593257    3.044694    1.359125
     62          6           0      -14.794337    2.236581    0.809034
     63          6           0      -14.368063    0.936468    0.036261
     64          6           0      -15.192079    0.658861   -1.284932
     65          6           0      -16.145369   -0.561725   -1.212556
     66          6           0      -14.311969    0.665296   -2.558005
     67          1           0        2.609005    3.206447   -1.206478
     68          1           0        8.992290    3.866229    0.141163
     69          1           0        9.591338   -2.438801    0.685421
     70          1           0        1.236110   -1.470551   -1.210678
     71          1           0        0.940042    1.440023   -0.523106
     72          1           0        1.948763    0.868462   -3.169522
     73          1           0        0.537525    1.777532   -2.810879
     74          1           0        0.418548   -0.024151   -2.821478
     75          1           0        1.233415   -0.743970    1.646772
     76          1           0        0.650955   -2.112958    0.709770
     77          1           0       -0.833457    0.253778   -0.196213
     78          1           0       -0.876853   -0.303551    1.644116
     79          1           0        3.653893    6.219365    0.041608
     80          1           0        3.009889    5.231382   -1.321047
     81          1           0        4.172424    6.371697   -1.678677
     82          1           0        5.509103    7.400673    0.205069
     83          1           0        6.169065    7.703339   -1.357449
     84          1           0        6.972754    8.318007    0.070549
     85          1           0       10.598502    2.323563    1.202035
     86          1           0       11.440953   -0.282527    0.227248
     87          1           0       10.526882    2.628171   -1.678052
     88          1           0       11.821567    1.441131   -1.426795
     89          1           0       12.012881    2.998698   -0.707907
     90          1           0       10.319415   -0.633648    2.770057
     91          1           0       11.010783    0.911967    2.813763
     92          1           0       13.037008    0.028804    3.008198
     93          1           0       12.971313   -0.965191    1.537987
     94          1           0       12.397571   -1.632868    3.105356
     95          1           0        8.770934   -4.631853    1.485341
     96          1           0        8.027464   -5.357508    0.055184
     97          1           0        7.219153   -5.499901    1.610069
     98          1           0        2.450617   -3.399132    0.999638
     99          1           0        0.695873   -5.569434   -2.597652
    100          1           0       -0.543866   -4.576761   -1.794954
    101          1           0       -0.292729   -6.118548   -1.150241
    102          1           0       -3.756057   -3.547785    1.410454
    103          1           0       -3.500776   -3.367430   -0.322134
    104          1           0       -5.099569   -1.222046    0.344110
    105          1           0       -7.197793   -4.973339    0.798456
    106          1           0       -5.449020   -4.980455    1.030734
    107          1           0       -6.065075   -4.955344   -0.539242
    108          1           0       -7.618351   -1.453772    1.126129
    109          1           0       -8.401221   -2.855776    0.395330
    110          1           0       -8.688323   -1.841332   -1.468045
    111          1           0       -7.061924   -1.623248   -1.768844
    112          1           0       -7.549606    0.569205   -1.744899
    113          1           0       -7.251820    0.459995   -0.088075
    114          1           0      -10.014806   -0.330332   -0.356837
    115          1           0      -11.096818    1.066539   -2.008173
    116          1           0      -10.059578   -0.162658   -2.647347
    117          1           0       -9.550269    1.512780   -2.718486
    118          1           0      -10.080883    2.556417   -0.286472
    119          1           0       -8.717089    2.053841    0.781143
    120          1           0      -10.126877    0.764067    2.189080
    121          1           0      -11.412294    0.649964    1.066424
    122          1           0      -10.967502    3.441963    1.735141
    123          1           0      -10.719822    2.501285    3.152416
    124          1           0      -13.013898    1.321841    2.536493
    125          1           0      -12.349494    3.675475    4.327598
    126          1           0      -12.925265    1.984991    4.457943
    127          1           0      -13.982860    3.398466    3.922486
    128          1           0      -12.941279    3.255851    0.511245
    129          1           0      -14.067235    3.924243    1.795744
    130          1           0      -15.283470    3.021386    0.233187
    131          1           0      -15.500034    2.043621    1.617214
    132          1           0      -14.430779    0.028004    0.635424
    133          1           0      -13.296301    0.988624   -0.154783
    134          1           0      -15.812829    1.549226   -1.379146
    135          1           0      -15.931618   -1.239082   -0.385753
    136          1           0      -16.071230   -1.154443   -2.125002
    137          1           0      -17.189902   -0.253572   -1.164653
    138          1           0      -13.409598    1.273145   -2.500846
    139          1           0      -14.843661    0.976790   -3.457872
    140          1           0      -13.975617   -0.340452   -2.811684
 ---------------------------------------------------------------------

 SCF Done:  E(RwB97XD) =  -3007.87533487     A.U. after   19 cycles

 Excitation energies and oscillator strengths:

 Excited State   1:      Singlet-A      1.6637 eV  745.22 nm  f=0.3733  <S**2>=0.000
     245 -> 248       -0.18696
     246 -> 247        0.68222
     245 <- 248       -0.11824
 This state for optimization and/or second-order correction.
 Total Energy, E(TD-HF/TD-DFT) =  -3007.81419411
 Copying the excited state density for this state as the 1-particle RhoCI density.

 Excited State   2:      Singlet-A      2.1232 eV  583.95 nm  f=0.1802  <S**2>=0.000
     245 -> 247        0.65600
     246 -> 248        0.25050

 Excited State   3:      Singlet-A      3.4110 eV  363.49 nm  f=0.0022  <S**2>=0.000
     241 -> 247       -0.32026
     243 -> 247        0.60620

 Excited State   4:      Singlet-A      3.5330 eV  350.93 nm  f=0.0001  <S**2>=0.000
     240 -> 247        0.42634
     240 -> 248       -0.11211
     240 -> 249        0.30281
     240 -> 250        0.16269
     241 -> 247        0.35369
     241 -> 249        0.12514
     243 -> 247        0.13538

 Excited State   5:      Singlet-A      3.5431 eV  349.93 nm  f=0.0099  <S**2>=0.000
     239 -> 247       -0.12601
     240 -> 247       -0.33714
     240 -> 249       -0.12786
     241 -> 247        0.43471
     243 -> 247        0.27413
     246 -> 248       -0.23866

 The electronic state is 1-A.
 Alpha  occ. eigenvalues --  -46.95961 -19.30919 -19.28153 -19.26404 -19.24412
 Alpha  occ. eigenvalues --  -19.24345 -19.23526 -14.46800 -14.46539 -14.44947
 Alpha  occ. eigenvalues --  -14.44238 -10.44338 -10.42888 -10.40026 -10.38572
 Alpha  occ. eigenvalues --  -10.35419 -10.35413 -10.35255 -10.35246 -10.35206
 Alpha  occ. eigenvalues --  -10.35073 -10.34921 -10.34185 -10.33958 -10.33940
 Alpha  occ. eigenvalues --  -10.33120 -10.32910 -10.32649 -10.32575 -10.32514
 Alpha  occ. eigenvalues --  -10.32507 -10.32489 -10.32178 -10.32130 -10.32055
 Alpha  occ. eigenvalues --  -10.31690 -10.31650 -10.31531 -10.31468 -10.31331
 Alpha  occ. eigenvalues --  -10.30539 -10.30535 -10.30240 -10.30154 -10.30067
 Alpha  occ. eigenvalues --  -10.29948 -10.29926 -10.29890 -10.29769 -10.29726
 Alpha  occ. eigenvalues --  -10.29585 -10.29525 -10.29178 -10.29076 -10.29028
 Alpha  occ. eigenvalues --  -10.28975 -10.28941 -10.28846 -10.28596 -10.28523
 Alpha  occ. eigenvalues --  -10.28486 -10.28386 -10.28290 -10.28228 -10.28002
 Alpha  occ. eigenvalues --  -10.27763  -3.21802  -1.95407  -1.94934  -1.94751
 Alpha  occ. eigenvalues --   -1.19102  -1.15421  -1.12658  -1.12194  -1.11120
 Alpha  occ. eigenvalues --   -1.07326  -1.06566  -1.05798  -1.05048  -1.04089
 Alpha  occ. eigenvalues --   -0.93722  -0.92031  -0.91676  -0.91284  -0.90641
 Alpha  occ. eigenvalues --   -0.90059  -0.89547  -0.89215  -0.88912  -0.88671
 Alpha  occ. eigenvalues --   -0.88349  -0.86896  -0.86039  -0.85012  -0.84414
 Alpha  occ. eigenvalues --   -0.84294  -0.83101  -0.82735  -0.82189  -0.81957
 Alpha  occ. eigenvalues --   -0.81275  -0.80473  -0.79859  -0.78738  -0.77810
 Alpha  occ. eigenvalues --   -0.77578  -0.77236  -0.76934  -0.76502  -0.76251
 Alpha  occ. eigenvalues --   -0.75210  -0.74550  -0.73328  -0.72450  -0.70913
 Alpha  occ. eigenvalues --   -0.70591  -0.70304  -0.69572  -0.68713  -0.67359
 Alpha  occ. eigenvalues --   -0.67296  -0.66865  -0.66680  -0.66297  -0.65781
 Alpha  occ. eigenvalues --   -0.65494  -0.64907  -0.63842  -0.62811  -0.62366
 Alpha  occ. eigenvalues --   -0.62082  -0.61579  -0.61427  -0.60393  -0.60118
 Alpha  occ. eigenvalues --   -0.59772  -0.58545  -0.58236  -0.58160  -0.57192
 Alpha  occ. eigenvalues --   -0.56782  -0.56427  -0.56266  -0.56016  -0.55142
 Alpha  occ. eigenvalues --   -0.55098  -0.54953  -0.54747  -0.54345  -0.54315
 Alpha  occ. eigenvalues --   -0.54058  -0.53910  -0.53502  -0.53374  -0.53149
 Alpha  occ. eigenvalues --   -0.52930  -0.52855  -0.52688  -0.52247  -0.52031
 Alpha  occ. eigenvalues --   -0.52010  -0.51744  -0.51624  -0.51423  -0.51412
 Alpha  occ. eigenvalues --   -0.51393  -0.51130  -0.50857  -0.50789  -0.50612
 Alpha  occ. eigenvalues --   -0.50536  -0.50398  -0.50083  -0.49753  -0.49715
 Alpha  occ. eigenvalues --   -0.49070  -0.49027  -0.48922  -0.48714  -0.48464
 Alpha  occ. eigenvalues --   -0.48201  -0.48137  -0.48083  -0.47757  -0.47638
 Alpha  occ. eigenvalues --   -0.47484  -0.47417  -0.47205  -0.47042  -0.46862
 Alpha  occ. eigenvalues --   -0.46732  -0.46593  -0.46163  -0.46079  -0.45952
 Alpha  occ. eigenvalues --   -0.45890  -0.45800  -0.45735  -0.45359  -0.45080
 Alpha  occ. eigenvalues --   -0.44946  -0.44718  -0.44406  -0.44393  -0.43850
 Alpha  occ. eigenvalues --   -0.43708  -0.43560  -0.43367  -0.43245  -0.43117
 Alpha  occ. eigenvalues --   -0.42986  -0.42636  -0.42568  -0.42429  -0.42252
 Alpha  occ. eigenvalues --   -0.41871  -0.41553  -0.41509  -0.41265  -0.40973
 Alpha  occ. eigenvalues --   -0.40925  -0.40245  -0.39907  -0.39875  -0.39023
 Alpha  occ. eigenvalues --   -0.38932  -0.38565  -0.38323  -0.38124  -0.37999
 Alpha  occ. eigenvalues --   -0.37929  -0.37237  -0.36690  -0.36539  -0.36185
 Alpha  occ. eigenvalues --   -0.36040  -0.35662  -0.35053  -0.33567  -0.33058
 Alpha  occ. eigenvalues --   -0.32869  -0.32527  -0.32012  -0.31174  -0.25914
 Alpha  occ. eigenvalues --   -0.23571
 Alpha virt. eigenvalues --   -0.07630   0.00344   0.02314   0.04213   0.06216
 Alpha virt. eigenvalues --    0.06424   0.07400   0.07598   0.07954   0.08666
 Alpha virt. eigenvalues --    0.10274   0.11167   0.11614   0.12369   0.12920

 Mulliken charges:
               1
     1  Mg   0.954553
     2  C   -0.012635
     3  C   -0.085423
     4  C   -0.051224
     5  C   -0.077208
     6  N   -0.298372
     7  C   -0.004316
     8  C   -0.036632
     9  C   -0.153073
    10  C    0.056796
    11  C    0.005881
    12  C   -0.049768
    13  C    0.043575
    14  C    0.198385
    15  O   -0.241167
    16  O   -0.371851
    17  N   -0.486789
    18  C    0.196540
    19  C   -0.170460
    20  C   -0.079901
    21  C    0.165624
    22  C    0.068716
    23  C    0.074028
    24  O   -0.232036
    25  C   -0.031409
    26  N   -0.367445
    27  C    0.010103
    28  C   -0.072630
    29  C   -0.059568
    30  C    0.082362
    31  C    0.017395
    32  C   -0.040416
    33  C   -0.077221
    34  N   -0.443597
    35  C    0.123761
    36  C   -0.191411
    37  C   -0.004533
    38  C    0.133607
    39  C    0.079329
    40  C    0.101522
    41  O   -0.184734
    42  C   -0.099602
    43  C    0.283627
    44  O   -0.232088
    45  O   -0.428895
    46  C    0.138217
    47  C    0.228500
    48  C   -0.143018
    49  C   -0.198887
    50  C    0.030231
    51  C    0.061300
    52  C   -0.056106
    53  C    0.005186
    54  C   -0.154103
    55  C   -0.004860
    56  C    0.029033
    57  C   -0.061817
    58  C    0.033682
    59  C   -0.196112
    60  C   -0.002686
    61  C   -0.003328
    62  C   -0.036044
    63  C    0.010756
    64  C   -0.186854
    65  C    0.000300
    66  C   -0.026760
    67  H   -0.009445
    68  H    0.030126
    69  H    0.008910
    70  H    0.047817
    71  H    0.038562
    72  H    0.041400
    73  H    0.034837
    74  H    0.062951
    75  H    0.042164
    76  H    0.058786
    77  H    0.074642
    78  H    0.064540
    79  H    0.079749
    80  H    0.025460
    81  H    0.041978
    82  H    0.031961
    83  H    0.051996
    84  H    0.052655
    85  H    0.039138
    86  H    0.034542
    87  H    0.057784
    88  H    0.033213
    89  H    0.049581
    90  H    0.031914
    91  H    0.031091
    92  H    0.042695
    93  H    0.038184
    94  H    0.050924
    95  H    0.033041
    96  H    0.055885
    97  H    0.059491
    98  H    0.071816
    99  H    0.069358
   100  H    0.053275
   101  H    0.045654
   102  H    0.043367
   103  H    0.074931
   104  H    0.019439
   105  H    0.037978
   106  H    0.030609
   107  H    0.048947
   108  H    0.040368
   109  H    0.010090
   110  H    0.009664
   111  H    0.017502
   112  H    0.008989
   113  H    0.013840
   114  H    0.022021
   115  H    0.020356
   116  H    0.022197
   117  H    0.030532
   118  H    0.016572
   119  H    0.026959
   120  H    0.017726
   121  H    0.018448
   122  H    0.014302
   123  H    0.003073
   124  H    0.016718
   125  H    0.033383
   126  H    0.033588
   127  H    0.018152
   128  H    0.021817
   129  H    0.013649
   130  H    0.025255
   131  H    0.020170
   132  H    0.015414
   133  H    0.008442
   134  H    0.026808
   135  H    0.029088
   136  H    0.020504
   137  H    0.033136
   138  H    0.033076
   139  H    0.027327
   140  H    0.020853
 Sum of Mulliken charges =  -0.00000

 Dipole moment (field-independent basis, Debye):
    X=             -3.0090    Y=              4.0307    Z=              1.1006  Tot=              5.1489
 Quadrupole moment (field-independent basis, Debye-Ang):
   XX=           -367.6442   YY=           -418.3162   ZZ=           -407.1832
   XY=              6.4132   XZ=             13.8339   YZ=             -5.1734

 Normal termination of Gaussian 16 at Wed May  4 01:39:08 2022.
