 Gaussian 16, Revision A.03,
 Gaussian 16:  ES64L-G16RevA.03 25-Dec-2016

 --------------------
 #p ZINDO=(nstates=5)
 --------------------

 -----------------------------
 step_1201_chromophore_4 ZINDO
 -----------------------------
 Symbolic Z-matrix:
 Charge =  0 Multiplicity = 1

                         Standard orientation:
 ---------------------------------------------------------------------
 Center     Atomic      Atomic             Coordinates (Angstroms)
 Number     Number       Type             X           Y           Z
 ---------------------------------------------------------------------
      1         12           0        6.110276    0.581512   -0.121261
      2          6           0        3.808928   -2.119513    0.002277
      3          6           0        3.465412    2.568710   -0.978658
      4          6           0        8.272691    3.076747   -0.083249
      5          6           0        8.776334   -1.719276    0.579348
      6          7           0        3.786234    0.242550   -0.461577
      7          6           0        3.150428   -0.949176   -0.349751
      8          6           0        1.602610   -0.718618   -0.511144
      9          6           0        1.584987    0.760374   -1.081172
     10          6           0        3.049835    1.248233   -0.924079
     11          6           0        1.037870    0.838398   -2.572493
     12          6           0        0.740905   -1.026979    0.716703
     13          6           0       -0.734570   -0.503613    0.581419
     14          6           0       -1.667491   -1.683616    0.155935
     15          8           0       -1.564760   -2.353667   -0.843246
     16          8           0       -2.690817   -1.887933    1.099235
     17          7           0        5.875134    2.564521   -0.504096
     18          6           0        4.711841    3.205063   -0.830740
     19          6           0        4.981397    4.635784   -0.792963
     20          6           0        6.401255    4.791619   -0.520968
     21          6           0        6.901319    3.423557   -0.342552
     22          6           0        3.896135    5.685909   -0.878014
     23          6           0        7.199117    6.061990   -0.284762
     24          8           0        8.389639    6.122564    0.009758
     25          6           0        6.453936    7.450128   -0.336552
     26          7           0        8.284928    0.601805   -0.009290
     27          6           0        8.875314    1.829783    0.131098
     28          6           0       10.454165    1.690119    0.327506
     29          6           0       10.602207    0.173630    0.753541
     30          6           0        9.162066   -0.360896    0.483132
     31          6           0       11.260390    2.253218   -0.964444
     32          6           0       11.041557   -0.014003    2.237844
     33          6           0       12.473467   -0.741900    2.481900
     34          7           0        6.291410   -1.472519    0.206985
     35          6           0        7.436265   -2.269240    0.465775
     36          6           0        7.004324   -3.641670    0.616114
     37          6           0        5.612005   -3.646271    0.402606
     38          6           0        5.252949   -2.313573    0.158006
     39          6           0        7.821270   -4.836494    0.989494
     40          6           0        4.452658   -4.452194    0.450159
     41          8           0        4.308657   -5.628842    0.653698
     42          6           0        3.182630   -3.499943    0.198614
     43          6           0        2.360720   -4.061102   -0.981100
     44          8           0        2.598770   -3.886369   -2.157143
     45          8           0        1.170257   -4.778529   -0.572026
     46          6           0        0.247989   -5.308561   -1.639128
     47          6           0       -3.703168   -2.821426    0.599369
     48          6           0       -5.114352   -2.301092    0.500284
     49          6           0       -6.266016   -3.032402    0.461466
     50          6           0       -6.259691   -4.541815    0.450030
     51          6           0       -7.547003   -2.182885    0.318844
     52          6           0       -7.798535   -1.432433   -0.989158
     53          6           0       -7.976514    0.143172   -0.837373
     54          6           0       -9.449657    0.535733   -0.700631
     55          6           0      -10.049989    0.774125   -2.090660
     56          6           0       -9.641775    1.744112    0.293402
     57          6           0      -10.653164    1.342707    1.429954
     58          6           0      -11.211781    2.477812    2.180574
     59          6           0      -12.736818    2.374515    2.486910
     60          6           0      -13.004344    2.917244    3.898708
     61          6           0      -13.593257    3.044694    1.359125
     62          6           0      -14.794337    2.236581    0.809034
     63          6           0      -14.368063    0.936468    0.036261
     64          6           0      -15.192079    0.658861   -1.284932
     65          6           0      -16.145369   -0.561725   -1.212556
     66          6           0      -14.311969    0.665296   -2.558005
     67          1           0        2.609005    3.206447   -1.206478
     68          1           0        8.992290    3.866229    0.141163
     69          1           0        9.591338   -2.438801    0.685421
     70          1           0        1.236110   -1.470551   -1.210678
     71          1           0        0.940042    1.440023   -0.523106
     72          1           0        1.948763    0.868462   -3.169522
     73          1           0        0.537525    1.777532   -2.810879
     74          1           0        0.418548   -0.024151   -2.821478
     75          1           0        1.233415   -0.743970    1.646772
     76          1           0        0.650955   -2.112958    0.709770
     77          1           0       -0.833457    0.253778   -0.196213
     78          1           0       -0.876853   -0.303551    1.644116
     79          1           0        3.653893    6.219365    0.041608
     80          1           0        3.009889    5.231382   -1.321047
     81          1           0        4.172424    6.371697   -1.678677
     82          1           0        5.509103    7.400673    0.205069
     83          1           0        6.169065    7.703339   -1.357449
     84          1           0        6.972754    8.318007    0.070549
     85          1           0       10.598502    2.323563    1.202035
     86          1           0       11.440953   -0.282527    0.227248
     87          1           0       10.526882    2.628171   -1.678052
     88          1           0       11.821567    1.441131   -1.426795
     89          1           0       12.012881    2.998698   -0.707907
     90          1           0       10.319415   -0.633648    2.770057
     91          1           0       11.010783    0.911967    2.813763
     92          1           0       13.037008    0.028804    3.008198
     93          1           0       12.971313   -0.965191    1.537987
     94          1           0       12.397571   -1.632868    3.105356
     95          1           0        8.770934   -4.631853    1.485341
     96          1           0        8.027464   -5.357508    0.055184
     97          1           0        7.219153   -5.499901    1.610069
     98          1           0        2.450617   -3.399132    0.999638
     99          1           0        0.695873   -5.569434   -2.597652
    100          1           0       -0.543866   -4.576761   -1.794954
    101          1           0       -0.292729   -6.118548   -1.150241
    102          1           0       -3.756057   -3.547785    1.410454
    103          1           0       -3.500776   -3.367430   -0.322134
    104          1           0       -5.099569   -1.222046    0.344110
    105          1           0       -7.197793   -4.973339    0.798456
    106          1           0       -5.449020   -4.980455    1.030734
    107          1           0       -6.065075   -4.955344   -0.539242
    108          1           0       -7.618351   -1.453772    1.126129
    109          1           0       -8.401221   -2.855776    0.395330
    110          1           0       -8.688323   -1.841332   -1.468045
    111          1           0       -7.061924   -1.623248   -1.768844
    112          1           0       -7.549606    0.569205   -1.744899
    113          1           0       -7.251820    0.459995   -0.088075
    114          1           0      -10.014806   -0.330332   -0.356837
    115          1           0      -11.096818    1.066539   -2.008173
    116          1           0      -10.059578   -0.162658   -2.647347
    117          1           0       -9.550269    1.512780   -2.718486
    118          1           0      -10.080883    2.556417   -0.286472
    119          1           0       -8.717089    2.053841    0.781143
    120          1           0      -10.126877    0.764067    2.189080
    121          1           0      -11.412294    0.649964    1.066424
    122          1           0      -10.967502    3.441963    1.735141
    123          1           0      -10.719822    2.501285    3.152416
    124          1           0      -13.013898    1.321841    2.536493
    125          1           0      -12.349494    3.675475    4.327598
    126          1           0      -12.925265    1.984991    4.457943
    127          1           0      -13.982860    3.398466    3.922486
    128          1           0      -12.941279    3.255851    0.511245
    129          1           0      -14.067235    3.924243    1.795744
    130          1           0      -15.283470    3.021386    0.233187
    131          1           0      -15.500034    2.043621    1.617214
    132          1           0      -14.430779    0.028004    0.635424
    133          1           0      -13.296301    0.988624   -0.154783
    134          1           0      -15.812829    1.549226   -1.379146
    135          1           0      -15.931618   -1.239082   -0.385753
    136          1           0      -16.071230   -1.154443   -2.125002
    137          1           0      -17.189902   -0.253572   -1.164653
    138          1           0      -13.409598    1.273145   -2.500846
    139          1           0      -14.843661    0.976790   -3.457872
    140          1           0      -13.975617   -0.340452   -2.811684
 ---------------------------------------------------------------------

 SCF Done:  E(RZINDO/S) =  -473.752603645     A.U. after   19 cycles

 Excitation energies and oscillator strengths:

 Excited State   1:      Singlet-A      1.2530 eV  989.53 nm  f=0.5935  <S**2>=0.000
     175 ->178         0.19030
     176 ->177         0.66378
 This state for optimization and/or second-order correction.
 Total Energy, E(CIS/TDA) =  -473.706558050
 Copying the excited state density for this state as the 1-particle RhoCI density.

 Excited State   2:      Singlet-A      1.8971 eV  653.56 nm  f=0.1281  <S**2>=0.000
     175 ->177         0.58953
     176 ->178        -0.36123

 Excited State   3:      Singlet-A      2.9746 eV  416.81 nm  f=0.0008  <S**2>=0.000
     167 ->179         0.12750
     168 ->177         0.31263
     168 ->178        -0.10147
     168 ->179        -0.43647
     168 ->180         0.24445
     168 ->186        -0.23932
     168 ->195         0.10427

 Excited State   4:      Singlet-A      3.0392 eV  407.95 nm  f=0.0014  <S**2>=0.000
     169 ->177         0.21123
     169 ->179         0.18356
     169 ->180         0.26335
     169 ->186         0.11104
     170 ->177         0.26082
     170 ->179         0.20985
     170 ->180         0.30576
     170 ->186         0.12930
     170 ->187        -0.10125

 Excited State   5:      Singlet-A      3.0941 eV  400.71 nm  f=1.1340  <S**2>=0.000
     171 ->177        -0.13717
     175 ->177         0.32880
     176 ->178         0.56668
     176 ->180        -0.11065

 The electronic state is 1-A.
 Alpha  occ. eigenvalues --   -1.81620  -1.80914  -1.77117  -1.72440  -1.69391
 Alpha  occ. eigenvalues --   -1.66329  -1.65222  -1.59695  -1.57409  -1.57198
 Alpha  occ. eigenvalues --   -1.53413  -1.51903  -1.48481  -1.46838  -1.44677
 Alpha  occ. eigenvalues --   -1.43145  -1.41848  -1.39580  -1.39410  -1.37080
 Alpha  occ. eigenvalues --   -1.34428  -1.33424  -1.32976  -1.31999  -1.28869
 Alpha  occ. eigenvalues --   -1.26604  -1.23595  -1.21377  -1.19842  -1.17746
 Alpha  occ. eigenvalues --   -1.15664  -1.15497  -1.13699  -1.13443  -1.12975
 Alpha  occ. eigenvalues --   -1.12769  -1.11777  -1.11150  -1.04477  -1.03890
 Alpha  occ. eigenvalues --   -1.01880  -1.01243  -0.99261  -0.97983  -0.96667
 Alpha  occ. eigenvalues --   -0.95244  -0.94638  -0.93629  -0.92705  -0.92198
 Alpha  occ. eigenvalues --   -0.91110  -0.90133  -0.88518  -0.87222  -0.86579
 Alpha  occ. eigenvalues --   -0.86361  -0.83809  -0.83477  -0.81230  -0.80545
 Alpha  occ. eigenvalues --   -0.79993  -0.78782  -0.77346  -0.76910  -0.76252
 Alpha  occ. eigenvalues --   -0.75496  -0.75320  -0.74193  -0.73921  -0.73463
 Alpha  occ. eigenvalues --   -0.72430  -0.72290  -0.71624  -0.71043  -0.69771
 Alpha  occ. eigenvalues --   -0.69129  -0.69078  -0.68492  -0.68325  -0.67074
 Alpha  occ. eigenvalues --   -0.66756  -0.66683  -0.66497  -0.65757  -0.65379
 Alpha  occ. eigenvalues --   -0.65215  -0.64465  -0.64126  -0.63206  -0.62646
 Alpha  occ. eigenvalues --   -0.62321  -0.62015  -0.61880  -0.61793  -0.61454
 Alpha  occ. eigenvalues --   -0.61029  -0.60644  -0.60596  -0.60310  -0.60138
 Alpha  occ. eigenvalues --   -0.59505  -0.59356  -0.59097  -0.58795  -0.57973
 Alpha  occ. eigenvalues --   -0.57811  -0.57448  -0.57235  -0.57200  -0.56371
 Alpha  occ. eigenvalues --   -0.56247  -0.55799  -0.55643  -0.55515  -0.54975
 Alpha  occ. eigenvalues --   -0.54371  -0.53757  -0.53169  -0.52846  -0.52705
 Alpha  occ. eigenvalues --   -0.52602  -0.52240  -0.52083  -0.51883  -0.51535
 Alpha  occ. eigenvalues --   -0.51454  -0.51002  -0.50954  -0.50195  -0.50126
 Alpha  occ. eigenvalues --   -0.50063  -0.49884  -0.49599  -0.49534  -0.49332
 Alpha  occ. eigenvalues --   -0.48966  -0.48697  -0.48592  -0.48327  -0.47834
 Alpha  occ. eigenvalues --   -0.47632  -0.47572  -0.47053  -0.46931  -0.46801
 Alpha  occ. eigenvalues --   -0.46747  -0.46092  -0.45792  -0.45661  -0.45357
 Alpha  occ. eigenvalues --   -0.45291  -0.45148  -0.45011  -0.44853  -0.44177
 Alpha  occ. eigenvalues --   -0.44145  -0.44126  -0.42572  -0.42553  -0.42329
 Alpha  occ. eigenvalues --   -0.42195  -0.41707  -0.40870  -0.39063  -0.38880
 Alpha  occ. eigenvalues --   -0.37965  -0.36973  -0.35808  -0.34592  -0.34337
 Alpha  occ. eigenvalues --   -0.33643  -0.32676  -0.32135  -0.31508  -0.26479
 Alpha  occ. eigenvalues --   -0.22229
 Alpha virt. eigenvalues --   -0.09027  -0.01809  -0.00556   0.01349   0.01938
 Alpha virt. eigenvalues --    0.02759   0.03027   0.03386   0.04458   0.04682
 Alpha virt. eigenvalues --    0.05775   0.06088   0.06686   0.07465   0.08004

 Mulliken charges:
               1
     1  Mg   0.432920
     2  C   -0.034398
     3  C   -0.067047
     4  C   -0.080106
     5  C   -0.064976
     6  N   -0.277763
     7  C    0.103432
     8  C    0.000811
     9  C    0.001229
    10  C    0.148674
    11  C   -0.056656
    12  C   -0.024487
    13  C   -0.006624
    14  C    0.461919
    15  O   -0.505346
    16  O   -0.275028
    17  N   -0.313523
    18  C    0.118407
    19  C    0.019929
    20  C   -0.053377
    21  C    0.158179
    22  C   -0.042496
    23  C    0.327626
    24  O   -0.513341
    25  C   -0.035968
    26  N   -0.277823
    27  C    0.146640
    28  C   -0.009160
    29  C    0.009866
    30  C    0.105075
    31  C   -0.049139
    32  C   -0.040643
    33  C   -0.065869
    34  N   -0.317025
    35  C    0.067544
    36  C    0.029960
    37  C   -0.056840
    38  C    0.116227
    39  C   -0.037710
    40  C    0.341813
    41  O   -0.515559
    42  C    0.049466
    43  C    0.474718
    44  O   -0.502076
    45  O   -0.293156
    46  C    0.073725
    47  C    0.098121
    48  C   -0.080373
    49  C   -0.017758
    50  C   -0.035537
    51  C   -0.014997
    52  C   -0.037043
    53  C   -0.036416
    54  C   -0.004865
    55  C   -0.053456
    56  C   -0.038451
    57  C   -0.035156
    58  C   -0.028917
    59  C   -0.016400
    60  C   -0.061929
    61  C   -0.039756
    62  C   -0.037562
    63  C   -0.034462
    64  C   -0.009742
    65  C   -0.053846
    66  C   -0.055401
    67  H    0.017020
    68  H    0.046746
    69  H    0.028373
    70  H    0.043937
    71  H    0.023501
    72  H    0.022201
    73  H    0.019254
    74  H    0.036641
    75  H    0.027625
    76  H    0.029642
    77  H    0.061386
    78  H    0.044798
    79  H    0.044848
    80  H    0.019680
    81  H    0.026189
    82  H    0.023872
    83  H    0.032641
    84  H    0.039352
    85  H    0.032658
    86  H    0.040283
    87  H    0.033342
    88  H    0.019386
    89  H    0.028942
    90  H    0.016352
    91  H    0.022924
    92  H    0.017941
    93  H    0.024755
    94  H    0.027997
    95  H    0.022534
    96  H    0.034346
    97  H    0.033990
    98  H    0.056366
    99  H    0.059143
   100  H    0.040110
   101  H    0.031685
   102  H    0.029811
   103  H    0.067837
   104  H    0.030028
   105  H    0.020868
   106  H    0.025231
   107  H    0.031264
   108  H    0.028333
   109  H    0.010632
   110  H    0.012606
   111  H    0.016651
   112  H    0.010635
   113  H    0.021209
   114  H    0.023068
   115  H    0.011530
   116  H    0.013141
   117  H    0.021079
   118  H    0.021701
   119  H    0.026646
   120  H    0.010681
   121  H    0.022545
   122  H    0.018341
   123  H    0.007594
   124  H    0.020167
   125  H    0.022358
   126  H    0.019924
   127  H    0.014862
   128  H    0.022078
   129  H    0.017037
   130  H    0.018333
   131  H    0.018995
   132  H    0.018578
   133  H    0.020223
   134  H    0.015612
   135  H    0.022160
   136  H    0.015295
   137  H    0.018358
   138  H    0.018205
   139  H    0.014834
   140  H    0.013011
 Sum of Mulliken charges =  -0.00000

 Dipole moment (field-independent basis, Debye):
    X=             -4.6960    Y=              7.1792    Z=              2.1295  Tot=              8.8390
 N-N= 4.217264026180D+03 E-N= 0.000000000000D+00  KE=-9.108717069471D+03
 Leave Link  601 at Wed May  4 01:50:46 2022, MaxMem=  6710886400 cpu:               1.0 elap:               0.1
 (Enter /sw/apps/gaussian-16.0/g16/l9999.exe)
 1\1\GINC-BP1-COMPUTE098\SP\RZINDO CIS\STO-3G\C55H74Mg1N4O6\OF15641\04-
 May-2022\0\\#p ZINDO=(nstates=5)\\step_1201_chromophore_4 ZINDO\\0,1\M
 g,0,8.239,3.105,26.964\C,0,9.797,1.624,29.79\C,0,6.85,5.357,29.127\C,0
 ,6.931,4.521,24.283\C,0,9.628,0.516,24.9\N,0,8.324,3.466,29.308\C,0,9.
 024,2.707,30.186\C,0,8.933,3.363,31.613\C,0,7.763,4.407,31.381\C,0,7.5
 35,4.391,29.846\C,0,6.46,4.069,32.228\C,0,10.248,3.876,32.207\C,0,10.0
 41,4.768,33.484\C,0,10.289,3.907,34.765\O,0,9.694,2.905,35.081\O,0,11.

 Normal termination of Gaussian 16 at Wed May  4 01:50:46 2022.
