 Gaussian 16, Revision A.03,
 Gaussian 16:  ES64L-G16RevA.03 25-Dec-2016

 ------------------------------
 #p blyp/Def2SVP td=(nstates=5)
 ------------------------------

 ---------------------------------------------------
 step_1301_chromophore_18 TDDFT with blyp functional
 ---------------------------------------------------
 Symbolic Z-matrix:
 Charge =  0 Multiplicity = 1

                         Standard orientation:
 ---------------------------------------------------------------------
 Center     Atomic      Atomic             Coordinates (Angstroms)
 Number     Number       Type             X           Y           Z
 ---------------------------------------------------------------------
      1         12           0        5.111529    1.204988    0.114140
      2          6           0        4.477460   -2.245468   -0.085731
      3          6           0        1.781265    1.768195   -0.379472
      4          6           0        5.843233    4.454737   -0.044555
      5          6           0        8.588388    0.364603    0.271995
      6          7           0        3.326434   -0.121108    0.008727
      7          6           0        3.329258   -1.455661   -0.008767
      8          6           0        1.925961   -1.985670    0.254910
      9          6           0        1.082467   -0.693569    0.004593
     10          6           0        2.089735    0.411942   -0.194530
     11          6           0       -0.013599   -0.818210   -1.110698
     12          6           0        1.785990   -2.657203    1.640378
     13          6           0        1.079807   -4.025469    1.668775
     14          6           0        0.183765   -4.492264    0.548934
     15          8           0        0.475654   -5.199812   -0.364065
     16          8           0       -1.061113   -3.994612    0.646640
     17          7           0        3.904357    2.906292   -0.119673
     18          6           0        2.538419    2.988427   -0.371297
     19          6           0        2.129312    4.333413   -0.733515
     20          6           0        3.286194    5.147211   -0.560079
     21          6           0        4.414556    4.194163   -0.215658
     22          6           0        0.729627    4.695704   -1.048629
     23          6           0        3.475071    6.638085   -0.723469
     24          8           0        4.627752    7.127093   -0.557450
     25          6           0        2.341646    7.607064   -1.128829
     26          7           0        6.908377    2.211927    0.111937
     27          6           0        6.915808    3.594552    0.166172
     28          6           0        8.342857    4.144342    0.233151
     29          6           0        9.130823    2.811860    0.603846
     30          6           0        8.183892    1.703068    0.316227
     31          6           0        8.801398    4.825969   -1.049471
     32          6           0        9.633390    2.988301    2.091003
     33          6           0       11.163488    2.893604    2.243725
     34          7           0        6.394847   -0.534499    0.089453
     35          6           0        7.762282   -0.747390    0.064282
     36          6           0        8.117004   -2.113251    0.102123
     37          6           0        6.908597   -2.755597    0.018026
     38          6           0        5.825247   -1.727237    0.003622
     39          6           0        9.481569   -2.789285    0.165814
     40          6           0        6.258097   -4.021184   -0.007255
     41          8           0        6.749213   -5.134566   -0.025783
     42          6           0        4.655276   -3.784321   -0.034541
     43          6           0        4.008671   -4.441311   -1.232714
     44          8           0        3.633798   -3.870990   -2.203121
     45          8           0        3.881017   -5.817981   -1.007648
     46          6           0        3.198389   -6.459571   -2.128684
     47          6           0       -1.929034   -4.153843   -0.465628
     48          6           0       -2.955934   -3.039846   -0.443117
     49          6           0       -4.071715   -2.935949   -1.159015
     50          6           0       -4.413590   -3.863837   -2.319317
     51          6           0       -5.100918   -1.800356   -0.763826
     52          6           0       -6.152760   -2.135190    0.297965
     53          6           0       -6.330348   -1.128881    1.486616
     54          6           0       -7.777875   -1.275881    2.119245
     55          6           0       -7.916739   -1.071321    3.662106
     56          6           0       -8.675343   -0.321748    1.301690
     57          6           0      -10.057963   -0.900140    0.891310
     58          6           0      -11.166403   -0.219834    1.613808
     59          6           0      -11.999803    0.827306    0.863179
     60          6           0      -12.711698    1.895705    1.726055
     61          6           0      -13.072400    0.239341    0.014908
     62          6           0      -13.572514    1.204451   -1.074956
     63          6           0      -15.117015    1.505706   -0.883916
     64          6           0      -15.511711    2.936639   -1.247672
     65          6           0      -15.831123    3.711081    0.086566
     66          6           0      -16.718208    2.948021   -2.216949
     67          1           0        0.699206    1.898512   -0.432230
     68          1           0        6.057262    5.517605    0.085530
     69          1           0        9.653250    0.224910    0.471270
     70          1           0        1.640600   -2.649443   -0.561744
     71          1           0        0.549036   -0.502369    0.936161
     72          1           0       -0.296952   -1.846824   -1.334457
     73          1           0        0.424378   -0.393164   -2.013375
     74          1           0       -0.969449   -0.327415   -0.924874
     75          1           0        1.492972   -1.888406    2.354989
     76          1           0        2.794214   -2.841663    2.011505
     77          1           0        0.442566   -4.010451    2.552634
     78          1           0        1.886898   -4.723263    1.893496
     79          1           0       -0.017797    3.936901   -0.816272
     80          1           0        0.597829    4.864663   -2.118174
     81          1           0        0.463361    5.662923   -0.623180
     82          1           0        1.707935    7.240664   -1.935298
     83          1           0        2.902358    8.488021   -1.440345
     84          1           0        1.864689    7.664233   -0.150363
     85          1           0        8.293193    4.866365    1.048980
     86          1           0        9.986356    2.643494   -0.051899
     87          1           0        9.835247    4.555220   -1.264311
     88          1           0        8.795610    5.889048   -0.809720
     89          1           0        8.147013    4.549507   -1.876642
     90          1           0        9.104577    2.226283    2.663408
     91          1           0        9.314978    3.935886    2.524282
     92          1           0       11.735476    3.255217    1.389278
     93          1           0       11.374686    1.832975    2.378238
     94          1           0       11.302186    3.440262    3.176685
     95          1           0        9.263291   -3.782544    0.559521
     96          1           0       10.126040   -2.256863    0.865742
     97          1           0       10.015541   -2.751973   -0.783383
     98          1           0        4.169630   -4.249912    0.822819
     99          1           0        2.234536   -6.035813   -2.413059
    100          1           0        2.895378   -7.415004   -1.699196
    101          1           0        3.836097   -6.671264   -2.986528
    102          1           0       -2.450338   -5.086083   -0.250922
    103          1           0       -1.282377   -4.217243   -1.340798
    104          1           0       -2.831131   -2.317522    0.363600
    105          1           0       -4.376365   -3.252419   -3.221132
    106          1           0       -5.414961   -4.224126   -2.083726
    107          1           0       -3.691206   -4.667867   -2.457690
    108          1           0       -5.625944   -1.451521   -1.652323
    109          1           0       -4.549459   -0.884589   -0.549532
    110          1           0       -5.972061   -3.139502    0.680800
    111          1           0       -7.093571   -2.178764   -0.250438
    112          1           0       -6.177868   -0.136408    1.063856
    113          1           0       -5.602491   -1.333336    2.271608
    114          1           0       -8.083655   -2.313790    1.987831
    115          1           0       -8.739312   -0.418623    3.954408
    116          1           0       -7.011266   -0.512018    3.895982
    117          1           0       -7.736965   -2.028515    4.152464
    118          1           0       -8.260843   -0.115089    0.314316
    119          1           0       -8.752431    0.635524    1.817639
    120          1           0      -10.210565   -1.955371    1.114623
    121          1           0      -10.249698   -0.772286   -0.173451
    122          1           0      -10.745382    0.166309    2.542465
    123          1           0      -11.972961   -0.876423    1.937774
    124          1           0      -11.389223    1.455000    0.214964
    125          1           0      -13.638239    1.431155    2.063949
    126          1           0      -12.770665    2.809066    1.133255
    127          1           0      -12.121382    2.073911    2.624740
    128          1           0      -13.785176   -0.171839    0.728903
    129          1           0      -12.592537   -0.619835   -0.452876
    130          1           0      -13.494472    0.674240   -2.024261
    131          1           0      -12.996836    2.118582   -1.223281
    132          1           0      -15.549870    1.104799    0.033459
    133          1           0      -15.553902    0.839987   -1.628236
    134          1           0      -14.715590    3.384114   -1.843690
    135          1           0      -15.177850    4.583311    0.130659
    136          1           0      -15.534436    3.201560    1.003679
    137          1           0      -16.901568    3.879055    0.199582
    138          1           0      -17.696603    3.085468   -1.756837
    139          1           0      -16.818041    1.982444   -2.712301
    140          1           0      -16.515466    3.687114   -2.992340
 ---------------------------------------------------------------------

 SCF Done:  E(RB-LYP) =  -3007.38563822     A.U. after   22 cycles

 Excitation energies and oscillator strengths:

 Excited State   1:      Singlet-A      1.7545 eV  706.66 nm  f=0.2862  <S**2>=0.000
     244 -> 247       -0.16555
     245 -> 248        0.15123
     246 -> 247        0.67025
     246 <- 247       -0.15312
 This state for optimization and/or second-order correction.
 Total Energy, E(TD-HF/TD-DFT) =  -3007.32116134
 Copying the excited state density for this state as the 1-particle RhoCI density.

 Excited State   2:      Singlet-A      1.8623 eV  665.75 nm  f=0.0276  <S**2>=0.000
     244 -> 247        0.68605
     246 -> 247        0.15922

 Excited State   3:      Singlet-A      1.8931 eV  654.94 nm  f=0.0093  <S**2>=0.000
     243 -> 247        0.69054
     245 -> 247       -0.12653

 Excited State   4:      Singlet-A      1.9778 eV  626.87 nm  f=0.1030  <S**2>=0.000
     243 -> 247        0.13700
     245 -> 247        0.64142
     246 -> 248       -0.19439
     246 -> 249        0.12866

 Excited State   5:      Singlet-A      2.5070 eV  494.55 nm  f=0.0000  <S**2>=0.000
     241 -> 247        0.70495

 The electronic state is 1-A.
 Alpha  occ. eigenvalues --  -46.27218 -18.82205 -18.80452 -18.77181 -18.76260
 Alpha  occ. eigenvalues --  -18.75334 -18.75331 -14.03091 -14.02784 -14.01366
 Alpha  occ. eigenvalues --  -14.00712 -10.04460 -10.02582 -10.00116  -9.99248
 Alpha  occ. eigenvalues --   -9.98172  -9.96438  -9.96380  -9.96328  -9.96074
 Alpha  occ. eigenvalues --   -9.95889  -9.95859  -9.95459  -9.95077  -9.94839
 Alpha  occ. eigenvalues --   -9.94275  -9.94098  -9.94079  -9.93844  -9.93706
 Alpha  occ. eigenvalues --   -9.93631  -9.93518  -9.93377  -9.93348  -9.93315
 Alpha  occ. eigenvalues --   -9.93271  -9.92993  -9.92988  -9.92981  -9.92876
 Alpha  occ. eigenvalues --   -9.92636  -9.92573  -9.92549  -9.92509  -9.92468
 Alpha  occ. eigenvalues --   -9.92442  -9.92183  -9.92170  -9.92120  -9.92045
 Alpha  occ. eigenvalues --   -9.91969  -9.91942  -9.91719  -9.91585  -9.91511
 Alpha  occ. eigenvalues --   -9.91466  -9.91441  -9.91030  -9.90916  -9.90770
 Alpha  occ. eigenvalues --   -9.90742  -9.90548  -9.90533  -9.90527  -9.90431
 Alpha  occ. eigenvalues --   -9.90395  -2.91756  -1.72202  -1.71615  -1.71477
 Alpha  occ. eigenvalues --   -1.00574  -0.96904  -0.91639  -0.91167  -0.89592
 Alpha  occ. eigenvalues --   -0.89514  -0.86898  -0.86075  -0.84744  -0.83937
 Alpha  occ. eigenvalues --   -0.74193  -0.74009  -0.73575  -0.73000  -0.72154
 Alpha  occ. eigenvalues --   -0.71683  -0.71236  -0.70995  -0.70862  -0.70609
 Alpha  occ. eigenvalues --   -0.70062  -0.69439  -0.68364  -0.67298  -0.67101
 Alpha  occ. eigenvalues --   -0.66364  -0.65569  -0.65370  -0.64495  -0.64296
 Alpha  occ. eigenvalues --   -0.63792  -0.62581  -0.62404  -0.61664  -0.60951
 Alpha  occ. eigenvalues --   -0.60357  -0.60035  -0.59863  -0.59208  -0.59080
 Alpha  occ. eigenvalues --   -0.58670  -0.58083  -0.56631  -0.56036  -0.54271
 Alpha  occ. eigenvalues --   -0.53937  -0.53724  -0.52587  -0.52382  -0.51540
 Alpha  occ. eigenvalues --   -0.51361  -0.51230  -0.50549  -0.50086  -0.50025
 Alpha  occ. eigenvalues --   -0.49842  -0.49757  -0.48288  -0.47155  -0.46841
 Alpha  occ. eigenvalues --   -0.46013  -0.45829  -0.45628  -0.44791  -0.44662
 Alpha  occ. eigenvalues --   -0.44036  -0.43477  -0.43065  -0.42782  -0.42089
 Alpha  occ. eigenvalues --   -0.42031  -0.41860  -0.41584  -0.41273  -0.41141
 Alpha  occ. eigenvalues --   -0.40795  -0.40772  -0.40204  -0.40052  -0.39789
 Alpha  occ. eigenvalues --   -0.39671  -0.39552  -0.39434  -0.39369  -0.39054
 Alpha  occ. eigenvalues --   -0.38959  -0.38753  -0.38474  -0.38226  -0.38001
 Alpha  occ. eigenvalues --   -0.37931  -0.37925  -0.37856  -0.37533  -0.37372
 Alpha  occ. eigenvalues --   -0.37237  -0.36887  -0.36778  -0.36482  -0.36377
 Alpha  occ. eigenvalues --   -0.36274  -0.36026  -0.35774  -0.35676  -0.35428
 Alpha  occ. eigenvalues --   -0.35367  -0.35339  -0.34872  -0.34564  -0.34532
 Alpha  occ. eigenvalues --   -0.34492  -0.34420  -0.34228  -0.34187  -0.33966
 Alpha  occ. eigenvalues --   -0.33860  -0.33687  -0.33561  -0.33294  -0.33061
 Alpha  occ. eigenvalues --   -0.32817  -0.32804  -0.32727  -0.32669  -0.32276
 Alpha  occ. eigenvalues --   -0.32266  -0.32254  -0.32042  -0.31722  -0.31509
 Alpha  occ. eigenvalues --   -0.31357  -0.31238  -0.31161  -0.30781  -0.30605
 Alpha  occ. eigenvalues --   -0.30366  -0.30117  -0.29998  -0.29940  -0.29706
 Alpha  occ. eigenvalues --   -0.29506  -0.29238  -0.29009  -0.28902  -0.28757
 Alpha  occ. eigenvalues --   -0.28714  -0.28582  -0.28378  -0.28275  -0.28035
 Alpha  occ. eigenvalues --   -0.27523  -0.27433  -0.26806  -0.26646  -0.26186
 Alpha  occ. eigenvalues --   -0.25946  -0.25749  -0.25529  -0.25511  -0.24989
 Alpha  occ. eigenvalues --   -0.24816  -0.24199  -0.24019  -0.23922  -0.23349
 Alpha  occ. eigenvalues --   -0.22996  -0.22608  -0.22015  -0.21523  -0.21073
 Alpha  occ. eigenvalues --   -0.20858  -0.20472  -0.18517  -0.18344  -0.17126
 Alpha  occ. eigenvalues --   -0.15695
 Alpha virt. eigenvalues --   -0.11645  -0.06734  -0.05948  -0.04626  -0.02975
 Alpha virt. eigenvalues --   -0.02087  -0.01666  -0.01133  -0.00843   0.00311
 Alpha virt. eigenvalues --    0.01369   0.01902   0.02530   0.02818   0.02977

 Mulliken charges:
               1
     1  Mg   0.682891
     2  C    0.067945
     3  C   -0.047229
     4  C   -0.023958
     5  C   -0.103612
     6  N   -0.196962
     7  C   -0.100605
     8  C   -0.003348
     9  C    0.007350
    10  C    0.020485
    11  C    0.113812
    12  C    0.150058
    13  C    0.173967
    14  C    0.047724
    15  O   -0.164239
    16  O   -0.255684
    17  N   -0.299918
    18  C    0.114435
    19  C   -0.109217
    20  C    0.061229
    21  C    0.069604
    22  C    0.169745
    23  C   -0.099973
    24  O   -0.206317
    25  C    0.127523
    26  N   -0.267067
    27  C    0.043183
    28  C   -0.026128
    29  C    0.018642
    30  C    0.051879
    31  C    0.161490
    32  C    0.082862
    33  C    0.069663
    34  N   -0.220389
    35  C    0.139732
    36  C   -0.193009
    37  C    0.129871
    38  C    0.004871
    39  C    0.180961
    40  C   -0.056210
    41  O   -0.119771
    42  C    0.012674
    43  C    0.110744
    44  O   -0.150900
    45  O   -0.277352
    46  C    0.226751
    47  C    0.298087
    48  C   -0.094234
    49  C   -0.177962
    50  C    0.154779
    51  C    0.123721
    52  C    0.064249
    53  C    0.114668
    54  C   -0.096630
    55  C    0.133802
    56  C    0.099234
    57  C    0.117736
    58  C    0.100313
    59  C   -0.116298
    60  C    0.112465
    61  C    0.112306
    62  C    0.088664
    63  C    0.093030
    64  C   -0.076145
    65  C    0.109457
    66  C    0.093195
    67  H   -0.073829
    68  H   -0.035011
    69  H   -0.066391
    70  H   -0.006484
    71  H   -0.027051
    72  H   -0.008629
    73  H   -0.009334
    74  H   -0.007011
    75  H   -0.034879
    76  H   -0.026040
    77  H   -0.012969
    78  H    0.000983
    79  H   -0.008255
    80  H   -0.002168
    81  H   -0.007853
    82  H    0.009145
    83  H    0.006838
    84  H    0.024512
    85  H   -0.016380
    86  H   -0.031609
    87  H   -0.016238
    88  H   -0.002838
    89  H    0.005866
    90  H   -0.026383
    91  H   -0.020614
    92  H    0.003134
    93  H   -0.005889
    94  H   -0.004036
    95  H    0.017661
    96  H   -0.016915
    97  H    0.011869
    98  H   -0.002630
    99  H    0.016354
   100  H   -0.008660
   101  H    0.008420
   102  H    0.001414
   103  H    0.022370
   104  H   -0.033002
   105  H    0.007016
   106  H    0.003386
   107  H   -0.007359
   108  H   -0.047773
   109  H   -0.029772
   110  H   -0.023350
   111  H   -0.026292
   112  H   -0.027228
   113  H   -0.037652
   114  H   -0.032960
   115  H   -0.001358
   116  H   -0.036751
   117  H   -0.010217
   118  H   -0.038966
   119  H   -0.025663
   120  H   -0.030921
   121  H   -0.037655
   122  H   -0.048165
   123  H   -0.058898
   124  H   -0.061025
   125  H   -0.019045
   126  H   -0.002140
   127  H   -0.033509
   128  H   -0.030575
   129  H   -0.055476
   130  H   -0.035354
   131  H   -0.021451
   132  H   -0.028744
   133  H   -0.053463
   134  H   -0.034713
   135  H   -0.015059
   136  H   -0.019068
   137  H   -0.011239
   138  H   -0.015768
   139  H   -0.028447
   140  H   -0.014451
 Sum of Mulliken charges =  -0.00000

 Dipole moment (field-independent basis, Debye):
    X=             -4.1470    Y=              2.2237    Z=              1.9466  Tot=              5.0923
 Quadrupole moment (field-independent basis, Debye-Ang):
   XX=           -395.5088   YY=           -440.0362   ZZ=           -401.6291
   XY=             25.3555   XZ=             17.7669   YZ=             -3.7506

 Normal termination of Gaussian 16 at Wed Apr 27 21:52:24 2022.
