 Gaussian 16, Revision A.03,
 Gaussian 16:  ES64L-G16RevA.03 25-Dec-2016

 -----------------------------------
 #p cam-b3lyp/Def2SVP td=(nstates=5)
 -----------------------------------

 --------------------------------------------------------
 step_1301_chromophore_18 TDDFT with cam-b3lyp functional
 --------------------------------------------------------
 Symbolic Z-matrix:
 Charge =  0 Multiplicity = 1

                         Standard orientation:
 ---------------------------------------------------------------------
 Center     Atomic      Atomic             Coordinates (Angstroms)
 Number     Number       Type             X           Y           Z
 ---------------------------------------------------------------------
      1         12           0        5.111529    1.204988    0.114140
      2          6           0        4.477460   -2.245468   -0.085731
      3          6           0        1.781265    1.768195   -0.379472
      4          6           0        5.843233    4.454737   -0.044555
      5          6           0        8.588388    0.364603    0.271995
      6          7           0        3.326434   -0.121108    0.008727
      7          6           0        3.329258   -1.455661   -0.008767
      8          6           0        1.925961   -1.985670    0.254910
      9          6           0        1.082467   -0.693569    0.004593
     10          6           0        2.089735    0.411942   -0.194530
     11          6           0       -0.013599   -0.818210   -1.110698
     12          6           0        1.785990   -2.657203    1.640378
     13          6           0        1.079807   -4.025469    1.668775
     14          6           0        0.183765   -4.492264    0.548934
     15          8           0        0.475654   -5.199812   -0.364065
     16          8           0       -1.061113   -3.994612    0.646640
     17          7           0        3.904357    2.906292   -0.119673
     18          6           0        2.538419    2.988427   -0.371297
     19          6           0        2.129312    4.333413   -0.733515
     20          6           0        3.286194    5.147211   -0.560079
     21          6           0        4.414556    4.194163   -0.215658
     22          6           0        0.729627    4.695704   -1.048629
     23          6           0        3.475071    6.638085   -0.723469
     24          8           0        4.627752    7.127093   -0.557450
     25          6           0        2.341646    7.607064   -1.128829
     26          7           0        6.908377    2.211927    0.111937
     27          6           0        6.915808    3.594552    0.166172
     28          6           0        8.342857    4.144342    0.233151
     29          6           0        9.130823    2.811860    0.603846
     30          6           0        8.183892    1.703068    0.316227
     31          6           0        8.801398    4.825969   -1.049471
     32          6           0        9.633390    2.988301    2.091003
     33          6           0       11.163488    2.893604    2.243725
     34          7           0        6.394847   -0.534499    0.089453
     35          6           0        7.762282   -0.747390    0.064282
     36          6           0        8.117004   -2.113251    0.102123
     37          6           0        6.908597   -2.755597    0.018026
     38          6           0        5.825247   -1.727237    0.003622
     39          6           0        9.481569   -2.789285    0.165814
     40          6           0        6.258097   -4.021184   -0.007255
     41          8           0        6.749213   -5.134566   -0.025783
     42          6           0        4.655276   -3.784321   -0.034541
     43          6           0        4.008671   -4.441311   -1.232714
     44          8           0        3.633798   -3.870990   -2.203121
     45          8           0        3.881017   -5.817981   -1.007648
     46          6           0        3.198389   -6.459571   -2.128684
     47          6           0       -1.929034   -4.153843   -0.465628
     48          6           0       -2.955934   -3.039846   -0.443117
     49          6           0       -4.071715   -2.935949   -1.159015
     50          6           0       -4.413590   -3.863837   -2.319317
     51          6           0       -5.100918   -1.800356   -0.763826
     52          6           0       -6.152760   -2.135190    0.297965
     53          6           0       -6.330348   -1.128881    1.486616
     54          6           0       -7.777875   -1.275881    2.119245
     55          6           0       -7.916739   -1.071321    3.662106
     56          6           0       -8.675343   -0.321748    1.301690
     57          6           0      -10.057963   -0.900140    0.891310
     58          6           0      -11.166403   -0.219834    1.613808
     59          6           0      -11.999803    0.827306    0.863179
     60          6           0      -12.711698    1.895705    1.726055
     61          6           0      -13.072400    0.239341    0.014908
     62          6           0      -13.572514    1.204451   -1.074956
     63          6           0      -15.117015    1.505706   -0.883916
     64          6           0      -15.511711    2.936639   -1.247672
     65          6           0      -15.831123    3.711081    0.086566
     66          6           0      -16.718208    2.948021   -2.216949
     67          1           0        0.699206    1.898512   -0.432230
     68          1           0        6.057262    5.517605    0.085530
     69          1           0        9.653250    0.224910    0.471270
     70          1           0        1.640600   -2.649443   -0.561744
     71          1           0        0.549036   -0.502369    0.936161
     72          1           0       -0.296952   -1.846824   -1.334457
     73          1           0        0.424378   -0.393164   -2.013375
     74          1           0       -0.969449   -0.327415   -0.924874
     75          1           0        1.492972   -1.888406    2.354989
     76          1           0        2.794214   -2.841663    2.011505
     77          1           0        0.442566   -4.010451    2.552634
     78          1           0        1.886898   -4.723263    1.893496
     79          1           0       -0.017797    3.936901   -0.816272
     80          1           0        0.597829    4.864663   -2.118174
     81          1           0        0.463361    5.662923   -0.623180
     82          1           0        1.707935    7.240664   -1.935298
     83          1           0        2.902358    8.488021   -1.440345
     84          1           0        1.864689    7.664233   -0.150363
     85          1           0        8.293193    4.866365    1.048980
     86          1           0        9.986356    2.643494   -0.051899
     87          1           0        9.835247    4.555220   -1.264311
     88          1           0        8.795610    5.889048   -0.809720
     89          1           0        8.147013    4.549507   -1.876642
     90          1           0        9.104577    2.226283    2.663408
     91          1           0        9.314978    3.935886    2.524282
     92          1           0       11.735476    3.255217    1.389278
     93          1           0       11.374686    1.832975    2.378238
     94          1           0       11.302186    3.440262    3.176685
     95          1           0        9.263291   -3.782544    0.559521
     96          1           0       10.126040   -2.256863    0.865742
     97          1           0       10.015541   -2.751973   -0.783383
     98          1           0        4.169630   -4.249912    0.822819
     99          1           0        2.234536   -6.035813   -2.413059
    100          1           0        2.895378   -7.415004   -1.699196
    101          1           0        3.836097   -6.671264   -2.986528
    102          1           0       -2.450338   -5.086083   -0.250922
    103          1           0       -1.282377   -4.217243   -1.340798
    104          1           0       -2.831131   -2.317522    0.363600
    105          1           0       -4.376365   -3.252419   -3.221132
    106          1           0       -5.414961   -4.224126   -2.083726
    107          1           0       -3.691206   -4.667867   -2.457690
    108          1           0       -5.625944   -1.451521   -1.652323
    109          1           0       -4.549459   -0.884589   -0.549532
    110          1           0       -5.972061   -3.139502    0.680800
    111          1           0       -7.093571   -2.178764   -0.250438
    112          1           0       -6.177868   -0.136408    1.063856
    113          1           0       -5.602491   -1.333336    2.271608
    114          1           0       -8.083655   -2.313790    1.987831
    115          1           0       -8.739312   -0.418623    3.954408
    116          1           0       -7.011266   -0.512018    3.895982
    117          1           0       -7.736965   -2.028515    4.152464
    118          1           0       -8.260843   -0.115089    0.314316
    119          1           0       -8.752431    0.635524    1.817639
    120          1           0      -10.210565   -1.955371    1.114623
    121          1           0      -10.249698   -0.772286   -0.173451
    122          1           0      -10.745382    0.166309    2.542465
    123          1           0      -11.972961   -0.876423    1.937774
    124          1           0      -11.389223    1.455000    0.214964
    125          1           0      -13.638239    1.431155    2.063949
    126          1           0      -12.770665    2.809066    1.133255
    127          1           0      -12.121382    2.073911    2.624740
    128          1           0      -13.785176   -0.171839    0.728903
    129          1           0      -12.592537   -0.619835   -0.452876
    130          1           0      -13.494472    0.674240   -2.024261
    131          1           0      -12.996836    2.118582   -1.223281
    132          1           0      -15.549870    1.104799    0.033459
    133          1           0      -15.553902    0.839987   -1.628236
    134          1           0      -14.715590    3.384114   -1.843690
    135          1           0      -15.177850    4.583311    0.130659
    136          1           0      -15.534436    3.201560    1.003679
    137          1           0      -16.901568    3.879055    0.199582
    138          1           0      -17.696603    3.085468   -1.756837
    139          1           0      -16.818041    1.982444   -2.712301
    140          1           0      -16.515466    3.687114   -2.992340
 ---------------------------------------------------------------------

 SCF Done:  E(RCAM-B3LYP) =  -3007.18336535     A.U. after   18 cycles

 Excitation energies and oscillator strengths:

 Excited State   1:      Singlet-A      1.6435 eV  754.40 nm  f=0.4072  <S**2>=0.000
     245 -> 248        0.16835
     246 -> 247        0.68838
     245 <- 248        0.10614
 This state for optimization and/or second-order correction.
 Total Energy, E(TD-HF/TD-DFT) =  -3007.12296887
 Copying the excited state density for this state as the 1-particle RhoCI density.

 Excited State   2:      Singlet-A      2.1717 eV  570.91 nm  f=0.1414  <S**2>=0.000
     245 -> 247        0.65149
     246 -> 248       -0.26182

 Excited State   3:      Singlet-A      3.3249 eV  372.90 nm  f=0.0002  <S**2>=0.000
     242 -> 247       -0.21852
     242 -> 249        0.10334
     242 -> 250       -0.10373
     243 -> 247        0.54559
     243 -> 249       -0.21744
     243 -> 250        0.18166
     244 -> 247       -0.18020

 Excited State   4:      Singlet-A      3.3972 eV  364.97 nm  f=0.0025  <S**2>=0.000
     242 -> 247       -0.13929
     243 -> 247        0.11228
     244 -> 247        0.65016

 Excited State   5:      Singlet-A      3.5057 eV  353.66 nm  f=0.2444  <S**2>=0.000
     240 -> 247       -0.24210
     240 -> 249       -0.15235
     242 -> 247        0.30873
     243 -> 247        0.13578
     245 -> 247        0.16814
     246 -> 248        0.48461

 The electronic state is 1-A.
 Alpha  occ. eigenvalues --  -46.88767 -19.25021 -19.23395 -19.20207 -19.19486
 Alpha  occ. eigenvalues --  -19.18675 -19.18472 -14.41947 -14.41622 -14.39833
 Alpha  occ. eigenvalues --  -14.39247 -10.39667 -10.38093 -10.35373 -10.34774
 Alpha  occ. eigenvalues --  -10.32129 -10.30896 -10.30777 -10.30765 -10.30546
 Alpha  occ. eigenvalues --  -10.30200 -10.30012 -10.29453 -10.29400 -10.29380
 Alpha  occ. eigenvalues --  -10.28766 -10.28444 -10.28059 -10.28050 -10.27984
 Alpha  occ. eigenvalues --  -10.27905 -10.27646 -10.27627 -10.27585 -10.27467
 Alpha  occ. eigenvalues --  -10.27170 -10.27111 -10.26851 -10.26804 -10.26753
 Alpha  occ. eigenvalues --  -10.26627 -10.26514 -10.26441 -10.26356 -10.26226
 Alpha  occ. eigenvalues --  -10.26147 -10.25927 -10.25891 -10.25862 -10.25828
 Alpha  occ. eigenvalues --  -10.25750 -10.25680 -10.25557 -10.25218 -10.25169
 Alpha  occ. eigenvalues --  -10.25116 -10.25106 -10.25101 -10.24656 -10.24414
 Alpha  occ. eigenvalues --  -10.24372 -10.24232 -10.24165 -10.24131 -10.24071
 Alpha  occ. eigenvalues --  -10.24042  -3.17207  -1.92132  -1.91647  -1.91517
 Alpha  occ. eigenvalues --   -1.19129  -1.15591  -1.09727  -1.09564  -1.07775
 Alpha  occ. eigenvalues --   -1.07550  -1.04692  -1.03796  -1.02310  -1.01331
 Alpha  occ. eigenvalues --   -0.91359  -0.90911  -0.90419  -0.89804  -0.88850
 Alpha  occ. eigenvalues --   -0.88341  -0.87816  -0.87613  -0.87577  -0.87152
 Alpha  occ. eigenvalues --   -0.86625  -0.85756  -0.84638  -0.83446  -0.83195
 Alpha  occ. eigenvalues --   -0.82475  -0.81700  -0.81242  -0.80455  -0.80137
 Alpha  occ. eigenvalues --   -0.79560  -0.78334  -0.78036  -0.77140  -0.76320
 Alpha  occ. eigenvalues --   -0.75701  -0.75391  -0.75156  -0.74509  -0.74284
 Alpha  occ. eigenvalues --   -0.73824  -0.73208  -0.71521  -0.70862  -0.69005
 Alpha  occ. eigenvalues --   -0.68527  -0.68271  -0.66953  -0.66761  -0.65789
 Alpha  occ. eigenvalues --   -0.65524  -0.65319  -0.64613  -0.64090  -0.63946
 Alpha  occ. eigenvalues --   -0.63763  -0.63730  -0.62154  -0.60921  -0.60459
 Alpha  occ. eigenvalues --   -0.59635  -0.59279  -0.59113  -0.58234  -0.58014
 Alpha  occ. eigenvalues --   -0.57446  -0.57093  -0.56541  -0.55938  -0.55397
 Alpha  occ. eigenvalues --   -0.55161  -0.54889  -0.54781  -0.54077  -0.53878
 Alpha  occ. eigenvalues --   -0.53589  -0.53425  -0.52985  -0.52797  -0.52747
 Alpha  occ. eigenvalues --   -0.52434  -0.52373  -0.52177  -0.51943  -0.51756
 Alpha  occ. eigenvalues --   -0.51499  -0.51272  -0.50843  -0.50740  -0.50599
 Alpha  occ. eigenvalues --   -0.50361  -0.50209  -0.50158  -0.49782  -0.49657
 Alpha  occ. eigenvalues --   -0.49609  -0.49175  -0.48970  -0.48940  -0.48656
 Alpha  occ. eigenvalues --   -0.48545  -0.48329  -0.48068  -0.47701  -0.47598
 Alpha  occ. eigenvalues --   -0.47556  -0.47193  -0.46940  -0.46671  -0.46478
 Alpha  occ. eigenvalues --   -0.46298  -0.46254  -0.46141  -0.46106  -0.45776
 Alpha  occ. eigenvalues --   -0.45719  -0.45508  -0.45181  -0.45144  -0.45003
 Alpha  occ. eigenvalues --   -0.44821  -0.44453  -0.44324  -0.44173  -0.44108
 Alpha  occ. eigenvalues --   -0.43946  -0.43879  -0.43799  -0.43396  -0.43165
 Alpha  occ. eigenvalues --   -0.43083  -0.42918  -0.42484  -0.42145  -0.41789
 Alpha  occ. eigenvalues --   -0.41771  -0.41481  -0.41299  -0.41046  -0.41005
 Alpha  occ. eigenvalues --   -0.40815  -0.40685  -0.40491  -0.40229  -0.40002
 Alpha  occ. eigenvalues --   -0.39804  -0.39628  -0.39322  -0.39280  -0.39122
 Alpha  occ. eigenvalues --   -0.38451  -0.38283  -0.37877  -0.37546  -0.37094
 Alpha  occ. eigenvalues --   -0.37006  -0.36683  -0.36408  -0.36162  -0.35824
 Alpha  occ. eigenvalues --   -0.35563  -0.35343  -0.34876  -0.34748  -0.34367
 Alpha  occ. eigenvalues --   -0.34150  -0.33728  -0.32568  -0.31332  -0.30774
 Alpha  occ. eigenvalues --   -0.30606  -0.30500  -0.30341  -0.29662  -0.23876
 Alpha  occ. eigenvalues --   -0.20949
 Alpha virt. eigenvalues --   -0.08920  -0.01286   0.00342   0.02164   0.03303
 Alpha virt. eigenvalues --    0.04779   0.05544   0.05744   0.06356   0.06690
 Alpha virt. eigenvalues --    0.08528   0.08790   0.08997   0.09131   0.09336

 Mulliken charges:
               1
     1  Mg   0.816650
     2  C    0.042196
     3  C   -0.057900
     4  C   -0.042411
     5  C   -0.107834
     6  N   -0.270381
     7  C   -0.046611
     8  C   -0.061253
     9  C   -0.043092
    10  C    0.037114
    11  C    0.061397
    12  C    0.096513
    13  C    0.101364
    14  C    0.122731
    15  O   -0.204781
    16  O   -0.317511
    17  N   -0.383822
    18  C    0.121697
    19  C   -0.113512
    20  C   -0.010680
    21  C    0.093665
    22  C    0.109016
    23  C   -0.022688
    24  O   -0.250099
    25  C    0.053112
    26  N   -0.341747
    27  C    0.063102
    28  C   -0.077188
    29  C   -0.044645
    30  C    0.073349
    31  C    0.101463
    32  C    0.031963
    33  C    0.008721
    34  N   -0.307397
    35  C    0.142639
    36  C   -0.183463
    37  C    0.045038
    38  C    0.041203
    39  C    0.134187
    40  C    0.040203
    41  O   -0.156860
    42  C   -0.057875
    43  C    0.199956
    44  O   -0.185581
    45  O   -0.338906
    46  C    0.184913
    47  C    0.263515
    48  C   -0.115638
    49  C   -0.201605
    50  C    0.094966
    51  C    0.068110
    52  C    0.012476
    53  C    0.058207
    54  C   -0.149165
    55  C    0.074475
    56  C    0.042151
    57  C    0.060106
    58  C    0.050933
    59  C   -0.170518
    60  C    0.058070
    61  C    0.057478
    62  C    0.032869
    63  C    0.036428
    64  C   -0.138633
    65  C    0.051132
    66  C    0.037508
    67  H   -0.041204
    68  H    0.004722
    69  H   -0.030868
    70  H    0.026599
    71  H    0.007968
    72  H    0.010300
    73  H    0.017253
    74  H    0.015480
    75  H   -0.000828
    76  H    0.006433
    77  H    0.022849
    78  H    0.032065
    79  H    0.019549
    80  H    0.025258
    81  H    0.017431
    82  H    0.036292
    83  H    0.041064
    84  H    0.049152
    85  H    0.017209
    86  H    0.003064
    87  H    0.007064
    88  H    0.020792
    89  H    0.031773
    90  H    0.003349
    91  H    0.007222
    92  H    0.024803
    93  H    0.015142
    94  H    0.019530
    95  H    0.044550
    96  H    0.008220
    97  H    0.038897
    98  H    0.036091
    99  H    0.039704
   100  H    0.016237
   101  H    0.031106
   102  H    0.029517
   103  H    0.049770
   104  H    0.000421
   105  H    0.030491
   106  H    0.025225
   107  H    0.016682
   108  H   -0.016358
   109  H   -0.000015
   110  H    0.005551
   111  H    0.000104
   112  H    0.000312
   113  H   -0.008434
   114  H   -0.001492
   115  H    0.021261
   116  H   -0.011699
   117  H    0.014699
   118  H   -0.009607
   119  H    0.002463
   120  H   -0.001175
   121  H   -0.009210
   122  H   -0.021960
   123  H   -0.028777
   124  H   -0.029227
   125  H    0.001716
   126  H    0.020013
   127  H   -0.007042
   128  H   -0.003508
   129  H   -0.024909
   130  H   -0.004532
   131  H    0.004844
   132  H   -0.000799
   133  H   -0.022016
   134  H   -0.002429
   135  H    0.008337
   136  H    0.003391
   137  H    0.012415
   138  H    0.007376
   139  H   -0.003939
   140  H    0.009449
 Sum of Mulliken charges =  -0.00000

 Dipole moment (field-independent basis, Debye):
    X=             -4.3376    Y=              2.3492    Z=              1.9976  Tot=              5.3220
 Quadrupole moment (field-independent basis, Debye-Ang):
   XX=           -393.9564   YY=           -437.6339   ZZ=           -401.2671
   XY=             24.1159   XZ=             18.8999   YZ=             -4.4698

 Normal termination of Gaussian 16 at Wed Apr 27 20:31:50 2022.
