 Gaussian 16, Revision A.03,
 Gaussian 16:  ES64L-G16RevA.03 25-Dec-2016

 ---------------------------------
 #p PBE1PBE/Def2SVP td=(nstates=5)
 ---------------------------------

 ------------------------------------------------------
 step_1301_chromophore_18 TDDFT with PBE1PBE functional
 ------------------------------------------------------
 Symbolic Z-matrix:
 Charge =  0 Multiplicity = 1

                         Standard orientation:
 ---------------------------------------------------------------------
 Center     Atomic      Atomic             Coordinates (Angstroms)
 Number     Number       Type             X           Y           Z
 ---------------------------------------------------------------------
      1         12           0        5.111529    1.204988    0.114140
      2          6           0        4.477460   -2.245468   -0.085731
      3          6           0        1.781265    1.768195   -0.379472
      4          6           0        5.843233    4.454737   -0.044555
      5          6           0        8.588388    0.364603    0.271995
      6          7           0        3.326434   -0.121108    0.008727
      7          6           0        3.329258   -1.455661   -0.008767
      8          6           0        1.925961   -1.985670    0.254910
      9          6           0        1.082467   -0.693569    0.004593
     10          6           0        2.089735    0.411942   -0.194530
     11          6           0       -0.013599   -0.818210   -1.110698
     12          6           0        1.785990   -2.657203    1.640378
     13          6           0        1.079807   -4.025469    1.668775
     14          6           0        0.183765   -4.492264    0.548934
     15          8           0        0.475654   -5.199812   -0.364065
     16          8           0       -1.061113   -3.994612    0.646640
     17          7           0        3.904357    2.906292   -0.119673
     18          6           0        2.538419    2.988427   -0.371297
     19          6           0        2.129312    4.333413   -0.733515
     20          6           0        3.286194    5.147211   -0.560079
     21          6           0        4.414556    4.194163   -0.215658
     22          6           0        0.729627    4.695704   -1.048629
     23          6           0        3.475071    6.638085   -0.723469
     24          8           0        4.627752    7.127093   -0.557450
     25          6           0        2.341646    7.607064   -1.128829
     26          7           0        6.908377    2.211927    0.111937
     27          6           0        6.915808    3.594552    0.166172
     28          6           0        8.342857    4.144342    0.233151
     29          6           0        9.130823    2.811860    0.603846
     30          6           0        8.183892    1.703068    0.316227
     31          6           0        8.801398    4.825969   -1.049471
     32          6           0        9.633390    2.988301    2.091003
     33          6           0       11.163488    2.893604    2.243725
     34          7           0        6.394847   -0.534499    0.089453
     35          6           0        7.762282   -0.747390    0.064282
     36          6           0        8.117004   -2.113251    0.102123
     37          6           0        6.908597   -2.755597    0.018026
     38          6           0        5.825247   -1.727237    0.003622
     39          6           0        9.481569   -2.789285    0.165814
     40          6           0        6.258097   -4.021184   -0.007255
     41          8           0        6.749213   -5.134566   -0.025783
     42          6           0        4.655276   -3.784321   -0.034541
     43          6           0        4.008671   -4.441311   -1.232714
     44          8           0        3.633798   -3.870990   -2.203121
     45          8           0        3.881017   -5.817981   -1.007648
     46          6           0        3.198389   -6.459571   -2.128684
     47          6           0       -1.929034   -4.153843   -0.465628
     48          6           0       -2.955934   -3.039846   -0.443117
     49          6           0       -4.071715   -2.935949   -1.159015
     50          6           0       -4.413590   -3.863837   -2.319317
     51          6           0       -5.100918   -1.800356   -0.763826
     52          6           0       -6.152760   -2.135190    0.297965
     53          6           0       -6.330348   -1.128881    1.486616
     54          6           0       -7.777875   -1.275881    2.119245
     55          6           0       -7.916739   -1.071321    3.662106
     56          6           0       -8.675343   -0.321748    1.301690
     57          6           0      -10.057963   -0.900140    0.891310
     58          6           0      -11.166403   -0.219834    1.613808
     59          6           0      -11.999803    0.827306    0.863179
     60          6           0      -12.711698    1.895705    1.726055
     61          6           0      -13.072400    0.239341    0.014908
     62          6           0      -13.572514    1.204451   -1.074956
     63          6           0      -15.117015    1.505706   -0.883916
     64          6           0      -15.511711    2.936639   -1.247672
     65          6           0      -15.831123    3.711081    0.086566
     66          6           0      -16.718208    2.948021   -2.216949
     67          1           0        0.699206    1.898512   -0.432230
     68          1           0        6.057262    5.517605    0.085530
     69          1           0        9.653250    0.224910    0.471270
     70          1           0        1.640600   -2.649443   -0.561744
     71          1           0        0.549036   -0.502369    0.936161
     72          1           0       -0.296952   -1.846824   -1.334457
     73          1           0        0.424378   -0.393164   -2.013375
     74          1           0       -0.969449   -0.327415   -0.924874
     75          1           0        1.492972   -1.888406    2.354989
     76          1           0        2.794214   -2.841663    2.011505
     77          1           0        0.442566   -4.010451    2.552634
     78          1           0        1.886898   -4.723263    1.893496
     79          1           0       -0.017797    3.936901   -0.816272
     80          1           0        0.597829    4.864663   -2.118174
     81          1           0        0.463361    5.662923   -0.623180
     82          1           0        1.707935    7.240664   -1.935298
     83          1           0        2.902358    8.488021   -1.440345
     84          1           0        1.864689    7.664233   -0.150363
     85          1           0        8.293193    4.866365    1.048980
     86          1           0        9.986356    2.643494   -0.051899
     87          1           0        9.835247    4.555220   -1.264311
     88          1           0        8.795610    5.889048   -0.809720
     89          1           0        8.147013    4.549507   -1.876642
     90          1           0        9.104577    2.226283    2.663408
     91          1           0        9.314978    3.935886    2.524282
     92          1           0       11.735476    3.255217    1.389278
     93          1           0       11.374686    1.832975    2.378238
     94          1           0       11.302186    3.440262    3.176685
     95          1           0        9.263291   -3.782544    0.559521
     96          1           0       10.126040   -2.256863    0.865742
     97          1           0       10.015541   -2.751973   -0.783383
     98          1           0        4.169630   -4.249912    0.822819
     99          1           0        2.234536   -6.035813   -2.413059
    100          1           0        2.895378   -7.415004   -1.699196
    101          1           0        3.836097   -6.671264   -2.986528
    102          1           0       -2.450338   -5.086083   -0.250922
    103          1           0       -1.282377   -4.217243   -1.340798
    104          1           0       -2.831131   -2.317522    0.363600
    105          1           0       -4.376365   -3.252419   -3.221132
    106          1           0       -5.414961   -4.224126   -2.083726
    107          1           0       -3.691206   -4.667867   -2.457690
    108          1           0       -5.625944   -1.451521   -1.652323
    109          1           0       -4.549459   -0.884589   -0.549532
    110          1           0       -5.972061   -3.139502    0.680800
    111          1           0       -7.093571   -2.178764   -0.250438
    112          1           0       -6.177868   -0.136408    1.063856
    113          1           0       -5.602491   -1.333336    2.271608
    114          1           0       -8.083655   -2.313790    1.987831
    115          1           0       -8.739312   -0.418623    3.954408
    116          1           0       -7.011266   -0.512018    3.895982
    117          1           0       -7.736965   -2.028515    4.152464
    118          1           0       -8.260843   -0.115089    0.314316
    119          1           0       -8.752431    0.635524    1.817639
    120          1           0      -10.210565   -1.955371    1.114623
    121          1           0      -10.249698   -0.772286   -0.173451
    122          1           0      -10.745382    0.166309    2.542465
    123          1           0      -11.972961   -0.876423    1.937774
    124          1           0      -11.389223    1.455000    0.214964
    125          1           0      -13.638239    1.431155    2.063949
    126          1           0      -12.770665    2.809066    1.133255
    127          1           0      -12.121382    2.073911    2.624740
    128          1           0      -13.785176   -0.171839    0.728903
    129          1           0      -12.592537   -0.619835   -0.452876
    130          1           0      -13.494472    0.674240   -2.024261
    131          1           0      -12.996836    2.118582   -1.223281
    132          1           0      -15.549870    1.104799    0.033459
    133          1           0      -15.553902    0.839987   -1.628236
    134          1           0      -14.715590    3.384114   -1.843690
    135          1           0      -15.177850    4.583311    0.130659
    136          1           0      -15.534436    3.201560    1.003679
    137          1           0      -16.901568    3.879055    0.199582
    138          1           0      -17.696603    3.085468   -1.756837
    139          1           0      -16.818041    1.982444   -2.712301
    140          1           0      -16.515466    3.687114   -2.992340
 ---------------------------------------------------------------------

 SCF Done:  E(RPBE1PBE) =  -3005.37192680     A.U. after   16 cycles

 Excitation energies and oscillator strengths:

 Excited State   1:      Singlet-A      1.8037 eV  687.39 nm  f=0.3897  <S**2>=0.000
     245 -> 248        0.15591
     246 -> 247        0.69592
     246 <- 247       -0.11729
 This state for optimization and/or second-order correction.
 Total Energy, E(TD-HF/TD-DFT) =  -3005.30564228
 Copying the excited state density for this state as the 1-particle RhoCI density.

 Excited State   2:      Singlet-A      2.1780 eV  569.26 nm  f=0.1352  <S**2>=0.000
     245 -> 247        0.66034
     246 -> 248       -0.23087

 Excited State   3:      Singlet-A      2.8359 eV  437.20 nm  f=0.0006  <S**2>=0.000
     243 -> 247       -0.10567
     244 -> 247        0.67295
     244 -> 249        0.13087
     244 -> 250       -0.10606

 Excited State   4:      Singlet-A      2.9905 eV  414.59 nm  f=0.0003  <S**2>=0.000
     242 -> 247        0.44845
     242 -> 248        0.10406
     242 -> 249       -0.13104
     243 -> 247        0.49695

 Excited State   5:      Singlet-A      3.0832 eV  402.13 nm  f=0.0019  <S**2>=0.000
     242 -> 247        0.50193
     243 -> 247       -0.46770

 The electronic state is 1-A.
 Alpha  occ. eigenvalues --  -46.92158 -19.25691 -19.24004 -19.20434 -19.19606
 Alpha  occ. eigenvalues --  -19.18804 -19.18782 -14.41433 -14.41174 -14.39553
 Alpha  occ. eigenvalues --  -14.38830 -10.36658 -10.35019 -10.32603 -10.31795
 Alpha  occ. eigenvalues --  -10.29541 -10.28624 -10.28547 -10.28537 -10.28217
 Alpha  occ. eigenvalues --  -10.28019 -10.27868 -10.27038 -10.27019 -10.26583
 Alpha  occ. eigenvalues --  -10.26510 -10.25993 -10.25786 -10.25658 -10.25527
 Alpha  occ. eigenvalues --  -10.25505 -10.25436 -10.25417 -10.25367 -10.25157
 Alpha  occ. eigenvalues --  -10.24779 -10.24719 -10.24687 -10.24632 -10.24209
 Alpha  occ. eigenvalues --  -10.24067 -10.23964 -10.23935 -10.23899 -10.23795
 Alpha  occ. eigenvalues --  -10.23774 -10.23678 -10.23494 -10.23436 -10.23418
 Alpha  occ. eigenvalues --  -10.23295 -10.23236 -10.22994 -10.22835 -10.22746
 Alpha  occ. eigenvalues --  -10.22704 -10.22618 -10.22532 -10.22189 -10.22081
 Alpha  occ. eigenvalues --  -10.21822 -10.21773 -10.21731 -10.21577 -10.21538
 Alpha  occ. eigenvalues --  -10.21463  -3.14183  -1.87050  -1.86542  -1.86414
 Alpha  occ. eigenvalues --   -1.13959  -1.10273  -1.04428  -1.04367  -1.02552
 Alpha  occ. eigenvalues --   -1.02343  -0.99286  -0.98414  -0.96930  -0.96058
 Alpha  occ. eigenvalues --   -0.85600  -0.85009  -0.84587  -0.83972  -0.82980
 Alpha  occ. eigenvalues --   -0.82638  -0.82147  -0.81889  -0.81708  -0.81494
 Alpha  occ. eigenvalues --   -0.80940  -0.80019  -0.78826  -0.77721  -0.77464
 Alpha  occ. eigenvalues --   -0.76725  -0.75926  -0.75479  -0.74724  -0.74284
 Alpha  occ. eigenvalues --   -0.73881  -0.72615  -0.72302  -0.71472  -0.70496
 Alpha  occ. eigenvalues --   -0.70009  -0.69488  -0.69320  -0.68785  -0.68495
 Alpha  occ. eigenvalues --   -0.68077  -0.67642  -0.65864  -0.65265  -0.63421
 Alpha  occ. eigenvalues --   -0.62768  -0.62634  -0.61357  -0.61096  -0.60082
 Alpha  occ. eigenvalues --   -0.59887  -0.59752  -0.59178  -0.58460  -0.58300
 Alpha  occ. eigenvalues --   -0.58217  -0.57916  -0.56338  -0.55405  -0.54916
 Alpha  occ. eigenvalues --   -0.54160  -0.53930  -0.53648  -0.52790  -0.52456
 Alpha  occ. eigenvalues --   -0.52045  -0.51435  -0.51051  -0.50539  -0.49848
 Alpha  occ. eigenvalues --   -0.49681  -0.49479  -0.49167  -0.48605  -0.48314
 Alpha  occ. eigenvalues --   -0.48107  -0.47873  -0.47544  -0.47327  -0.47275
 Alpha  occ. eigenvalues --   -0.46916  -0.46843  -0.46729  -0.46421  -0.46333
 Alpha  occ. eigenvalues --   -0.46069  -0.45879  -0.45360  -0.45257  -0.45174
 Alpha  occ. eigenvalues --   -0.44914  -0.44789  -0.44690  -0.44350  -0.44235
 Alpha  occ. eigenvalues --   -0.44220  -0.43800  -0.43567  -0.43510  -0.43275
 Alpha  occ. eigenvalues --   -0.43153  -0.42985  -0.42672  -0.42364  -0.42257
 Alpha  occ. eigenvalues --   -0.42173  -0.41857  -0.41599  -0.41336  -0.41209
 Alpha  occ. eigenvalues --   -0.40970  -0.40851  -0.40840  -0.40771  -0.40559
 Alpha  occ. eigenvalues --   -0.40400  -0.40264  -0.39855  -0.39830  -0.39617
 Alpha  occ. eigenvalues --   -0.39535  -0.39298  -0.39070  -0.38877  -0.38788
 Alpha  occ. eigenvalues --   -0.38731  -0.38602  -0.38461  -0.38249  -0.37957
 Alpha  occ. eigenvalues --   -0.37909  -0.37734  -0.37240  -0.37028  -0.36703
 Alpha  occ. eigenvalues --   -0.36544  -0.36217  -0.36162  -0.35974  -0.35869
 Alpha  occ. eigenvalues --   -0.35600  -0.35480  -0.35346  -0.35113  -0.34744
 Alpha  occ. eigenvalues --   -0.34583  -0.34559  -0.34127  -0.34081  -0.34020
 Alpha  occ. eigenvalues --   -0.33223  -0.33062  -0.32897  -0.32418  -0.32091
 Alpha  occ. eigenvalues --   -0.31946  -0.31525  -0.31469  -0.31015  -0.30780
 Alpha  occ. eigenvalues --   -0.30534  -0.30243  -0.29654  -0.29600  -0.29304
 Alpha  occ. eigenvalues --   -0.29276  -0.28561  -0.28141  -0.26964  -0.26113
 Alpha  occ. eigenvalues --   -0.25878  -0.25633  -0.25328  -0.25165  -0.20804
 Alpha  occ. eigenvalues --   -0.18614
 Alpha virt. eigenvalues --   -0.11313  -0.04902  -0.03816  -0.02134   0.00217
 Alpha virt. eigenvalues --    0.00369   0.01269   0.01729   0.02058   0.02984
 Alpha virt. eigenvalues --    0.04257   0.05012   0.05481   0.05754   0.05924

 Mulliken charges:
               1
     1  Mg   0.966791
     2  C    0.039110
     3  C   -0.058755
     4  C   -0.036901
     5  C   -0.093734
     6  N   -0.379732
     7  C    0.027208
     8  C   -0.134439
     9  C   -0.117091
    10  C    0.076693
    11  C   -0.003194
    12  C    0.046053
    13  C    0.028507
    14  C    0.187005
    15  O   -0.240650
    16  O   -0.351317
    17  N   -0.492371
    18  C    0.150454
    19  C   -0.145292
    20  C   -0.062155
    21  C    0.131757
    22  C    0.052567
    23  C    0.024919
    24  O   -0.283557
    25  C   -0.018694
    26  N   -0.447425
    27  C    0.094422
    28  C   -0.153256
    29  C   -0.124565
    30  C    0.110155
    31  C    0.043066
    32  C   -0.022199
    33  C   -0.066693
    34  N   -0.431014
    35  C    0.153124
    36  C   -0.189911
    37  C   -0.013849
    38  C    0.095449
    39  C    0.081050
    40  C    0.132887
    41  O   -0.203014
    42  C   -0.167219
    43  C    0.289788
    44  O   -0.219116
    45  O   -0.370371
    46  C    0.128286
    47  C    0.225451
    48  C   -0.121996
    49  C   -0.250128
    50  C    0.029111
    51  C    0.010454
    52  C   -0.047551
    53  C   -0.005912
    54  C   -0.227044
    55  C    0.011471
    56  C   -0.016146
    57  C    0.000714
    58  C   -0.006174
    59  C   -0.258765
    60  C    0.001719
    61  C    0.000518
    62  C   -0.027937
    63  C   -0.015989
    64  C   -0.233849
    65  C   -0.007298
    66  C   -0.019914
    67  H   -0.006784
    68  H    0.035965
    69  H    0.001264
    70  H    0.069195
    71  H    0.046356
    72  H    0.044662
    73  H    0.045913
    74  H    0.041954
    75  H    0.029565
    76  H    0.041116
    77  H    0.055566
    78  H    0.063432
    79  H    0.046664
    80  H    0.053809
    81  H    0.046057
    82  H    0.062261
    83  H    0.067912
    84  H    0.076016
    85  H    0.053004
    86  H    0.039596
    87  H    0.035748
    88  H    0.048076
    89  H    0.059678
    90  H    0.036768
    91  H    0.038409
    92  H    0.051553
    93  H    0.043745
    94  H    0.047587
    95  H    0.071173
    96  H    0.035048
    97  H    0.065748
    98  H    0.074621
    99  H    0.062118
   100  H    0.038753
   101  H    0.053971
   102  H    0.057554
   103  H    0.072440
   104  H    0.029912
   105  H    0.058543
   106  H    0.053493
   107  H    0.043428
   108  H    0.016390
   109  H    0.030713
   110  H    0.038540
   111  H    0.033210
   112  H    0.032903
   113  H    0.024842
   114  H    0.035717
   115  H    0.048491
   116  H    0.017555
   117  H    0.042453
   118  H    0.023548
   119  H    0.034626
   120  H    0.030444
   121  H    0.022652
   122  H    0.012287
   123  H    0.004952
   124  H    0.011207
   125  H    0.027798
   126  H    0.047644
   127  H    0.021828
   128  H    0.027634
   129  H    0.010558
   130  H    0.029280
   131  H    0.033687
   132  H    0.029335
   133  H    0.011923
   134  H    0.034512
   135  H    0.035507
   136  H    0.031471
   137  H    0.038750
   138  H    0.033876
   139  H    0.023391
   140  H    0.036876
 Sum of Mulliken charges =  -0.00000

 Dipole moment (field-independent basis, Debye):
    X=             -4.4031    Y=              2.5279    Z=              2.0356  Tot=              5.4700
 Quadrupole moment (field-independent basis, Debye-Ang):
   XX=           -389.2396   YY=           -434.6010   ZZ=           -398.7366
   XY=             26.1112   XZ=             19.6441   YZ=             -4.3887

 Normal termination of Gaussian 16 at Wed Apr 27 20:51:04 2022.
