 Gaussian 16, Revision A.03,
 Gaussian 16:  ES64L-G16RevA.03 25-Dec-2016

 --------------------------------
 #p wB97XD/Def2SVP td=(nstates=5)
 --------------------------------

 -----------------------------------------------------
 step_1301_chromophore_18 TDDFT with wB97XD functional
 -----------------------------------------------------
 Symbolic Z-matrix:
 Charge =  0 Multiplicity = 1

                         Standard orientation:
 ---------------------------------------------------------------------
 Center     Atomic      Atomic             Coordinates (Angstroms)
 Number     Number       Type             X           Y           Z
 ---------------------------------------------------------------------
      1         12           0        5.111529    1.204988    0.114140
      2          6           0        4.477460   -2.245468   -0.085731
      3          6           0        1.781265    1.768195   -0.379472
      4          6           0        5.843233    4.454737   -0.044555
      5          6           0        8.588388    0.364603    0.271995
      6          7           0        3.326434   -0.121108    0.008727
      7          6           0        3.329258   -1.455661   -0.008767
      8          6           0        1.925961   -1.985670    0.254910
      9          6           0        1.082467   -0.693569    0.004593
     10          6           0        2.089735    0.411942   -0.194530
     11          6           0       -0.013599   -0.818210   -1.110698
     12          6           0        1.785990   -2.657203    1.640378
     13          6           0        1.079807   -4.025469    1.668775
     14          6           0        0.183765   -4.492264    0.548934
     15          8           0        0.475654   -5.199812   -0.364065
     16          8           0       -1.061113   -3.994612    0.646640
     17          7           0        3.904357    2.906292   -0.119673
     18          6           0        2.538419    2.988427   -0.371297
     19          6           0        2.129312    4.333413   -0.733515
     20          6           0        3.286194    5.147211   -0.560079
     21          6           0        4.414556    4.194163   -0.215658
     22          6           0        0.729627    4.695704   -1.048629
     23          6           0        3.475071    6.638085   -0.723469
     24          8           0        4.627752    7.127093   -0.557450
     25          6           0        2.341646    7.607064   -1.128829
     26          7           0        6.908377    2.211927    0.111937
     27          6           0        6.915808    3.594552    0.166172
     28          6           0        8.342857    4.144342    0.233151
     29          6           0        9.130823    2.811860    0.603846
     30          6           0        8.183892    1.703068    0.316227
     31          6           0        8.801398    4.825969   -1.049471
     32          6           0        9.633390    2.988301    2.091003
     33          6           0       11.163488    2.893604    2.243725
     34          7           0        6.394847   -0.534499    0.089453
     35          6           0        7.762282   -0.747390    0.064282
     36          6           0        8.117004   -2.113251    0.102123
     37          6           0        6.908597   -2.755597    0.018026
     38          6           0        5.825247   -1.727237    0.003622
     39          6           0        9.481569   -2.789285    0.165814
     40          6           0        6.258097   -4.021184   -0.007255
     41          8           0        6.749213   -5.134566   -0.025783
     42          6           0        4.655276   -3.784321   -0.034541
     43          6           0        4.008671   -4.441311   -1.232714
     44          8           0        3.633798   -3.870990   -2.203121
     45          8           0        3.881017   -5.817981   -1.007648
     46          6           0        3.198389   -6.459571   -2.128684
     47          6           0       -1.929034   -4.153843   -0.465628
     48          6           0       -2.955934   -3.039846   -0.443117
     49          6           0       -4.071715   -2.935949   -1.159015
     50          6           0       -4.413590   -3.863837   -2.319317
     51          6           0       -5.100918   -1.800356   -0.763826
     52          6           0       -6.152760   -2.135190    0.297965
     53          6           0       -6.330348   -1.128881    1.486616
     54          6           0       -7.777875   -1.275881    2.119245
     55          6           0       -7.916739   -1.071321    3.662106
     56          6           0       -8.675343   -0.321748    1.301690
     57          6           0      -10.057963   -0.900140    0.891310
     58          6           0      -11.166403   -0.219834    1.613808
     59          6           0      -11.999803    0.827306    0.863179
     60          6           0      -12.711698    1.895705    1.726055
     61          6           0      -13.072400    0.239341    0.014908
     62          6           0      -13.572514    1.204451   -1.074956
     63          6           0      -15.117015    1.505706   -0.883916
     64          6           0      -15.511711    2.936639   -1.247672
     65          6           0      -15.831123    3.711081    0.086566
     66          6           0      -16.718208    2.948021   -2.216949
     67          1           0        0.699206    1.898512   -0.432230
     68          1           0        6.057262    5.517605    0.085530
     69          1           0        9.653250    0.224910    0.471270
     70          1           0        1.640600   -2.649443   -0.561744
     71          1           0        0.549036   -0.502369    0.936161
     72          1           0       -0.296952   -1.846824   -1.334457
     73          1           0        0.424378   -0.393164   -2.013375
     74          1           0       -0.969449   -0.327415   -0.924874
     75          1           0        1.492972   -1.888406    2.354989
     76          1           0        2.794214   -2.841663    2.011505
     77          1           0        0.442566   -4.010451    2.552634
     78          1           0        1.886898   -4.723263    1.893496
     79          1           0       -0.017797    3.936901   -0.816272
     80          1           0        0.597829    4.864663   -2.118174
     81          1           0        0.463361    5.662923   -0.623180
     82          1           0        1.707935    7.240664   -1.935298
     83          1           0        2.902358    8.488021   -1.440345
     84          1           0        1.864689    7.664233   -0.150363
     85          1           0        8.293193    4.866365    1.048980
     86          1           0        9.986356    2.643494   -0.051899
     87          1           0        9.835247    4.555220   -1.264311
     88          1           0        8.795610    5.889048   -0.809720
     89          1           0        8.147013    4.549507   -1.876642
     90          1           0        9.104577    2.226283    2.663408
     91          1           0        9.314978    3.935886    2.524282
     92          1           0       11.735476    3.255217    1.389278
     93          1           0       11.374686    1.832975    2.378238
     94          1           0       11.302186    3.440262    3.176685
     95          1           0        9.263291   -3.782544    0.559521
     96          1           0       10.126040   -2.256863    0.865742
     97          1           0       10.015541   -2.751973   -0.783383
     98          1           0        4.169630   -4.249912    0.822819
     99          1           0        2.234536   -6.035813   -2.413059
    100          1           0        2.895378   -7.415004   -1.699196
    101          1           0        3.836097   -6.671264   -2.986528
    102          1           0       -2.450338   -5.086083   -0.250922
    103          1           0       -1.282377   -4.217243   -1.340798
    104          1           0       -2.831131   -2.317522    0.363600
    105          1           0       -4.376365   -3.252419   -3.221132
    106          1           0       -5.414961   -4.224126   -2.083726
    107          1           0       -3.691206   -4.667867   -2.457690
    108          1           0       -5.625944   -1.451521   -1.652323
    109          1           0       -4.549459   -0.884589   -0.549532
    110          1           0       -5.972061   -3.139502    0.680800
    111          1           0       -7.093571   -2.178764   -0.250438
    112          1           0       -6.177868   -0.136408    1.063856
    113          1           0       -5.602491   -1.333336    2.271608
    114          1           0       -8.083655   -2.313790    1.987831
    115          1           0       -8.739312   -0.418623    3.954408
    116          1           0       -7.011266   -0.512018    3.895982
    117          1           0       -7.736965   -2.028515    4.152464
    118          1           0       -8.260843   -0.115089    0.314316
    119          1           0       -8.752431    0.635524    1.817639
    120          1           0      -10.210565   -1.955371    1.114623
    121          1           0      -10.249698   -0.772286   -0.173451
    122          1           0      -10.745382    0.166309    2.542465
    123          1           0      -11.972961   -0.876423    1.937774
    124          1           0      -11.389223    1.455000    0.214964
    125          1           0      -13.638239    1.431155    2.063949
    126          1           0      -12.770665    2.809066    1.133255
    127          1           0      -12.121382    2.073911    2.624740
    128          1           0      -13.785176   -0.171839    0.728903
    129          1           0      -12.592537   -0.619835   -0.452876
    130          1           0      -13.494472    0.674240   -2.024261
    131          1           0      -12.996836    2.118582   -1.223281
    132          1           0      -15.549870    1.104799    0.033459
    133          1           0      -15.553902    0.839987   -1.628236
    134          1           0      -14.715590    3.384114   -1.843690
    135          1           0      -15.177850    4.583311    0.130659
    136          1           0      -15.534436    3.201560    1.003679
    137          1           0      -16.901568    3.879055    0.199582
    138          1           0      -17.696603    3.085468   -1.756837
    139          1           0      -16.818041    1.982444   -2.712301
    140          1           0      -16.515466    3.687114   -2.992340
 ---------------------------------------------------------------------

 SCF Done:  E(RwB97XD) =  -3007.88204647     A.U. after   19 cycles

 Excitation energies and oscillator strengths:

 Excited State   1:      Singlet-A      1.5809 eV  784.26 nm  f=0.4055  <S**2>=0.000
     245 -> 248        0.17479
     246 -> 247        0.68578
     245 <- 248        0.11592
 This state for optimization and/or second-order correction.
 Total Energy, E(TD-HF/TD-DFT) =  -3007.82394888
 Copying the excited state density for this state as the 1-particle RhoCI density.

 Excited State   2:      Singlet-A      2.1131 eV  586.74 nm  f=0.1376  <S**2>=0.000
     245 -> 247        0.64945
     246 -> 248       -0.26583

 Excited State   3:      Singlet-A      3.3489 eV  370.22 nm  f=0.0002  <S**2>=0.000
     243 -> 247        0.56898
     243 -> 249       -0.25610
     243 -> 250       -0.20528
     244 -> 247       -0.19830

 Excited State   4:      Singlet-A      3.4255 eV  361.94 nm  f=0.0025  <S**2>=0.000
     241 -> 247        0.12796
     243 -> 247        0.15344
     244 -> 247        0.63263

 Excited State   5:      Singlet-A      3.5190 eV  352.33 nm  f=0.2996  <S**2>=0.000
     240 -> 249       -0.12157
     241 -> 247       -0.33721
     242 -> 247        0.18155
     245 -> 247        0.18247
     246 -> 248        0.51698

 The electronic state is 1-A.
 Alpha  occ. eigenvalues --  -46.95099 -19.30238 -19.28629 -19.25094 -19.24391
 Alpha  occ. eigenvalues --  -19.23756 -19.23500 -14.46524 -14.46232 -14.44429
 Alpha  occ. eigenvalues --  -14.43851 -10.43445 -10.41921 -10.39342 -10.38818
 Alpha  occ. eigenvalues --  -10.36018 -10.34914 -10.34818 -10.34758 -10.34563
 Alpha  occ. eigenvalues --  -10.34209 -10.34025 -10.33489 -10.33450 -10.33124
 Alpha  occ. eigenvalues --  -10.32877 -10.32520 -10.32147 -10.32053 -10.32028
 Alpha  occ. eigenvalues --  -10.31960 -10.31730 -10.31652 -10.31643 -10.31473
 Alpha  occ. eigenvalues --  -10.31163 -10.31074 -10.30902 -10.30838 -10.30649
 Alpha  occ. eigenvalues --  -10.30604 -10.30351 -10.30335 -10.30308 -10.30224
 Alpha  occ. eigenvalues --  -10.30078 -10.29989 -10.29837 -10.29796 -10.29708
 Alpha  occ. eigenvalues --  -10.29686 -10.29620 -10.29374 -10.29302 -10.29105
 Alpha  occ. eigenvalues --  -10.29052 -10.28947 -10.28938 -10.28561 -10.28358
 Alpha  occ. eigenvalues --  -10.28198 -10.28171 -10.28086 -10.27952 -10.27951
 Alpha  occ. eigenvalues --  -10.27909  -3.20985  -1.94599  -1.94092  -1.93964
 Alpha  occ. eigenvalues --   -1.21295  -1.17732  -1.11998  -1.11742  -1.09964
 Alpha  occ. eigenvalues --   -1.09761  -1.06695  -1.05839  -1.04305  -1.03347
 Alpha  occ. eigenvalues --   -0.93319  -0.92666  -0.92247  -0.91625  -0.90637
 Alpha  occ. eigenvalues --   -0.90236  -0.89707  -0.89563  -0.89361  -0.89075
 Alpha  occ. eigenvalues --   -0.88562  -0.87635  -0.86469  -0.85337  -0.85085
 Alpha  occ. eigenvalues --   -0.84363  -0.83608  -0.83127  -0.82389  -0.81950
 Alpha  occ. eigenvalues --   -0.81519  -0.80280  -0.79936  -0.79062  -0.78163
 Alpha  occ. eigenvalues --   -0.77629  -0.77185  -0.76985  -0.76435  -0.76137
 Alpha  occ. eigenvalues --   -0.75701  -0.75206  -0.73444  -0.72821  -0.70994
 Alpha  occ. eigenvalues --   -0.70395  -0.70190  -0.68883  -0.68686  -0.67657
 Alpha  occ. eigenvalues --   -0.67446  -0.67254  -0.66608  -0.65917  -0.65881
 Alpha  occ. eigenvalues --   -0.65737  -0.65572  -0.63978  -0.62899  -0.62394
 Alpha  occ. eigenvalues --   -0.61609  -0.61280  -0.61085  -0.60199  -0.59920
 Alpha  occ. eigenvalues --   -0.59429  -0.59031  -0.58483  -0.57923  -0.57335
 Alpha  occ. eigenvalues --   -0.57095  -0.56866  -0.56637  -0.55988  -0.55753
 Alpha  occ. eigenvalues --   -0.55517  -0.55297  -0.54920  -0.54718  -0.54649
 Alpha  occ. eigenvalues --   -0.54352  -0.54263  -0.54072  -0.53797  -0.53668
 Alpha  occ. eigenvalues --   -0.53395  -0.53180  -0.52813  -0.52618  -0.52503
 Alpha  occ. eigenvalues --   -0.52300  -0.52106  -0.52021  -0.51696  -0.51573
 Alpha  occ. eigenvalues --   -0.51535  -0.51108  -0.50947  -0.50806  -0.50587
 Alpha  occ. eigenvalues --   -0.50417  -0.50230  -0.49989  -0.49586  -0.49526
 Alpha  occ. eigenvalues --   -0.49435  -0.49073  -0.48876  -0.48586  -0.48413
 Alpha  occ. eigenvalues --   -0.48222  -0.48106  -0.48074  -0.47977  -0.47688
 Alpha  occ. eigenvalues --   -0.47607  -0.47455  -0.47098  -0.47033  -0.46936
 Alpha  occ. eigenvalues --   -0.46746  -0.46356  -0.46205  -0.46122  -0.46038
 Alpha  occ. eigenvalues --   -0.45856  -0.45720  -0.45691  -0.45316  -0.45144
 Alpha  occ. eigenvalues --   -0.45007  -0.44838  -0.44345  -0.44058  -0.43687
 Alpha  occ. eigenvalues --   -0.43643  -0.43349  -0.43291  -0.42940  -0.42910
 Alpha  occ. eigenvalues --   -0.42738  -0.42595  -0.42376  -0.42125  -0.41843
 Alpha  occ. eigenvalues --   -0.41652  -0.41518  -0.41167  -0.41154  -0.41010
 Alpha  occ. eigenvalues --   -0.40312  -0.40122  -0.39809  -0.39423  -0.39082
 Alpha  occ. eigenvalues --   -0.38940  -0.38522  -0.38418  -0.38006  -0.37811
 Alpha  occ. eigenvalues --   -0.37557  -0.37186  -0.36768  -0.36587  -0.36194
 Alpha  occ. eigenvalues --   -0.36140  -0.35674  -0.34828  -0.33545  -0.32699
 Alpha  occ. eigenvalues --   -0.32657  -0.32626  -0.32363  -0.31838  -0.25789
 Alpha  occ. eigenvalues --   -0.22736
 Alpha virt. eigenvalues --   -0.07292   0.00643   0.02386   0.04297   0.06329
 Alpha virt. eigenvalues --    0.07078   0.07926   0.08295   0.08751   0.09209
 Alpha virt. eigenvalues --    0.11000   0.11839   0.12286   0.12531   0.12713

 Mulliken charges:
               1
     1  Mg   0.956508
     2  C    0.031705
     3  C   -0.069603
     4  C   -0.051456
     5  C   -0.114427
     6  N   -0.343775
     7  C   -0.000201
     8  C   -0.105809
     9  C   -0.091898
    10  C    0.060635
    11  C    0.017107
    12  C    0.056163
    13  C    0.041704
    14  C    0.174593
    15  O   -0.236271
    16  O   -0.347352
    17  N   -0.462638
    18  C    0.139856
    19  C   -0.132517
    20  C   -0.055973
    21  C    0.118839
    22  C    0.061274
    23  C    0.021147
    24  O   -0.279706
    25  C   -0.008200
    26  N   -0.417315
    27  C    0.081716
    28  C   -0.122936
    29  C   -0.096807
    30  C    0.098283
    31  C    0.052185
    32  C   -0.011081
    33  C   -0.048853
    34  N   -0.392910
    35  C    0.150481
    36  C   -0.189956
    37  C   -0.007728
    38  C    0.079494
    39  C    0.092846
    40  C    0.115512
    41  O   -0.191844
    42  C   -0.126867
    43  C    0.268255
    44  O   -0.214072
    45  O   -0.369341
    46  C    0.142570
    47  C    0.233867
    48  C   -0.131581
    49  C   -0.234302
    50  C    0.044434
    51  C    0.026610
    52  C   -0.033431
    53  C    0.014625
    54  C   -0.201050
    55  C    0.023905
    56  C    0.000487
    57  C    0.012703
    58  C    0.015995
    59  C   -0.224019
    60  C    0.013719
    61  C    0.018975
    62  C   -0.013157
    63  C   -0.001233
    64  C   -0.205710
    65  C    0.005355
    66  C   -0.007191
    67  H   -0.016614
    68  H    0.031249
    69  H   -0.003518
    70  H    0.050149
    71  H    0.034816
    72  H    0.028888
    73  H    0.039822
    74  H    0.036432
    75  H    0.024482
    76  H    0.030115
    77  H    0.050858
    78  H    0.058753
    79  H    0.042990
    80  H    0.048862
    81  H    0.039377
    82  H    0.058165
    83  H    0.066502
    84  H    0.070716
    85  H    0.041561
    86  H    0.026860
    87  H    0.029086
    88  H    0.043113
    89  H    0.053821
    90  H    0.028409
    91  H    0.030395
    92  H    0.045641
    93  H    0.036513
    94  H    0.042265
    95  H    0.067533
    96  H    0.029845
    97  H    0.062300
    98  H    0.064052
    99  H    0.058380
   100  H    0.035304
   101  H    0.050328
   102  H    0.052532
   103  H    0.069171
   104  H    0.025950
   105  H    0.052750
   106  H    0.046914
   107  H    0.038725
   108  H    0.009407
   109  H    0.022774
   110  H    0.029923
   111  H    0.022582
   112  H    0.022448
   113  H    0.016972
   114  H    0.022430
   115  H    0.043048
   116  H    0.009712
   117  H    0.037932
   118  H    0.013442
   119  H    0.025140
   120  H    0.023364
   121  H    0.013801
   122  H   -0.002634
   123  H   -0.004995
   124  H   -0.003929
   125  H    0.018908
   126  H    0.040512
   127  H    0.016274
   128  H    0.015533
   129  H   -0.000121
   130  H    0.022536
   131  H    0.023840
   132  H    0.019981
   133  H    0.001744
   134  H    0.024219
   135  H    0.030153
   136  H    0.022279
   137  H    0.033322
   138  H    0.027699
   139  H    0.016157
   140  H    0.031715
 Sum of Mulliken charges =  -0.00000

 Dipole moment (field-independent basis, Debye):
    X=             -4.3521    Y=              2.3516    Z=              2.0252  Tot=              5.3453
 Quadrupole moment (field-independent basis, Debye-Ang):
   XX=           -388.3949   YY=           -433.4649   ZZ=           -398.2819
   XY=             23.8993   XZ=             19.5924   YZ=             -4.5605

 Normal termination of Gaussian 16 at Wed Apr 27 21:33:15 2022.
