 Gaussian 16, Revision A.03,
 Gaussian 16:  ES64L-G16RevA.03 25-Dec-2016

 --------------------
 #p ZINDO=(nstates=5)
 --------------------

 ------------------------------
 step_1301_chromophore_18 ZINDO
 ------------------------------
 Symbolic Z-matrix:
 Charge =  0 Multiplicity = 1

                         Standard orientation:
 ---------------------------------------------------------------------
 Center     Atomic      Atomic             Coordinates (Angstroms)
 Number     Number       Type             X           Y           Z
 ---------------------------------------------------------------------
      1         12           0        5.111529    1.204988    0.114140
      2          6           0        4.477460   -2.245468   -0.085731
      3          6           0        1.781265    1.768195   -0.379472
      4          6           0        5.843233    4.454737   -0.044555
      5          6           0        8.588388    0.364603    0.271995
      6          7           0        3.326434   -0.121108    0.008727
      7          6           0        3.329258   -1.455661   -0.008767
      8          6           0        1.925961   -1.985670    0.254910
      9          6           0        1.082467   -0.693569    0.004593
     10          6           0        2.089735    0.411942   -0.194530
     11          6           0       -0.013599   -0.818210   -1.110698
     12          6           0        1.785990   -2.657203    1.640378
     13          6           0        1.079807   -4.025469    1.668775
     14          6           0        0.183765   -4.492264    0.548934
     15          8           0        0.475654   -5.199812   -0.364065
     16          8           0       -1.061113   -3.994612    0.646640
     17          7           0        3.904357    2.906292   -0.119673
     18          6           0        2.538419    2.988427   -0.371297
     19          6           0        2.129312    4.333413   -0.733515
     20          6           0        3.286194    5.147211   -0.560079
     21          6           0        4.414556    4.194163   -0.215658
     22          6           0        0.729627    4.695704   -1.048629
     23          6           0        3.475071    6.638085   -0.723469
     24          8           0        4.627752    7.127093   -0.557450
     25          6           0        2.341646    7.607064   -1.128829
     26          7           0        6.908377    2.211927    0.111937
     27          6           0        6.915808    3.594552    0.166172
     28          6           0        8.342857    4.144342    0.233151
     29          6           0        9.130823    2.811860    0.603846
     30          6           0        8.183892    1.703068    0.316227
     31          6           0        8.801398    4.825969   -1.049471
     32          6           0        9.633390    2.988301    2.091003
     33          6           0       11.163488    2.893604    2.243725
     34          7           0        6.394847   -0.534499    0.089453
     35          6           0        7.762282   -0.747390    0.064282
     36          6           0        8.117004   -2.113251    0.102123
     37          6           0        6.908597   -2.755597    0.018026
     38          6           0        5.825247   -1.727237    0.003622
     39          6           0        9.481569   -2.789285    0.165814
     40          6           0        6.258097   -4.021184   -0.007255
     41          8           0        6.749213   -5.134566   -0.025783
     42          6           0        4.655276   -3.784321   -0.034541
     43          6           0        4.008671   -4.441311   -1.232714
     44          8           0        3.633798   -3.870990   -2.203121
     45          8           0        3.881017   -5.817981   -1.007648
     46          6           0        3.198389   -6.459571   -2.128684
     47          6           0       -1.929034   -4.153843   -0.465628
     48          6           0       -2.955934   -3.039846   -0.443117
     49          6           0       -4.071715   -2.935949   -1.159015
     50          6           0       -4.413590   -3.863837   -2.319317
     51          6           0       -5.100918   -1.800356   -0.763826
     52          6           0       -6.152760   -2.135190    0.297965
     53          6           0       -6.330348   -1.128881    1.486616
     54          6           0       -7.777875   -1.275881    2.119245
     55          6           0       -7.916739   -1.071321    3.662106
     56          6           0       -8.675343   -0.321748    1.301690
     57          6           0      -10.057963   -0.900140    0.891310
     58          6           0      -11.166403   -0.219834    1.613808
     59          6           0      -11.999803    0.827306    0.863179
     60          6           0      -12.711698    1.895705    1.726055
     61          6           0      -13.072400    0.239341    0.014908
     62          6           0      -13.572514    1.204451   -1.074956
     63          6           0      -15.117015    1.505706   -0.883916
     64          6           0      -15.511711    2.936639   -1.247672
     65          6           0      -15.831123    3.711081    0.086566
     66          6           0      -16.718208    2.948021   -2.216949
     67          1           0        0.699206    1.898512   -0.432230
     68          1           0        6.057262    5.517605    0.085530
     69          1           0        9.653250    0.224910    0.471270
     70          1           0        1.640600   -2.649443   -0.561744
     71          1           0        0.549036   -0.502369    0.936161
     72          1           0       -0.296952   -1.846824   -1.334457
     73          1           0        0.424378   -0.393164   -2.013375
     74          1           0       -0.969449   -0.327415   -0.924874
     75          1           0        1.492972   -1.888406    2.354989
     76          1           0        2.794214   -2.841663    2.011505
     77          1           0        0.442566   -4.010451    2.552634
     78          1           0        1.886898   -4.723263    1.893496
     79          1           0       -0.017797    3.936901   -0.816272
     80          1           0        0.597829    4.864663   -2.118174
     81          1           0        0.463361    5.662923   -0.623180
     82          1           0        1.707935    7.240664   -1.935298
     83          1           0        2.902358    8.488021   -1.440345
     84          1           0        1.864689    7.664233   -0.150363
     85          1           0        8.293193    4.866365    1.048980
     86          1           0        9.986356    2.643494   -0.051899
     87          1           0        9.835247    4.555220   -1.264311
     88          1           0        8.795610    5.889048   -0.809720
     89          1           0        8.147013    4.549507   -1.876642
     90          1           0        9.104577    2.226283    2.663408
     91          1           0        9.314978    3.935886    2.524282
     92          1           0       11.735476    3.255217    1.389278
     93          1           0       11.374686    1.832975    2.378238
     94          1           0       11.302186    3.440262    3.176685
     95          1           0        9.263291   -3.782544    0.559521
     96          1           0       10.126040   -2.256863    0.865742
     97          1           0       10.015541   -2.751973   -0.783383
     98          1           0        4.169630   -4.249912    0.822819
     99          1           0        2.234536   -6.035813   -2.413059
    100          1           0        2.895378   -7.415004   -1.699196
    101          1           0        3.836097   -6.671264   -2.986528
    102          1           0       -2.450338   -5.086083   -0.250922
    103          1           0       -1.282377   -4.217243   -1.340798
    104          1           0       -2.831131   -2.317522    0.363600
    105          1           0       -4.376365   -3.252419   -3.221132
    106          1           0       -5.414961   -4.224126   -2.083726
    107          1           0       -3.691206   -4.667867   -2.457690
    108          1           0       -5.625944   -1.451521   -1.652323
    109          1           0       -4.549459   -0.884589   -0.549532
    110          1           0       -5.972061   -3.139502    0.680800
    111          1           0       -7.093571   -2.178764   -0.250438
    112          1           0       -6.177868   -0.136408    1.063856
    113          1           0       -5.602491   -1.333336    2.271608
    114          1           0       -8.083655   -2.313790    1.987831
    115          1           0       -8.739312   -0.418623    3.954408
    116          1           0       -7.011266   -0.512018    3.895982
    117          1           0       -7.736965   -2.028515    4.152464
    118          1           0       -8.260843   -0.115089    0.314316
    119          1           0       -8.752431    0.635524    1.817639
    120          1           0      -10.210565   -1.955371    1.114623
    121          1           0      -10.249698   -0.772286   -0.173451
    122          1           0      -10.745382    0.166309    2.542465
    123          1           0      -11.972961   -0.876423    1.937774
    124          1           0      -11.389223    1.455000    0.214964
    125          1           0      -13.638239    1.431155    2.063949
    126          1           0      -12.770665    2.809066    1.133255
    127          1           0      -12.121382    2.073911    2.624740
    128          1           0      -13.785176   -0.171839    0.728903
    129          1           0      -12.592537   -0.619835   -0.452876
    130          1           0      -13.494472    0.674240   -2.024261
    131          1           0      -12.996836    2.118582   -1.223281
    132          1           0      -15.549870    1.104799    0.033459
    133          1           0      -15.553902    0.839987   -1.628236
    134          1           0      -14.715590    3.384114   -1.843690
    135          1           0      -15.177850    4.583311    0.130659
    136          1           0      -15.534436    3.201560    1.003679
    137          1           0      -16.901568    3.879055    0.199582
    138          1           0      -17.696603    3.085468   -1.756837
    139          1           0      -16.818041    1.982444   -2.712301
    140          1           0      -16.515466    3.687114   -2.992340
 ---------------------------------------------------------------------

 SCF Done:  E(RZINDO/S) =  -474.383115411     A.U. after   19 cycles

 Excitation energies and oscillator strengths:

 Excited State   1:      Singlet-A      1.2035 eV 1030.21 nm  f=0.6530  <S**2>=0.000
     175 ->178         0.18573
     176 ->177         0.66509
 This state for optimization and/or second-order correction.
 Total Energy, E(CIS/TDA) =  -474.338888293
 Copying the excited state density for this state as the 1-particle RhoCI density.

 Excited State   2:      Singlet-A      1.9119 eV  648.49 nm  f=0.0702  <S**2>=0.000
     175 ->177         0.56468
     176 ->178        -0.40015

 Excited State   3:      Singlet-A      2.9170 eV  425.04 nm  f=0.0006  <S**2>=0.000
     168 ->177         0.37878
     168 ->179        -0.35199
     168 ->180         0.26602
     168 ->186        -0.15716
     170 ->177        -0.11957

 Excited State   4:      Singlet-A      2.9464 eV  420.80 nm  f=0.0127  <S**2>=0.000
     169 ->177         0.24345
     169 ->179         0.29549
     169 ->180         0.31942
     169 ->186         0.16487
     169 ->188         0.11426
     170 ->177         0.13867
     170 ->179         0.18840
     170 ->180         0.18365
     170 ->186         0.10187
     176 ->179         0.14332

 Excited State   5:      Singlet-A      2.9901 eV  414.64 nm  f=0.7587  <S**2>=0.000
     171 ->177         0.10603
     174 ->177         0.10975
     175 ->177         0.31249
     176 ->178         0.48673
     176 ->179         0.32512

 The electronic state is 1-A.
 Alpha  occ. eigenvalues --   -1.84195  -1.81421  -1.78420  -1.77624  -1.71882
 Alpha  occ. eigenvalues --   -1.70083  -1.67969  -1.60976  -1.57634  -1.55662
 Alpha  occ. eigenvalues --   -1.54961  -1.51909  -1.49717  -1.48050  -1.46148
 Alpha  occ. eigenvalues --   -1.44590  -1.43387  -1.40307  -1.39460  -1.37944
 Alpha  occ. eigenvalues --   -1.35634  -1.33841  -1.32323  -1.31042  -1.28442
 Alpha  occ. eigenvalues --   -1.27759  -1.24225  -1.21166  -1.20280  -1.17991
 Alpha  occ. eigenvalues --   -1.16789  -1.16516  -1.15426  -1.14906  -1.13340
 Alpha  occ. eigenvalues --   -1.12131  -1.10051  -1.09544  -1.05623  -1.03622
 Alpha  occ. eigenvalues --   -1.03239  -1.01902  -0.98550  -0.97665  -0.96713
 Alpha  occ. eigenvalues --   -0.96304  -0.95041  -0.94119  -0.92300  -0.92113
 Alpha  occ. eigenvalues --   -0.91424  -0.90098  -0.89800  -0.88330  -0.86558
 Alpha  occ. eigenvalues --   -0.85883  -0.84294  -0.83118  -0.82610  -0.80124
 Alpha  occ. eigenvalues --   -0.79194  -0.78089  -0.77872  -0.77100  -0.75432
 Alpha  occ. eigenvalues --   -0.75255  -0.74973  -0.74302  -0.73727  -0.73025
 Alpha  occ. eigenvalues --   -0.72258  -0.72123  -0.71087  -0.70800  -0.70572
 Alpha  occ. eigenvalues --   -0.70046  -0.69225  -0.68881  -0.68426  -0.68170
 Alpha  occ. eigenvalues --   -0.67364  -0.66900  -0.66232  -0.65940  -0.65625
 Alpha  occ. eigenvalues --   -0.65002  -0.64810  -0.64444  -0.64251  -0.63823
 Alpha  occ. eigenvalues --   -0.62816  -0.62672  -0.62499  -0.62191  -0.61559
 Alpha  occ. eigenvalues --   -0.61270  -0.60714  -0.60529  -0.60337  -0.60015
 Alpha  occ. eigenvalues --   -0.59546  -0.59515  -0.59364  -0.58737  -0.57982
 Alpha  occ. eigenvalues --   -0.57806  -0.57371  -0.56895  -0.56617  -0.56098
 Alpha  occ. eigenvalues --   -0.55950  -0.55805  -0.55216  -0.55168  -0.54802
 Alpha  occ. eigenvalues --   -0.54658  -0.54142  -0.53493  -0.53102  -0.52811
 Alpha  occ. eigenvalues --   -0.52511  -0.51949  -0.51777  -0.51579  -0.51394
 Alpha  occ. eigenvalues --   -0.51104  -0.50674  -0.50657  -0.50369  -0.50086
 Alpha  occ. eigenvalues --   -0.49856  -0.49613  -0.49408  -0.49328  -0.49067
 Alpha  occ. eigenvalues --   -0.48891  -0.48186  -0.48126  -0.47717  -0.47654
 Alpha  occ. eigenvalues --   -0.47278  -0.46785  -0.46736  -0.46525  -0.46221
 Alpha  occ. eigenvalues --   -0.46161  -0.45608  -0.45488  -0.45172  -0.45101
 Alpha  occ. eigenvalues --   -0.45024  -0.44750  -0.44210  -0.43675  -0.43374
 Alpha  occ. eigenvalues --   -0.42960  -0.42565  -0.42419  -0.42062  -0.41979
 Alpha  occ. eigenvalues --   -0.41901  -0.41397  -0.41320  -0.38634  -0.38307
 Alpha  occ. eigenvalues --   -0.38060  -0.36740  -0.35094  -0.34728  -0.34141
 Alpha  occ. eigenvalues --   -0.33571  -0.32710  -0.32413  -0.32068  -0.26512
 Alpha  occ. eigenvalues --   -0.21472
 Alpha virt. eigenvalues --   -0.08663  -0.01523  -0.00300   0.01362   0.02530
 Alpha virt. eigenvalues --    0.02997   0.03303   0.03442   0.05024   0.05216
 Alpha virt. eigenvalues --    0.06499   0.06735   0.07399   0.07763   0.08290

 Mulliken charges:
               1
     1  Mg   0.426919
     2  C   -0.061116
     3  C   -0.074253
     4  C   -0.063369
     5  C   -0.069643
     6  N   -0.275533
     7  C    0.159354
     8  C    0.001172
     9  C    0.007618
    10  C    0.117088
    11  C   -0.056372
    12  C   -0.015889
    13  C    0.008703
    14  C    0.481433
    15  O   -0.513657
    16  O   -0.278506
    17  N   -0.319279
    18  C    0.084885
    19  C    0.012237
    20  C   -0.054131
    21  C    0.122082
    22  C   -0.037182
    23  C    0.316397
    24  O   -0.553235
    25  C   -0.034539
    26  N   -0.278478
    27  C    0.123906
    28  C   -0.004180
    29  C    0.000403
    30  C    0.142461
    31  C   -0.046827
    32  C   -0.032059
    33  C   -0.059813
    34  N   -0.319014
    35  C    0.113895
    36  C    0.048069
    37  C   -0.050111
    38  C    0.115703
    39  C   -0.037215
    40  C    0.331800
    41  O   -0.512590
    42  C    0.046187
    43  C    0.484731
    44  O   -0.498037
    45  O   -0.264697
    46  C    0.075026
    47  C    0.108122
    48  C   -0.086727
    49  C   -0.015763
    50  C   -0.041678
    51  C   -0.025328
    52  C   -0.027915
    53  C   -0.032395
    54  C   -0.016442
    55  C   -0.066192
    56  C   -0.030132
    57  C   -0.032568
    58  C   -0.032117
    59  C   -0.015206
    60  C   -0.064684
    61  C   -0.027197
    62  C   -0.036189
    63  C   -0.041025
    64  C   -0.008402
    65  C   -0.061360
    66  C   -0.060897
    67  H    0.012218
    68  H    0.048609
    69  H    0.024706
    70  H    0.043938
    71  H    0.022895
    72  H    0.022998
    73  H    0.021909
    74  H    0.020330
    75  H    0.031634
    76  H    0.015756
    77  H    0.028341
    78  H    0.039574
    79  H    0.027759
    80  H    0.026498
    81  H    0.023627
    82  H    0.038537
    83  H    0.046257
    84  H    0.049721
    85  H    0.034172
    86  H    0.027655
    87  H    0.015735
    88  H    0.024629
    89  H    0.034193
    90  H    0.019629
    91  H    0.023454
    92  H    0.031089
    93  H    0.018026
    94  H    0.022898
    95  H    0.041664
    96  H    0.021334
    97  H    0.041771
    98  H    0.057928
    99  H    0.051679
   100  H    0.016428
   101  H    0.047037
   102  H    0.044941
   103  H    0.064025
   104  H    0.026429
   105  H    0.030874
   106  H    0.031834
   107  H    0.027345
   108  H    0.010469
   109  H    0.019598
   110  H    0.020845
   111  H    0.016952
   112  H    0.025052
   113  H    0.017957
   114  H    0.018278
   115  H    0.036594
   116  H    0.007606
   117  H    0.027827
   118  H    0.011089
   119  H    0.025452
   120  H    0.019742
   121  H    0.017880
   122  H    0.011539
   123  H    0.008434
   124  H    0.008196
   125  H    0.023527
   126  H    0.027964
   127  H    0.007772
   128  H    0.026512
   129  H    0.002355
   130  H    0.011888
   131  H    0.029286
   132  H    0.028150
   133  H    0.004669
   134  H    0.026766
   135  H    0.017678
   136  H    0.014491
   137  H    0.027686
   138  H    0.021592
   139  H    0.013568
   140  H    0.016265
 Sum of Mulliken charges =   0.00000

 Dipole moment (field-independent basis, Debye):
    X=             -5.1729    Y=              1.9698    Z=              3.8732  Tot=              6.7558
 N-N= 4.300208301303D+03 E-N= 0.000000000000D+00  KE=-9.275364555644D+03
 Leave Link  601 at Wed Apr 27 21:52:29 2022, MaxMem=  6710886400 cpu:               1.1 elap:               0.1
 (Enter /sw/apps/gaussian-16.0/g16/l9999.exe)
 1\1\GINC-BP1-COMPUTE147\SP\RZINDO CIS\STO-3G\C55H74Mg1N4O6\OF15641\27-
 Apr-2022\0\\#p ZINDO=(nstates=5)\\step_1301_chromophore_18 ZINDO\\0,1\
 Mg,0,34.029,49.288,24.89\C,0,34.005,47.485,27.906\C,0,32.516,51.88,26.
 516\C,0,33.762,50.789,21.924\C,0,35.295,46.317,23.344\N,0,33.536,49.68
 7,27.024\C,0,33.657,48.83,28.04\C,0,33.546,49.571,29.366\C,0,32.926,50
 .923,28.885\C,0,32.922,50.85,27.378\C,0,31.555,51.301,29.547\C,0,34.88
 9,49.647,30.128\C,0,34.847,49.288,31.625\C,0,33.566,49.304,32.421\O,0,

 Normal termination of Gaussian 16 at Wed Apr 27 21:52:30 2022.
