 Gaussian 16, Revision A.03,
 Gaussian 16:  ES64L-G16RevA.03 25-Dec-2016

 ------------------------------
 #p blyp/Def2SVP td=(nstates=5)
 ------------------------------

 --------------------------------------------------
 step_601_chromophore_15 TDDFT with blyp functional
 --------------------------------------------------
 Symbolic Z-matrix:
 Charge =  0 Multiplicity = 1

                         Standard orientation:
 ---------------------------------------------------------------------
 Center     Atomic      Atomic             Coordinates (Angstroms)
 Number     Number       Type             X           Y           Z
 ---------------------------------------------------------------------
      1         12           0       -4.768009    1.074321    0.121408
      2          6           0       -4.476443   -2.489879    0.699057
      3          6           0       -1.281449    1.057971    0.080191
      4          6           0       -4.905672    4.394057    0.107915
      5          6           0       -8.183878    0.842155    0.570268
      6          7           0       -3.096659   -0.505764    0.197204
      7          6           0       -3.282651   -1.869377    0.444985
      8          6           0       -1.897965   -2.521260    0.228423
      9          6           0       -0.788493   -1.419736    0.338726
     10          6           0       -1.740889   -0.201899    0.178949
     11          6           0       -0.059190   -1.442032    1.669641
     12          6           0       -1.930154   -3.369141   -1.088293
     13          6           0       -0.770176   -3.392289   -2.103480
     14          6           0        0.661556   -3.739937   -1.637156
     15          8           0        1.088400   -3.894383   -0.515011
     16          8           0        1.406318   -3.791438   -2.787450
     17          7           0       -3.242704    2.513209   -0.043879
     18          6           0       -1.904502    2.341109   -0.087995
     19          6           0       -1.304745    3.648752   -0.293893
     20          6           0       -2.356323    4.655244   -0.265370
     21          6           0       -3.580197    3.863813   -0.045916
     22          6           0        0.202039    3.801220   -0.214359
     23          6           0       -2.327548    6.159289   -0.431353
     24          8           0       -3.315970    6.942150   -0.405228
     25          6           0       -0.949379    6.858813   -0.692234
     26          7           0       -6.302569    2.389909    0.557282
     27          6           0       -6.099851    3.789388    0.382362
     28          6           0       -7.470183    4.503490    0.402586
     29          6           0       -8.500006    3.320445    0.398711
     30          6           0       -7.667707    2.133218    0.610846
     31          6           0       -7.597153    5.329832    1.715592
     32          6           0       -9.235814    3.284868   -0.944632
     33          6           0      -10.760940    3.143042   -0.935462
     34          7           0       -6.042181   -0.502420    0.537671
     35          6           0       -7.436341   -0.385415    0.700587
     36          6           0       -7.935297   -1.762540    0.796606
     37          6           0       -6.785820   -2.587790    0.926768
     38          6           0       -5.676043   -1.805086    0.777741
     39          6           0       -9.395996   -2.247466    0.701248
     40          6           0       -6.403078   -3.930247    1.141878
     41          8           0       -7.117538   -4.923538    1.361199
     42          6           0       -4.859050   -3.949549    1.195304
     43          6           0       -4.266209   -5.067351    0.448659
     44          8           0       -4.583099   -5.496206   -0.650575
     45          8           0       -3.267871   -5.683141    1.245060
     46          6           0       -2.684784   -6.944412    0.753262
     47          6           0        2.764878   -4.305419   -2.736218
     48          6           0        3.691493   -3.068868   -2.512775
     49          6           0        4.368593   -2.794528   -1.409522
     50          6           0        4.429033   -3.501853   -0.073755
     51          6           0        5.080097   -1.478471   -1.358493
     52          6           0        6.463353   -1.591198   -2.008014
     53          6           0        6.773813   -0.512523   -3.085477
     54          6           0        7.705531    0.594654   -2.563281
     55          6           0        7.657398    1.868708   -3.501818
     56          6           0        9.162060    0.159102   -2.441416
     57          6           0        9.755323    0.719992   -1.085920
     58          6           0       10.684018    1.909212   -1.422592
     59          6           0       11.156304    2.752826   -0.221012
     60          6           0       11.754891    4.175409   -0.617542
     61          6           0       12.133582    1.866585    0.736847
     62          6           0       11.404879    1.366412    1.964719
     63          6           0       12.043295    0.090968    2.633359
     64          6           0       12.042617    0.127633    4.172695
     65          6           0       13.267594   -0.523084    4.773657
     66          6           0       10.793982   -0.524868    4.742308
     67          1           0       -0.198035    1.184145    0.130099
     68          1           0       -5.085679    5.464716   -0.011943
     69          1           0       -9.263720    0.698174    0.649206
     70          1           0       -1.775076   -3.258657    1.020766
     71          1           0       -0.036420   -1.386573   -0.450239
     72          1           0        0.937914   -1.809552    1.427934
     73          1           0       -0.531090   -2.122595    2.378787
     74          1           0        0.103008   -0.491039    2.176270
     75          1           0       -2.777011   -3.024676   -1.681782
     76          1           0       -2.063008   -4.402900   -0.769395
     77          1           0       -0.732001   -2.363256   -2.460161
     78          1           0       -1.160795   -3.991501   -2.926765
     79          1           0        0.553180    4.546295    0.498565
     80          1           0        0.620466    4.197720   -1.139605
     81          1           0        0.824632    2.958587    0.084247
     82          1           0       -1.098981    7.909358   -0.941695
     83          1           0       -0.512657    6.297761   -1.518207
     84          1           0       -0.296265    6.823091    0.180100
     85          1           0       -7.484231    5.194841   -0.439660
     86          1           0       -9.216315    3.374729    1.217972
     87          1           0       -7.056270    6.263399    1.558666
     88          1           0       -6.964119    4.774414    2.407587
     89          1           0       -8.656081    5.403690    1.961889
     90          1           0       -8.900089    2.401122   -1.486247
     91          1           0       -8.837454    4.055879   -1.604383
     92          1           0      -11.151432    3.159375    0.082126
     93          1           0      -11.140460    2.285037   -1.490993
     94          1           0      -11.058430    4.053513   -1.455319
     95          1           0       -9.529078   -3.315233    0.876169
     96          1           0       -9.889348   -2.035784   -0.248289
     97          1           0       -9.932512   -1.762338    1.517328
     98          1           0       -4.669361   -4.039063    2.264745
     99          1           0       -3.224185   -7.399781   -0.076357
    100          1           0       -2.407299   -7.745376    1.438926
    101          1           0       -1.729600   -6.576340    0.379698
    102          1           0        2.903915   -4.657084   -3.758132
    103          1           0        2.919321   -5.055734   -1.961064
    104          1           0        3.910127   -2.415487   -3.356970
    105          1           0        5.441630   -3.836193    0.151939
    106          1           0        3.837502   -4.415923   -0.112420
    107          1           0        3.943546   -2.831182    0.633721
    108          1           0        5.178935   -1.054550   -0.358954
    109          1           0        4.440336   -0.776011   -1.891658
    110          1           0        6.647989   -2.601750   -2.372498
    111          1           0        7.246822   -1.656955   -1.251846
    112          1           0        5.864675    0.017701   -3.370570
    113          1           0        7.183123   -1.105177   -3.903463
    114          1           0        7.256602    0.836256   -1.599740
    115          1           0        6.823262    1.928717   -4.200595
    116          1           0        8.490257    1.802530   -4.202387
    117          1           0        7.649901    2.756444   -2.869608
    118          1           0        9.838378    0.525497   -3.212533
    119          1           0        9.183289   -0.924658   -2.557625
    120          1           0       10.147340   -0.030174   -0.398879
    121          1           0        8.902897    1.095933   -0.520560
    122          1           0       10.240463    2.390589   -2.293346
    123          1           0       11.605375    1.367269   -1.638226
    124          1           0       10.287192    3.065248    0.357267
    125          1           0       12.094368    4.067251   -1.647198
    126          1           0       12.653898    4.387902   -0.039561
    127          1           0       11.067755    5.013447   -0.501304
    128          1           0       13.055525    2.379626    1.012722
    129          1           0       12.476851    0.968822    0.222757
    130          1           0       10.400414    1.056814    1.673481
    131          1           0       11.419350    2.151613    2.720601
    132          1           0       13.079430    0.134366    2.300031
    133          1           0       11.570695   -0.779402    2.178571
    134          1           0       12.087785    1.180248    4.452521
    135          1           0       13.832669    0.353042    5.090716
    136          1           0       13.824847   -1.006681    3.971455
    137          1           0       12.968526   -1.187318    5.585690
    138          1           0        9.948241   -0.075490    4.223337
    139          1           0       10.546324   -0.160838    5.739838
    140          1           0       10.796792   -1.605764    4.880200
 ---------------------------------------------------------------------

 SCF Done:  E(RB-LYP) =  -3007.36483719     A.U. after   21 cycles

 Excitation energies and oscillator strengths:

 Excited State   1:      Singlet-A      1.6724 eV  741.36 nm  f=0.0039  <S**2>=0.000
     244 -> 247        0.69143
     245 -> 247        0.10635
 This state for optimization and/or second-order correction.
 Total Energy, E(TD-HF/TD-DFT) =  -3007.30337763
 Copying the excited state density for this state as the 1-particle RhoCI density.

 Excited State   2:      Singlet-A      1.7460 eV  710.11 nm  f=0.0176  <S**2>=0.000
     243 -> 247        0.61234
     244 -> 247       -0.11526
     245 -> 247        0.28641
     246 -> 247        0.15919

 Excited State   3:      Singlet-A      1.7785 eV  697.13 nm  f=0.3245  <S**2>=0.000
     243 -> 247       -0.14057
     245 -> 248        0.13021
     245 -> 249       -0.10336
     246 -> 247        0.67738
     246 <- 247       -0.16412

 Excited State   4:      Singlet-A      2.0033 eV  618.91 nm  f=0.0899  <S**2>=0.000
     241 -> 247        0.10672
     243 -> 247       -0.31057
     245 -> 247        0.57847
     246 -> 248       -0.15507
     246 -> 249        0.12144

 Excited State   5:      Singlet-A      2.2887 eV  541.73 nm  f=0.0060  <S**2>=0.000
     240 -> 247       -0.47373
     242 -> 247        0.51382

 The electronic state is 1-A.
 Alpha  occ. eigenvalues --  -46.26735 -18.81908 -18.81628 -18.78156 -18.77110
 Alpha  occ. eigenvalues --  -18.75639 -18.75342 -14.03220 -14.03134 -14.01369
 Alpha  occ. eigenvalues --  -14.00921 -10.04914 -10.04159 -10.00366  -9.99155
 Alpha  occ. eigenvalues --   -9.98514  -9.97266  -9.96762  -9.96747  -9.96496
 Alpha  occ. eigenvalues --   -9.96380  -9.96330  -9.96055  -9.95838  -9.94759
 Alpha  occ. eigenvalues --   -9.94660  -9.94358  -9.94224  -9.94206  -9.93866
 Alpha  occ. eigenvalues --   -9.93856  -9.93774  -9.93743  -9.93522  -9.93357
 Alpha  occ. eigenvalues --   -9.93336  -9.93053  -9.92634  -9.92519  -9.92499
 Alpha  occ. eigenvalues --   -9.92497  -9.92496  -9.92413  -9.92320  -9.92244
 Alpha  occ. eigenvalues --   -9.92212  -9.92207  -9.91994  -9.91786  -9.91607
 Alpha  occ. eigenvalues --   -9.91572  -9.91562  -9.91533  -9.91529  -9.91519
 Alpha  occ. eigenvalues --   -9.91473  -9.91344  -9.91327  -9.91308  -9.91172
 Alpha  occ. eigenvalues --   -9.91023  -9.90903  -9.90890  -9.90679  -9.90595
 Alpha  occ. eigenvalues --   -9.90405  -2.91374  -1.71806  -1.71252  -1.71086
 Alpha  occ. eigenvalues --   -0.98413  -0.96441  -0.91211  -0.90130  -0.89479
 Alpha  occ. eigenvalues --   -0.89218  -0.85730  -0.85189  -0.84673  -0.83936
 Alpha  occ. eigenvalues --   -0.75998  -0.74298  -0.73090  -0.72878  -0.72500
 Alpha  occ. eigenvalues --   -0.72091  -0.71832  -0.71195  -0.70851  -0.69747
 Alpha  occ. eigenvalues --   -0.69265  -0.69031  -0.67982  -0.67707  -0.67445
 Alpha  occ. eigenvalues --   -0.66580  -0.65894  -0.65230  -0.65118  -0.64087
 Alpha  occ. eigenvalues --   -0.64009  -0.62721  -0.62191  -0.62023  -0.61033
 Alpha  occ. eigenvalues --   -0.60735  -0.60345  -0.59867  -0.59497  -0.59006
 Alpha  occ. eigenvalues --   -0.58580  -0.57878  -0.56718  -0.55438  -0.54558
 Alpha  occ. eigenvalues --   -0.54052  -0.53676  -0.52950  -0.52813  -0.51949
 Alpha  occ. eigenvalues --   -0.51057  -0.50983  -0.50860  -0.50432  -0.50183
 Alpha  occ. eigenvalues --   -0.49257  -0.48706  -0.48619  -0.48444  -0.46452
 Alpha  occ. eigenvalues --   -0.46326  -0.46046  -0.45679  -0.45299  -0.44899
 Alpha  occ. eigenvalues --   -0.44458  -0.43908  -0.43463  -0.42812  -0.42586
 Alpha  occ. eigenvalues --   -0.41955  -0.41680  -0.41498  -0.41293  -0.41077
 Alpha  occ. eigenvalues --   -0.40872  -0.40587  -0.40453  -0.40103  -0.39797
 Alpha  occ. eigenvalues --   -0.39617  -0.39485  -0.39172  -0.38987  -0.38862
 Alpha  occ. eigenvalues --   -0.38848  -0.38681  -0.38597  -0.38543  -0.38257
 Alpha  occ. eigenvalues --   -0.38206  -0.37987  -0.37744  -0.37382  -0.37128
 Alpha  occ. eigenvalues --   -0.37072  -0.36897  -0.36807  -0.36573  -0.36538
 Alpha  occ. eigenvalues --   -0.36170  -0.36074  -0.36000  -0.35857  -0.35727
 Alpha  occ. eigenvalues --   -0.35458  -0.35252  -0.35121  -0.34746  -0.34672
 Alpha  occ. eigenvalues --   -0.34372  -0.34262  -0.34143  -0.34069  -0.33977
 Alpha  occ. eigenvalues --   -0.33743  -0.33634  -0.33537  -0.33373  -0.33161
 Alpha  occ. eigenvalues --   -0.33068  -0.32857  -0.32500  -0.32395  -0.32141
 Alpha  occ. eigenvalues --   -0.31961  -0.31912  -0.31700  -0.31441  -0.31378
 Alpha  occ. eigenvalues --   -0.31252  -0.31069  -0.31046  -0.30992  -0.30360
 Alpha  occ. eigenvalues --   -0.30274  -0.30156  -0.30036  -0.29889  -0.29699
 Alpha  occ. eigenvalues --   -0.29580  -0.29416  -0.29199  -0.29097  -0.29075
 Alpha  occ. eigenvalues --   -0.29041  -0.28509  -0.28456  -0.27771  -0.27271
 Alpha  occ. eigenvalues --   -0.27115  -0.26883  -0.26599  -0.26596  -0.26455
 Alpha  occ. eigenvalues --   -0.26306  -0.26211  -0.26010  -0.25771  -0.25482
 Alpha  occ. eigenvalues --   -0.24743  -0.24476  -0.24335  -0.24258  -0.23753
 Alpha  occ. eigenvalues --   -0.23356  -0.22931  -0.22728  -0.22122  -0.20743
 Alpha  occ. eigenvalues --   -0.20650  -0.20117  -0.18720  -0.18413  -0.17645
 Alpha  occ. eigenvalues --   -0.16305
 Alpha virt. eigenvalues --   -0.12318  -0.07092  -0.06019  -0.05213  -0.03604
 Alpha virt. eigenvalues --   -0.03220  -0.02416  -0.01922  -0.01600   0.00388
 Alpha virt. eigenvalues --    0.01019   0.01720   0.02344   0.02975   0.03122

 Mulliken charges:
               1
     1  Mg   0.687709
     2  C   -0.009055
     3  C   -0.012575
     4  C   -0.011723
     5  C   -0.067559
     6  N   -0.214965
     7  C   -0.096924
     8  C    0.050059
     9  C    0.022514
    10  C    0.021651
    11  C    0.132520
    12  C    0.097476
    13  C    0.075328
    14  C    0.109845
    15  O   -0.176122
    16  O   -0.274876
    17  N   -0.282224
    18  C    0.079281
    19  C   -0.085605
    20  C    0.047393
    21  C    0.114530
    22  C    0.129640
    23  C   -0.054950
    24  O   -0.194506
    25  C    0.103695
    26  N   -0.299896
    27  C    0.003259
    28  C   -0.017819
    29  C    0.078923
    30  C    0.045330
    31  C    0.131339
    32  C    0.084779
    33  C    0.074930
    34  N   -0.307280
    35  C    0.121629
    36  C   -0.170052
    37  C    0.104120
    38  C    0.108820
    39  C    0.153769
    40  C   -0.076668
    41  O   -0.148677
    42  C    0.131575
    43  C    0.113230
    44  O   -0.161429
    45  O   -0.308675
    46  C    0.207464
    47  C    0.355457
    48  C   -0.117906
    49  C   -0.157604
    50  C    0.180554
    51  C    0.133486
    52  C    0.055906
    53  C    0.117820
    54  C   -0.086582
    55  C    0.108803
    56  C    0.129904
    57  C    0.024947
    58  C    0.103113
    59  C   -0.059253
    60  C    0.096322
    61  C    0.083849
    62  C    0.046178
    63  C    0.087565
    64  C   -0.099099
    65  C    0.142094
    66  C    0.114370
    67  H   -0.083322
    68  H   -0.047109
    69  H   -0.054190
    70  H   -0.037305
    71  H   -0.021730
    72  H   -0.003711
    73  H   -0.006862
    74  H   -0.016605
    75  H   -0.015289
    76  H    0.001082
    77  H    0.001595
    78  H    0.015268
    79  H   -0.008996
    80  H   -0.008406
    81  H   -0.009474
    82  H   -0.004499
    83  H    0.002346
    84  H    0.011170
    85  H   -0.011155
    86  H   -0.029910
    87  H    0.000764
    88  H   -0.004920
    89  H    0.004210
    90  H   -0.028611
    91  H   -0.024558
    92  H   -0.006004
    93  H    0.002718
    94  H   -0.005025
    95  H    0.003990
    96  H    0.005502
    97  H   -0.004222
    98  H    0.016094
    99  H    0.023677
   100  H    0.017702
   101  H    0.006234
   102  H   -0.020546
   103  H   -0.000208
   104  H   -0.040830
   105  H   -0.003658
   106  H   -0.026890
   107  H    0.012760
   108  H   -0.037243
   109  H   -0.026032
   110  H   -0.038307
   111  H   -0.041596
   112  H   -0.032038
   113  H   -0.032975
   114  H   -0.029826
   115  H   -0.029751
   116  H   -0.018961
   117  H   -0.003132
   118  H   -0.030415
   119  H   -0.045718
   120  H   -0.022968
   121  H   -0.038134
   122  H   -0.017318
   123  H   -0.028971
   124  H   -0.035766
   125  H   -0.022197
   126  H   -0.024807
   127  H   -0.005131
   128  H   -0.032166
   129  H   -0.032849
   130  H   -0.018935
   131  H   -0.032040
   132  H   -0.045175
   133  H   -0.026915
   134  H   -0.041986
   135  H   -0.020689
   136  H   -0.019414
   137  H   -0.016169
   138  H   -0.031181
   139  H   -0.036382
   140  H   -0.005039
 Sum of Mulliken charges =  -0.00000

 Dipole moment (field-independent basis, Debye):
    X=              3.6933    Y=              1.4092    Z=             -1.1756  Tot=              4.1241
 Quadrupole moment (field-independent basis, Debye-Ang):
   XX=           -390.1798   YY=           -434.8489   ZZ=           -404.5713
   XY=            -34.2878   XZ=              2.5237   YZ=              6.3949

 Normal termination of Gaussian 16 at Sat Apr 30 05:29:45 2022.
