 Gaussian 16, Revision A.03,
 Gaussian 16:  ES64L-G16RevA.03 25-Dec-2016

 -----------------------------------
 #p cam-b3lyp/Def2SVP td=(nstates=5)
 -----------------------------------

 -------------------------------------------------------
 step_601_chromophore_15 TDDFT with cam-b3lyp functional
 -------------------------------------------------------
 Symbolic Z-matrix:
 Charge =  0 Multiplicity = 1

                         Standard orientation:
 ---------------------------------------------------------------------
 Center     Atomic      Atomic             Coordinates (Angstroms)
 Number     Number       Type             X           Y           Z
 ---------------------------------------------------------------------
      1         12           0       -4.768009    1.074321    0.121408
      2          6           0       -4.476443   -2.489879    0.699057
      3          6           0       -1.281449    1.057971    0.080191
      4          6           0       -4.905672    4.394057    0.107915
      5          6           0       -8.183878    0.842155    0.570268
      6          7           0       -3.096659   -0.505764    0.197204
      7          6           0       -3.282651   -1.869377    0.444985
      8          6           0       -1.897965   -2.521260    0.228423
      9          6           0       -0.788493   -1.419736    0.338726
     10          6           0       -1.740889   -0.201899    0.178949
     11          6           0       -0.059190   -1.442032    1.669641
     12          6           0       -1.930154   -3.369141   -1.088293
     13          6           0       -0.770176   -3.392289   -2.103480
     14          6           0        0.661556   -3.739937   -1.637156
     15          8           0        1.088400   -3.894383   -0.515011
     16          8           0        1.406318   -3.791438   -2.787450
     17          7           0       -3.242704    2.513209   -0.043879
     18          6           0       -1.904502    2.341109   -0.087995
     19          6           0       -1.304745    3.648752   -0.293893
     20          6           0       -2.356323    4.655244   -0.265370
     21          6           0       -3.580197    3.863813   -0.045916
     22          6           0        0.202039    3.801220   -0.214359
     23          6           0       -2.327548    6.159289   -0.431353
     24          8           0       -3.315970    6.942150   -0.405228
     25          6           0       -0.949379    6.858813   -0.692234
     26          7           0       -6.302569    2.389909    0.557282
     27          6           0       -6.099851    3.789388    0.382362
     28          6           0       -7.470183    4.503490    0.402586
     29          6           0       -8.500006    3.320445    0.398711
     30          6           0       -7.667707    2.133218    0.610846
     31          6           0       -7.597153    5.329832    1.715592
     32          6           0       -9.235814    3.284868   -0.944632
     33          6           0      -10.760940    3.143042   -0.935462
     34          7           0       -6.042181   -0.502420    0.537671
     35          6           0       -7.436341   -0.385415    0.700587
     36          6           0       -7.935297   -1.762540    0.796606
     37          6           0       -6.785820   -2.587790    0.926768
     38          6           0       -5.676043   -1.805086    0.777741
     39          6           0       -9.395996   -2.247466    0.701248
     40          6           0       -6.403078   -3.930247    1.141878
     41          8           0       -7.117538   -4.923538    1.361199
     42          6           0       -4.859050   -3.949549    1.195304
     43          6           0       -4.266209   -5.067351    0.448659
     44          8           0       -4.583099   -5.496206   -0.650575
     45          8           0       -3.267871   -5.683141    1.245060
     46          6           0       -2.684784   -6.944412    0.753262
     47          6           0        2.764878   -4.305419   -2.736218
     48          6           0        3.691493   -3.068868   -2.512775
     49          6           0        4.368593   -2.794528   -1.409522
     50          6           0        4.429033   -3.501853   -0.073755
     51          6           0        5.080097   -1.478471   -1.358493
     52          6           0        6.463353   -1.591198   -2.008014
     53          6           0        6.773813   -0.512523   -3.085477
     54          6           0        7.705531    0.594654   -2.563281
     55          6           0        7.657398    1.868708   -3.501818
     56          6           0        9.162060    0.159102   -2.441416
     57          6           0        9.755323    0.719992   -1.085920
     58          6           0       10.684018    1.909212   -1.422592
     59          6           0       11.156304    2.752826   -0.221012
     60          6           0       11.754891    4.175409   -0.617542
     61          6           0       12.133582    1.866585    0.736847
     62          6           0       11.404879    1.366412    1.964719
     63          6           0       12.043295    0.090968    2.633359
     64          6           0       12.042617    0.127633    4.172695
     65          6           0       13.267594   -0.523084    4.773657
     66          6           0       10.793982   -0.524868    4.742308
     67          1           0       -0.198035    1.184145    0.130099
     68          1           0       -5.085679    5.464716   -0.011943
     69          1           0       -9.263720    0.698174    0.649206
     70          1           0       -1.775076   -3.258657    1.020766
     71          1           0       -0.036420   -1.386573   -0.450239
     72          1           0        0.937914   -1.809552    1.427934
     73          1           0       -0.531090   -2.122595    2.378787
     74          1           0        0.103008   -0.491039    2.176270
     75          1           0       -2.777011   -3.024676   -1.681782
     76          1           0       -2.063008   -4.402900   -0.769395
     77          1           0       -0.732001   -2.363256   -2.460161
     78          1           0       -1.160795   -3.991501   -2.926765
     79          1           0        0.553180    4.546295    0.498565
     80          1           0        0.620466    4.197720   -1.139605
     81          1           0        0.824632    2.958587    0.084247
     82          1           0       -1.098981    7.909358   -0.941695
     83          1           0       -0.512657    6.297761   -1.518207
     84          1           0       -0.296265    6.823091    0.180100
     85          1           0       -7.484231    5.194841   -0.439660
     86          1           0       -9.216315    3.374729    1.217972
     87          1           0       -7.056270    6.263399    1.558666
     88          1           0       -6.964119    4.774414    2.407587
     89          1           0       -8.656081    5.403690    1.961889
     90          1           0       -8.900089    2.401122   -1.486247
     91          1           0       -8.837454    4.055879   -1.604383
     92          1           0      -11.151432    3.159375    0.082126
     93          1           0      -11.140460    2.285037   -1.490993
     94          1           0      -11.058430    4.053513   -1.455319
     95          1           0       -9.529078   -3.315233    0.876169
     96          1           0       -9.889348   -2.035784   -0.248289
     97          1           0       -9.932512   -1.762338    1.517328
     98          1           0       -4.669361   -4.039063    2.264745
     99          1           0       -3.224185   -7.399781   -0.076357
    100          1           0       -2.407299   -7.745376    1.438926
    101          1           0       -1.729600   -6.576340    0.379698
    102          1           0        2.903915   -4.657084   -3.758132
    103          1           0        2.919321   -5.055734   -1.961064
    104          1           0        3.910127   -2.415487   -3.356970
    105          1           0        5.441630   -3.836193    0.151939
    106          1           0        3.837502   -4.415923   -0.112420
    107          1           0        3.943546   -2.831182    0.633721
    108          1           0        5.178935   -1.054550   -0.358954
    109          1           0        4.440336   -0.776011   -1.891658
    110          1           0        6.647989   -2.601750   -2.372498
    111          1           0        7.246822   -1.656955   -1.251846
    112          1           0        5.864675    0.017701   -3.370570
    113          1           0        7.183123   -1.105177   -3.903463
    114          1           0        7.256602    0.836256   -1.599740
    115          1           0        6.823262    1.928717   -4.200595
    116          1           0        8.490257    1.802530   -4.202387
    117          1           0        7.649901    2.756444   -2.869608
    118          1           0        9.838378    0.525497   -3.212533
    119          1           0        9.183289   -0.924658   -2.557625
    120          1           0       10.147340   -0.030174   -0.398879
    121          1           0        8.902897    1.095933   -0.520560
    122          1           0       10.240463    2.390589   -2.293346
    123          1           0       11.605375    1.367269   -1.638226
    124          1           0       10.287192    3.065248    0.357267
    125          1           0       12.094368    4.067251   -1.647198
    126          1           0       12.653898    4.387902   -0.039561
    127          1           0       11.067755    5.013447   -0.501304
    128          1           0       13.055525    2.379626    1.012722
    129          1           0       12.476851    0.968822    0.222757
    130          1           0       10.400414    1.056814    1.673481
    131          1           0       11.419350    2.151613    2.720601
    132          1           0       13.079430    0.134366    2.300031
    133          1           0       11.570695   -0.779402    2.178571
    134          1           0       12.087785    1.180248    4.452521
    135          1           0       13.832669    0.353042    5.090716
    136          1           0       13.824847   -1.006681    3.971455
    137          1           0       12.968526   -1.187318    5.585690
    138          1           0        9.948241   -0.075490    4.223337
    139          1           0       10.546324   -0.160838    5.739838
    140          1           0       10.796792   -1.605764    4.880200
 ---------------------------------------------------------------------

 SCF Done:  E(RCAM-B3LYP) =  -3007.15119006     A.U. after   18 cycles

 Excitation energies and oscillator strengths:

 Excited State   1:      Singlet-A      1.6360 eV  757.84 nm  f=0.4147  <S**2>=0.000
     245 -> 248       -0.15014
     246 -> 247        0.69160
 This state for optimization and/or second-order correction.
 Total Energy, E(TD-HF/TD-DFT) =  -3007.09106732
 Copying the excited state density for this state as the 1-particle RhoCI density.

 Excited State   2:      Singlet-A      2.1718 eV  570.89 nm  f=0.1756  <S**2>=0.000
     245 -> 247        0.66234
     246 -> 248        0.21913

 Excited State   3:      Singlet-A      3.0392 eV  407.94 nm  f=0.0052  <S**2>=0.000
     243 -> 247        0.18813
     244 -> 247        0.66570

 Excited State   4:      Singlet-A      3.2607 eV  380.24 nm  f=0.0155  <S**2>=0.000
     240 -> 247       -0.12579
     243 -> 247        0.64270
     244 -> 247       -0.18410

 Excited State   5:      Singlet-A      3.3549 eV  369.56 nm  f=0.0006  <S**2>=0.000
     239 -> 247       -0.13131
     240 -> 247        0.56919
     240 -> 249       -0.25696
     240 -> 250        0.17952
     243 -> 247        0.12224

 The electronic state is 1-A.
 Alpha  occ. eigenvalues --  -46.88256 -19.24705 -19.24649 -19.21126 -19.20420
 Alpha  occ. eigenvalues --  -19.18742 -19.18678 -14.42134 -14.42089 -14.39750
 Alpha  occ. eigenvalues --  -14.39422 -10.40203 -10.39883 -10.35613 -10.34630
 Alpha  occ. eigenvalues --  -10.32617 -10.31444 -10.31333 -10.31331 -10.30983
 Alpha  occ. eigenvalues --  -10.30787 -10.30692 -10.30337 -10.29899 -10.29293
 Alpha  occ. eigenvalues --  -10.29076 -10.28993 -10.28866 -10.28651 -10.27815
 Alpha  occ. eigenvalues --  -10.27739 -10.27731 -10.27727 -10.27603 -10.27513
 Alpha  occ. eigenvalues --  -10.27418 -10.26834 -10.26706 -10.26540 -10.26437
 Alpha  occ. eigenvalues --  -10.26392 -10.26332 -10.26230 -10.26169 -10.25927
 Alpha  occ. eigenvalues --  -10.25861 -10.25841 -10.25793 -10.25622 -10.25431
 Alpha  occ. eigenvalues --  -10.25261 -10.25253 -10.25217 -10.25191 -10.25137
 Alpha  occ. eigenvalues --  -10.25104 -10.25020 -10.25012 -10.24999 -10.24856
 Alpha  occ. eigenvalues --  -10.24795 -10.24660 -10.24581 -10.24577 -10.24248
 Alpha  occ. eigenvalues --  -10.23953  -3.16799  -1.91707  -1.91250  -1.91101
 Alpha  occ. eigenvalues --   -1.16857  -1.15119  -1.09047  -1.08623  -1.07693
 Alpha  occ. eigenvalues --   -1.07250  -1.03497  -1.02703  -1.02309  -1.01446
 Alpha  occ. eigenvalues --   -0.93273  -0.91194  -0.89901  -0.89553  -0.89232
 Alpha  occ. eigenvalues --   -0.88813  -0.88437  -0.87801  -0.87432  -0.86255
 Alpha  occ. eigenvalues --   -0.85698  -0.85467  -0.84222  -0.83964  -0.83606
 Alpha  occ. eigenvalues --   -0.82610  -0.81938  -0.81079  -0.81017  -0.80072
 Alpha  occ. eigenvalues --   -0.79819  -0.78413  -0.77784  -0.77596  -0.76537
 Alpha  occ. eigenvalues --   -0.76082  -0.75705  -0.75075  -0.74774  -0.74185
 Alpha  occ. eigenvalues --   -0.73695  -0.72978  -0.71571  -0.70214  -0.69201
 Alpha  occ. eigenvalues --   -0.68626  -0.68234  -0.67398  -0.67230  -0.66147
 Alpha  occ. eigenvalues --   -0.65321  -0.65198  -0.64879  -0.64260  -0.64241
 Alpha  occ. eigenvalues --   -0.63217  -0.62549  -0.62431  -0.62189  -0.60003
 Alpha  occ. eigenvalues --   -0.59956  -0.59486  -0.59168  -0.58767  -0.58425
 Alpha  occ. eigenvalues --   -0.57922  -0.57263  -0.56617  -0.55954  -0.55526
 Alpha  occ. eigenvalues --   -0.55195  -0.54897  -0.54734  -0.54438  -0.53868
 Alpha  occ. eigenvalues --   -0.53588  -0.53566  -0.53384  -0.52655  -0.52332
 Alpha  occ. eigenvalues --   -0.52287  -0.52067  -0.51680  -0.51569  -0.51433
 Alpha  occ. eigenvalues --   -0.51334  -0.51230  -0.51139  -0.51048  -0.50921
 Alpha  occ. eigenvalues --   -0.50717  -0.50216  -0.49954  -0.49630  -0.49530
 Alpha  occ. eigenvalues --   -0.49395  -0.49302  -0.49081  -0.48677  -0.48595
 Alpha  occ. eigenvalues --   -0.48519  -0.48408  -0.48271  -0.47953  -0.47902
 Alpha  occ. eigenvalues --   -0.47610  -0.47507  -0.47153  -0.46853  -0.46556
 Alpha  occ. eigenvalues --   -0.46394  -0.46297  -0.46089  -0.45845  -0.45776
 Alpha  occ. eigenvalues --   -0.45465  -0.45432  -0.45295  -0.45223  -0.44968
 Alpha  occ. eigenvalues --   -0.44738  -0.44411  -0.44153  -0.44016  -0.43803
 Alpha  occ. eigenvalues --   -0.43544  -0.43535  -0.43192  -0.42964  -0.42875
 Alpha  occ. eigenvalues --   -0.42765  -0.42650  -0.42414  -0.42271  -0.42080
 Alpha  occ. eigenvalues --   -0.41818  -0.41657  -0.41364  -0.41300  -0.41210
 Alpha  occ. eigenvalues --   -0.40772  -0.40568  -0.40492  -0.40440  -0.40225
 Alpha  occ. eigenvalues --   -0.40009  -0.39637  -0.39462  -0.38692  -0.38378
 Alpha  occ. eigenvalues --   -0.37982  -0.37838  -0.37331  -0.37301  -0.37200
 Alpha  occ. eigenvalues --   -0.37193  -0.37044  -0.36933  -0.36577  -0.36435
 Alpha  occ. eigenvalues --   -0.35841  -0.35542  -0.35129  -0.34941  -0.34890
 Alpha  occ. eigenvalues --   -0.34791  -0.33999  -0.32954  -0.31992  -0.30991
 Alpha  occ. eigenvalues --   -0.30559  -0.30474  -0.29828  -0.29501  -0.24496
 Alpha  occ. eigenvalues --   -0.21699
 Alpha virt. eigenvalues --   -0.09759  -0.01435   0.00196   0.01605   0.02721
 Alpha virt. eigenvalues --    0.03975   0.04656   0.05335   0.05845   0.06893
 Alpha virt. eigenvalues --    0.07869   0.08325   0.09088   0.09140   0.09309

 Mulliken charges:
               1
     1  Mg   0.819438
     2  C   -0.039728
     3  C   -0.027279
     4  C   -0.033956
     5  C   -0.079578
     6  N   -0.280169
     7  C   -0.048810
     8  C   -0.002920
     9  C   -0.027532
    10  C    0.037236
    11  C    0.078283
    12  C    0.051000
    13  C    0.008046
    14  C    0.187825
    15  O   -0.216767
    16  O   -0.339991
    17  N   -0.368168
    18  C    0.089524
    19  C   -0.091203
    20  C   -0.025385
    21  C    0.138206
    22  C    0.069767
    23  C    0.021688
    24  O   -0.237487
    25  C    0.032074
    26  N   -0.371328
    27  C    0.022131
    28  C   -0.072459
    29  C    0.011551
    30  C    0.075615
    31  C    0.077491
    32  C    0.026096
    33  C    0.012421
    34  N   -0.394594
    35  C    0.128772
    36  C   -0.158862
    37  C    0.017179
    38  C    0.146996
    39  C    0.101154
    40  C    0.027224
    41  O   -0.187354
    42  C    0.050449
    43  C    0.201769
    44  O   -0.197275
    45  O   -0.373427
    46  C    0.168868
    47  C    0.315533
    48  C   -0.137862
    49  C   -0.179564
    50  C    0.122431
    51  C    0.069048
    52  C    0.001144
    53  C    0.064948
    54  C   -0.138755
    55  C    0.048950
    56  C    0.068571
    57  C   -0.021491
    58  C    0.049647
    59  C   -0.115584
    60  C    0.042843
    61  C    0.030523
    62  C   -0.001763
    63  C    0.031361
    64  C   -0.157087
    65  C    0.077987
    66  C    0.051608
    67  H   -0.049432
    68  H   -0.005776
    69  H   -0.018998
    70  H    0.000671
    71  H    0.010966
    72  H    0.019235
    73  H    0.017587
    74  H    0.009759
    75  H    0.017308
    76  H    0.023516
    77  H    0.033259
    78  H    0.048232
    79  H    0.016151
    80  H    0.016709
    81  H    0.018626
    82  H    0.029503
    83  H    0.026732
    84  H    0.037110
    85  H    0.022592
    86  H    0.006170
    87  H    0.025050
    88  H    0.020042
    89  H    0.026552
    90  H    0.003482
    91  H    0.005980
    92  H    0.015708
    93  H    0.026011
    94  H    0.018676
    95  H    0.034631
    96  H    0.031631
    97  H    0.020408
    98  H    0.060855
    99  H    0.049889
   100  H    0.041119
   101  H    0.026123
   102  H    0.011844
   103  H    0.029309
   104  H   -0.007719
   105  H    0.020493
   106  H   -0.001396
   107  H    0.034976
   108  H   -0.005652
   109  H    0.004796
   110  H   -0.006748
   111  H   -0.013164
   112  H   -0.004872
   113  H   -0.003780
   114  H    0.000332
   115  H   -0.003081
   116  H    0.004293
   117  H    0.020029
   118  H   -0.000470
   119  H   -0.014699
   120  H    0.001837
   121  H   -0.012382
   122  H    0.009323
   123  H   -0.001499
   124  H   -0.004126
   125  H    0.001433
   126  H   -0.000684
   127  H    0.018177
   128  H   -0.003392
   129  H   -0.005764
   130  H    0.004614
   131  H   -0.004349
   132  H   -0.015401
   133  H    0.000505
   134  H   -0.009023
   135  H    0.003551
   136  H    0.005717
   137  H    0.008998
   138  H   -0.006690
   139  H   -0.009472
   140  H    0.019042
 Sum of Mulliken charges =  -0.00000

 Dipole moment (field-independent basis, Debye):
    X=              3.7767    Y=              1.3198    Z=             -1.2015  Tot=              4.1772
 Quadrupole moment (field-independent basis, Debye-Ang):
   XX=           -387.7738   YY=           -431.7867   ZZ=           -404.6840
   XY=            -32.8562   XZ=              2.2582   YZ=              6.0563

 Normal termination of Gaussian 16 at Sat Apr 30 04:33:37 2022.
