 Gaussian 16, Revision A.03,
 Gaussian 16:  ES64L-G16RevA.03 25-Dec-2016

 ---------------------------------
 #p PBE1PBE/Def2SVP td=(nstates=5)
 ---------------------------------

 -----------------------------------------------------
 step_601_chromophore_15 TDDFT with PBE1PBE functional
 -----------------------------------------------------
 Symbolic Z-matrix:
 Charge =  0 Multiplicity = 1

                         Standard orientation:
 ---------------------------------------------------------------------
 Center     Atomic      Atomic             Coordinates (Angstroms)
 Number     Number       Type             X           Y           Z
 ---------------------------------------------------------------------
      1         12           0       -4.768009    1.074321    0.121408
      2          6           0       -4.476443   -2.489879    0.699057
      3          6           0       -1.281449    1.057971    0.080191
      4          6           0       -4.905672    4.394057    0.107915
      5          6           0       -8.183878    0.842155    0.570268
      6          7           0       -3.096659   -0.505764    0.197204
      7          6           0       -3.282651   -1.869377    0.444985
      8          6           0       -1.897965   -2.521260    0.228423
      9          6           0       -0.788493   -1.419736    0.338726
     10          6           0       -1.740889   -0.201899    0.178949
     11          6           0       -0.059190   -1.442032    1.669641
     12          6           0       -1.930154   -3.369141   -1.088293
     13          6           0       -0.770176   -3.392289   -2.103480
     14          6           0        0.661556   -3.739937   -1.637156
     15          8           0        1.088400   -3.894383   -0.515011
     16          8           0        1.406318   -3.791438   -2.787450
     17          7           0       -3.242704    2.513209   -0.043879
     18          6           0       -1.904502    2.341109   -0.087995
     19          6           0       -1.304745    3.648752   -0.293893
     20          6           0       -2.356323    4.655244   -0.265370
     21          6           0       -3.580197    3.863813   -0.045916
     22          6           0        0.202039    3.801220   -0.214359
     23          6           0       -2.327548    6.159289   -0.431353
     24          8           0       -3.315970    6.942150   -0.405228
     25          6           0       -0.949379    6.858813   -0.692234
     26          7           0       -6.302569    2.389909    0.557282
     27          6           0       -6.099851    3.789388    0.382362
     28          6           0       -7.470183    4.503490    0.402586
     29          6           0       -8.500006    3.320445    0.398711
     30          6           0       -7.667707    2.133218    0.610846
     31          6           0       -7.597153    5.329832    1.715592
     32          6           0       -9.235814    3.284868   -0.944632
     33          6           0      -10.760940    3.143042   -0.935462
     34          7           0       -6.042181   -0.502420    0.537671
     35          6           0       -7.436341   -0.385415    0.700587
     36          6           0       -7.935297   -1.762540    0.796606
     37          6           0       -6.785820   -2.587790    0.926768
     38          6           0       -5.676043   -1.805086    0.777741
     39          6           0       -9.395996   -2.247466    0.701248
     40          6           0       -6.403078   -3.930247    1.141878
     41          8           0       -7.117538   -4.923538    1.361199
     42          6           0       -4.859050   -3.949549    1.195304
     43          6           0       -4.266209   -5.067351    0.448659
     44          8           0       -4.583099   -5.496206   -0.650575
     45          8           0       -3.267871   -5.683141    1.245060
     46          6           0       -2.684784   -6.944412    0.753262
     47          6           0        2.764878   -4.305419   -2.736218
     48          6           0        3.691493   -3.068868   -2.512775
     49          6           0        4.368593   -2.794528   -1.409522
     50          6           0        4.429033   -3.501853   -0.073755
     51          6           0        5.080097   -1.478471   -1.358493
     52          6           0        6.463353   -1.591198   -2.008014
     53          6           0        6.773813   -0.512523   -3.085477
     54          6           0        7.705531    0.594654   -2.563281
     55          6           0        7.657398    1.868708   -3.501818
     56          6           0        9.162060    0.159102   -2.441416
     57          6           0        9.755323    0.719992   -1.085920
     58          6           0       10.684018    1.909212   -1.422592
     59          6           0       11.156304    2.752826   -0.221012
     60          6           0       11.754891    4.175409   -0.617542
     61          6           0       12.133582    1.866585    0.736847
     62          6           0       11.404879    1.366412    1.964719
     63          6           0       12.043295    0.090968    2.633359
     64          6           0       12.042617    0.127633    4.172695
     65          6           0       13.267594   -0.523084    4.773657
     66          6           0       10.793982   -0.524868    4.742308
     67          1           0       -0.198035    1.184145    0.130099
     68          1           0       -5.085679    5.464716   -0.011943
     69          1           0       -9.263720    0.698174    0.649206
     70          1           0       -1.775076   -3.258657    1.020766
     71          1           0       -0.036420   -1.386573   -0.450239
     72          1           0        0.937914   -1.809552    1.427934
     73          1           0       -0.531090   -2.122595    2.378787
     74          1           0        0.103008   -0.491039    2.176270
     75          1           0       -2.777011   -3.024676   -1.681782
     76          1           0       -2.063008   -4.402900   -0.769395
     77          1           0       -0.732001   -2.363256   -2.460161
     78          1           0       -1.160795   -3.991501   -2.926765
     79          1           0        0.553180    4.546295    0.498565
     80          1           0        0.620466    4.197720   -1.139605
     81          1           0        0.824632    2.958587    0.084247
     82          1           0       -1.098981    7.909358   -0.941695
     83          1           0       -0.512657    6.297761   -1.518207
     84          1           0       -0.296265    6.823091    0.180100
     85          1           0       -7.484231    5.194841   -0.439660
     86          1           0       -9.216315    3.374729    1.217972
     87          1           0       -7.056270    6.263399    1.558666
     88          1           0       -6.964119    4.774414    2.407587
     89          1           0       -8.656081    5.403690    1.961889
     90          1           0       -8.900089    2.401122   -1.486247
     91          1           0       -8.837454    4.055879   -1.604383
     92          1           0      -11.151432    3.159375    0.082126
     93          1           0      -11.140460    2.285037   -1.490993
     94          1           0      -11.058430    4.053513   -1.455319
     95          1           0       -9.529078   -3.315233    0.876169
     96          1           0       -9.889348   -2.035784   -0.248289
     97          1           0       -9.932512   -1.762338    1.517328
     98          1           0       -4.669361   -4.039063    2.264745
     99          1           0       -3.224185   -7.399781   -0.076357
    100          1           0       -2.407299   -7.745376    1.438926
    101          1           0       -1.729600   -6.576340    0.379698
    102          1           0        2.903915   -4.657084   -3.758132
    103          1           0        2.919321   -5.055734   -1.961064
    104          1           0        3.910127   -2.415487   -3.356970
    105          1           0        5.441630   -3.836193    0.151939
    106          1           0        3.837502   -4.415923   -0.112420
    107          1           0        3.943546   -2.831182    0.633721
    108          1           0        5.178935   -1.054550   -0.358954
    109          1           0        4.440336   -0.776011   -1.891658
    110          1           0        6.647989   -2.601750   -2.372498
    111          1           0        7.246822   -1.656955   -1.251846
    112          1           0        5.864675    0.017701   -3.370570
    113          1           0        7.183123   -1.105177   -3.903463
    114          1           0        7.256602    0.836256   -1.599740
    115          1           0        6.823262    1.928717   -4.200595
    116          1           0        8.490257    1.802530   -4.202387
    117          1           0        7.649901    2.756444   -2.869608
    118          1           0        9.838378    0.525497   -3.212533
    119          1           0        9.183289   -0.924658   -2.557625
    120          1           0       10.147340   -0.030174   -0.398879
    121          1           0        8.902897    1.095933   -0.520560
    122          1           0       10.240463    2.390589   -2.293346
    123          1           0       11.605375    1.367269   -1.638226
    124          1           0       10.287192    3.065248    0.357267
    125          1           0       12.094368    4.067251   -1.647198
    126          1           0       12.653898    4.387902   -0.039561
    127          1           0       11.067755    5.013447   -0.501304
    128          1           0       13.055525    2.379626    1.012722
    129          1           0       12.476851    0.968822    0.222757
    130          1           0       10.400414    1.056814    1.673481
    131          1           0       11.419350    2.151613    2.720601
    132          1           0       13.079430    0.134366    2.300031
    133          1           0       11.570695   -0.779402    2.178571
    134          1           0       12.087785    1.180248    4.452521
    135          1           0       13.832669    0.353042    5.090716
    136          1           0       13.824847   -1.006681    3.971455
    137          1           0       12.968526   -1.187318    5.585690
    138          1           0        9.948241   -0.075490    4.223337
    139          1           0       10.546324   -0.160838    5.739838
    140          1           0       10.796792   -1.605764    4.880200
 ---------------------------------------------------------------------

 SCF Done:  E(RPBE1PBE) =  -3005.33899039     A.U. after   15 cycles

 Excitation energies and oscillator strengths:

 Excited State   1:      Singlet-A      1.8032 eV  687.60 nm  f=0.3982  <S**2>=0.000
     245 -> 248        0.13520
     246 -> 247        0.70016
     246 <- 247       -0.12514
 This state for optimization and/or second-order correction.
 Total Energy, E(TD-HF/TD-DFT) =  -3005.27272572
 Copying the excited state density for this state as the 1-particle RhoCI density.

 Excited State   2:      Singlet-A      2.1829 eV  567.98 nm  f=0.1547  <S**2>=0.000
     245 -> 247        0.66752
     246 -> 248       -0.18745

 Excited State   3:      Singlet-A      2.7558 eV  449.91 nm  f=0.0052  <S**2>=0.000
     244 -> 247        0.69535

 Excited State   4:      Singlet-A      2.8120 eV  440.92 nm  f=0.0037  <S**2>=0.000
     240 -> 247       -0.28642
     243 -> 247        0.60568

 Excited State   5:      Singlet-A      2.8267 eV  438.61 nm  f=0.0010  <S**2>=0.000
     240 -> 247       -0.43092
     240 -> 249        0.10560
     241 -> 247       -0.11234
     242 -> 247        0.43322
     243 -> 247       -0.27331

 The electronic state is 1-A.
 Alpha  occ. eigenvalues --  -46.91655 -19.25418 -19.25272 -19.21334 -19.20549
 Alpha  occ. eigenvalues --  -19.19085 -19.18809 -14.41687 -14.41597 -14.39481
 Alpha  occ. eigenvalues --  -14.39070 -10.37193 -10.36808 -10.32862 -10.31651
 Alpha  occ. eigenvalues --  -10.30006 -10.29072 -10.28937 -10.28640 -10.28581
 Alpha  occ. eigenvalues --  -10.28538 -10.28530 -10.28141 -10.27766 -10.26936
 Alpha  occ. eigenvalues --  -10.26814 -10.26548 -10.26404 -10.26346 -10.25623
 Alpha  occ. eigenvalues --  -10.25621 -10.25619 -10.25425 -10.25233 -10.25204
 Alpha  occ. eigenvalues --  -10.25108 -10.24366 -10.24364 -10.24197 -10.24112
 Alpha  occ. eigenvalues --  -10.24077 -10.24018 -10.23818 -10.23664 -10.23565
 Alpha  occ. eigenvalues --  -10.23331 -10.23276 -10.23193 -10.23024 -10.23018
 Alpha  occ. eigenvalues --  -10.22853 -10.22847 -10.22837 -10.22815 -10.22738
 Alpha  occ. eigenvalues --  -10.22613 -10.22599 -10.22597 -10.22584 -10.22404
 Alpha  occ. eigenvalues --  -10.22236 -10.22154 -10.22125 -10.22072 -10.21634
 Alpha  occ. eigenvalues --  -10.21341  -3.13778  -1.86627  -1.86148  -1.86003
 Alpha  occ. eigenvalues --   -1.11643  -1.09782  -1.03896  -1.03238  -1.02493
 Alpha  occ. eigenvalues --   -1.02013  -0.98056  -0.97427  -0.96853  -0.96057
 Alpha  occ. eigenvalues --   -0.87569  -0.85347  -0.84001  -0.83873  -0.83358
 Alpha  occ. eigenvalues --   -0.83004  -0.82801  -0.82138  -0.81551  -0.80601
 Alpha  occ. eigenvalues --   -0.79994  -0.79710  -0.78441  -0.78207  -0.77868
 Alpha  occ. eigenvalues --   -0.76830  -0.76185  -0.75434  -0.75235  -0.74314
 Alpha  occ. eigenvalues --   -0.73971  -0.72704  -0.72037  -0.71904  -0.70774
 Alpha  occ. eigenvalues --   -0.70276  -0.69800  -0.69482  -0.68931  -0.68414
 Alpha  occ. eigenvalues --   -0.67977  -0.67375  -0.65984  -0.64544  -0.63579
 Alpha  occ. eigenvalues --   -0.62987  -0.62541  -0.61861  -0.61470  -0.60579
 Alpha  occ. eigenvalues --   -0.59715  -0.59516  -0.59358  -0.58859  -0.58381
 Alpha  occ. eigenvalues --   -0.57396  -0.56973  -0.56785  -0.56626  -0.54586
 Alpha  occ. eigenvalues --   -0.54393  -0.53999  -0.53627  -0.53297  -0.52904
 Alpha  occ. eigenvalues --   -0.52465  -0.51719  -0.51126  -0.50445  -0.49865
 Alpha  occ. eigenvalues --   -0.49710  -0.49521  -0.49342  -0.48808  -0.48344
 Alpha  occ. eigenvalues --   -0.48143  -0.48034  -0.47928  -0.47382  -0.46931
 Alpha  occ. eigenvalues --   -0.46773  -0.46586  -0.46357  -0.46115  -0.45969
 Alpha  occ. eigenvalues --   -0.45841  -0.45676  -0.45672  -0.45588  -0.45498
 Alpha  occ. eigenvalues --   -0.45274  -0.44821  -0.44513  -0.44219  -0.44015
 Alpha  occ. eigenvalues --   -0.43962  -0.43870  -0.43718  -0.43301  -0.43272
 Alpha  occ. eigenvalues --   -0.43092  -0.43029  -0.42907  -0.42587  -0.42551
 Alpha  occ. eigenvalues --   -0.42259  -0.42156  -0.41857  -0.41488  -0.41226
 Alpha  occ. eigenvalues --   -0.41051  -0.40993  -0.40774  -0.40602  -0.40381
 Alpha  occ. eigenvalues --   -0.40300  -0.40134  -0.39947  -0.39899  -0.39666
 Alpha  occ. eigenvalues --   -0.39493  -0.39161  -0.38904  -0.38678  -0.38584
 Alpha  occ. eigenvalues --   -0.38386  -0.38326  -0.38014  -0.37796  -0.37568
 Alpha  occ. eigenvalues --   -0.37521  -0.37386  -0.37262  -0.37018  -0.36802
 Alpha  occ. eigenvalues --   -0.36686  -0.36477  -0.36243  -0.36140  -0.36020
 Alpha  occ. eigenvalues --   -0.35532  -0.35457  -0.35392  -0.35279  -0.35008
 Alpha  occ. eigenvalues --   -0.34952  -0.34564  -0.34229  -0.33464  -0.33276
 Alpha  occ. eigenvalues --   -0.32893  -0.32786  -0.32301  -0.32269  -0.32136
 Alpha  occ. eigenvalues --   -0.31980  -0.31864  -0.31745  -0.31539  -0.31405
 Alpha  occ. eigenvalues --   -0.30710  -0.30496  -0.29979  -0.29898  -0.29796
 Alpha  occ. eigenvalues --   -0.29663  -0.29139  -0.28566  -0.27586  -0.25775
 Alpha  occ. eigenvalues --   -0.25759  -0.25575  -0.25353  -0.25092  -0.21410
 Alpha  occ. eigenvalues --   -0.19301
 Alpha virt. eigenvalues --   -0.12076  -0.05169  -0.03910  -0.02752  -0.00648
 Alpha virt. eigenvalues --   -0.00107   0.00168   0.00959   0.01308   0.03448
 Alpha virt. eigenvalues --    0.03775   0.04494   0.05261   0.05902   0.06065

 Mulliken charges:
               1
     1  Mg   0.969303
     2  C   -0.045217
     3  C   -0.035996
     4  C   -0.027753
     5  C   -0.074206
     6  N   -0.377152
     7  C    0.018012
     8  C   -0.069187
     9  C   -0.107102
    10  C    0.077118
    11  C    0.025002
    12  C    0.001340
    13  C   -0.071420
    14  C    0.255789
    15  O   -0.250921
    16  O   -0.369610
    17  N   -0.483540
    18  C    0.130322
    19  C   -0.126064
    20  C   -0.073025
    21  C    0.171949
    22  C    0.016461
    23  C    0.067300
    24  O   -0.272749
    25  C   -0.040111
    26  N   -0.469853
    27  C    0.053635
    28  C   -0.152984
    29  C   -0.070833
    30  C    0.116186
    31  C    0.020409
    32  C   -0.027534
    33  C   -0.060116
    34  N   -0.513454
    35  C    0.147541
    36  C   -0.170515
    37  C   -0.039344
    38  C    0.193998
    39  C    0.047352
    40  C    0.125709
    41  O   -0.234324
    42  C   -0.063297
    43  C    0.291348
    44  O   -0.235259
    45  O   -0.403868
    46  C    0.113457
    47  C    0.266238
    48  C   -0.149478
    49  C   -0.219701
    50  C    0.057550
    51  C    0.004607
    52  C   -0.052973
    53  C    0.008228
    54  C   -0.227003
    55  C   -0.008979
    56  C    0.014603
    57  C   -0.078510
    58  C   -0.016794
    59  C   -0.196614
    60  C   -0.016157
    61  C   -0.023811
    62  C   -0.065179
    63  C   -0.025964
    64  C   -0.249969
    65  C    0.016334
    66  C   -0.011621
    67  H   -0.015149
    68  H    0.026518
    69  H    0.013338
    70  H    0.039675
    71  H    0.047407
    72  H    0.048515
    73  H    0.044889
    74  H    0.037022
    75  H    0.050612
    76  H    0.062373
    77  H    0.066545
    78  H    0.079086
    79  H    0.044479
    80  H    0.045155
    81  H    0.044541
    82  H    0.056975
    83  H    0.053896
    84  H    0.063236
    85  H    0.056993
    86  H    0.041979
    87  H    0.053244
    88  H    0.049522
    89  H    0.054582
    90  H    0.038297
    91  H    0.037246
    92  H    0.042450
    93  H    0.052881
    94  H    0.046723
    95  H    0.061313
    96  H    0.057854
    97  H    0.047541
    98  H    0.096823
    99  H    0.070639
   100  H    0.063154
   101  H    0.048091
   102  H    0.040229
   103  H    0.055031
   104  H    0.022339
   105  H    0.048683
   106  H    0.027607
   107  H    0.062334
   108  H    0.025753
   109  H    0.036840
   110  H    0.025626
   111  H    0.019762
   112  H    0.027091
   113  H    0.029000
   114  H    0.038770
   115  H    0.023948
   116  H    0.030826
   117  H    0.047443
   118  H    0.031617
   119  H    0.018628
   120  H    0.033795
   121  H    0.020177
   122  H    0.042083
   123  H    0.035055
   124  H    0.034203
   125  H    0.029260
   126  H    0.026900
   127  H    0.044777
   128  H    0.028283
   129  H    0.026222
   130  H    0.038424
   131  H    0.028857
   132  H    0.019226
   133  H    0.032726
   134  H    0.028339
   135  H    0.031575
   136  H    0.033251
   137  H    0.036444
   138  H    0.023145
   139  H    0.019902
   140  H    0.045778
 Sum of Mulliken charges =  -0.00000

 Dipole moment (field-independent basis, Debye):
    X=              3.8963    Y=              1.5846    Z=             -1.2451  Tot=              4.3866
 Quadrupole moment (field-independent basis, Debye-Ang):
   XX=           -383.4523   YY=           -428.7824   ZZ=           -402.1639
   XY=            -34.7016   XZ=              2.8379   YZ=              6.1346

 Normal termination of Gaussian 16 at Sat Apr 30 04:49:34 2022.
