 Gaussian 16, Revision A.03,
 Gaussian 16:  ES64L-G16RevA.03 25-Dec-2016

 --------------------------------
 #p wB97XD/Def2SVP td=(nstates=5)
 --------------------------------

 ----------------------------------------------------
 step_601_chromophore_15 TDDFT with wB97XD functional
 ----------------------------------------------------
 Symbolic Z-matrix:
 Charge =  0 Multiplicity = 1

                         Standard orientation:
 ---------------------------------------------------------------------
 Center     Atomic      Atomic             Coordinates (Angstroms)
 Number     Number       Type             X           Y           Z
 ---------------------------------------------------------------------
      1         12           0       -4.768009    1.074321    0.121408
      2          6           0       -4.476443   -2.489879    0.699057
      3          6           0       -1.281449    1.057971    0.080191
      4          6           0       -4.905672    4.394057    0.107915
      5          6           0       -8.183878    0.842155    0.570268
      6          7           0       -3.096659   -0.505764    0.197204
      7          6           0       -3.282651   -1.869377    0.444985
      8          6           0       -1.897965   -2.521260    0.228423
      9          6           0       -0.788493   -1.419736    0.338726
     10          6           0       -1.740889   -0.201899    0.178949
     11          6           0       -0.059190   -1.442032    1.669641
     12          6           0       -1.930154   -3.369141   -1.088293
     13          6           0       -0.770176   -3.392289   -2.103480
     14          6           0        0.661556   -3.739937   -1.637156
     15          8           0        1.088400   -3.894383   -0.515011
     16          8           0        1.406318   -3.791438   -2.787450
     17          7           0       -3.242704    2.513209   -0.043879
     18          6           0       -1.904502    2.341109   -0.087995
     19          6           0       -1.304745    3.648752   -0.293893
     20          6           0       -2.356323    4.655244   -0.265370
     21          6           0       -3.580197    3.863813   -0.045916
     22          6           0        0.202039    3.801220   -0.214359
     23          6           0       -2.327548    6.159289   -0.431353
     24          8           0       -3.315970    6.942150   -0.405228
     25          6           0       -0.949379    6.858813   -0.692234
     26          7           0       -6.302569    2.389909    0.557282
     27          6           0       -6.099851    3.789388    0.382362
     28          6           0       -7.470183    4.503490    0.402586
     29          6           0       -8.500006    3.320445    0.398711
     30          6           0       -7.667707    2.133218    0.610846
     31          6           0       -7.597153    5.329832    1.715592
     32          6           0       -9.235814    3.284868   -0.944632
     33          6           0      -10.760940    3.143042   -0.935462
     34          7           0       -6.042181   -0.502420    0.537671
     35          6           0       -7.436341   -0.385415    0.700587
     36          6           0       -7.935297   -1.762540    0.796606
     37          6           0       -6.785820   -2.587790    0.926768
     38          6           0       -5.676043   -1.805086    0.777741
     39          6           0       -9.395996   -2.247466    0.701248
     40          6           0       -6.403078   -3.930247    1.141878
     41          8           0       -7.117538   -4.923538    1.361199
     42          6           0       -4.859050   -3.949549    1.195304
     43          6           0       -4.266209   -5.067351    0.448659
     44          8           0       -4.583099   -5.496206   -0.650575
     45          8           0       -3.267871   -5.683141    1.245060
     46          6           0       -2.684784   -6.944412    0.753262
     47          6           0        2.764878   -4.305419   -2.736218
     48          6           0        3.691493   -3.068868   -2.512775
     49          6           0        4.368593   -2.794528   -1.409522
     50          6           0        4.429033   -3.501853   -0.073755
     51          6           0        5.080097   -1.478471   -1.358493
     52          6           0        6.463353   -1.591198   -2.008014
     53          6           0        6.773813   -0.512523   -3.085477
     54          6           0        7.705531    0.594654   -2.563281
     55          6           0        7.657398    1.868708   -3.501818
     56          6           0        9.162060    0.159102   -2.441416
     57          6           0        9.755323    0.719992   -1.085920
     58          6           0       10.684018    1.909212   -1.422592
     59          6           0       11.156304    2.752826   -0.221012
     60          6           0       11.754891    4.175409   -0.617542
     61          6           0       12.133582    1.866585    0.736847
     62          6           0       11.404879    1.366412    1.964719
     63          6           0       12.043295    0.090968    2.633359
     64          6           0       12.042617    0.127633    4.172695
     65          6           0       13.267594   -0.523084    4.773657
     66          6           0       10.793982   -0.524868    4.742308
     67          1           0       -0.198035    1.184145    0.130099
     68          1           0       -5.085679    5.464716   -0.011943
     69          1           0       -9.263720    0.698174    0.649206
     70          1           0       -1.775076   -3.258657    1.020766
     71          1           0       -0.036420   -1.386573   -0.450239
     72          1           0        0.937914   -1.809552    1.427934
     73          1           0       -0.531090   -2.122595    2.378787
     74          1           0        0.103008   -0.491039    2.176270
     75          1           0       -2.777011   -3.024676   -1.681782
     76          1           0       -2.063008   -4.402900   -0.769395
     77          1           0       -0.732001   -2.363256   -2.460161
     78          1           0       -1.160795   -3.991501   -2.926765
     79          1           0        0.553180    4.546295    0.498565
     80          1           0        0.620466    4.197720   -1.139605
     81          1           0        0.824632    2.958587    0.084247
     82          1           0       -1.098981    7.909358   -0.941695
     83          1           0       -0.512657    6.297761   -1.518207
     84          1           0       -0.296265    6.823091    0.180100
     85          1           0       -7.484231    5.194841   -0.439660
     86          1           0       -9.216315    3.374729    1.217972
     87          1           0       -7.056270    6.263399    1.558666
     88          1           0       -6.964119    4.774414    2.407587
     89          1           0       -8.656081    5.403690    1.961889
     90          1           0       -8.900089    2.401122   -1.486247
     91          1           0       -8.837454    4.055879   -1.604383
     92          1           0      -11.151432    3.159375    0.082126
     93          1           0      -11.140460    2.285037   -1.490993
     94          1           0      -11.058430    4.053513   -1.455319
     95          1           0       -9.529078   -3.315233    0.876169
     96          1           0       -9.889348   -2.035784   -0.248289
     97          1           0       -9.932512   -1.762338    1.517328
     98          1           0       -4.669361   -4.039063    2.264745
     99          1           0       -3.224185   -7.399781   -0.076357
    100          1           0       -2.407299   -7.745376    1.438926
    101          1           0       -1.729600   -6.576340    0.379698
    102          1           0        2.903915   -4.657084   -3.758132
    103          1           0        2.919321   -5.055734   -1.961064
    104          1           0        3.910127   -2.415487   -3.356970
    105          1           0        5.441630   -3.836193    0.151939
    106          1           0        3.837502   -4.415923   -0.112420
    107          1           0        3.943546   -2.831182    0.633721
    108          1           0        5.178935   -1.054550   -0.358954
    109          1           0        4.440336   -0.776011   -1.891658
    110          1           0        6.647989   -2.601750   -2.372498
    111          1           0        7.246822   -1.656955   -1.251846
    112          1           0        5.864675    0.017701   -3.370570
    113          1           0        7.183123   -1.105177   -3.903463
    114          1           0        7.256602    0.836256   -1.599740
    115          1           0        6.823262    1.928717   -4.200595
    116          1           0        8.490257    1.802530   -4.202387
    117          1           0        7.649901    2.756444   -2.869608
    118          1           0        9.838378    0.525497   -3.212533
    119          1           0        9.183289   -0.924658   -2.557625
    120          1           0       10.147340   -0.030174   -0.398879
    121          1           0        8.902897    1.095933   -0.520560
    122          1           0       10.240463    2.390589   -2.293346
    123          1           0       11.605375    1.367269   -1.638226
    124          1           0       10.287192    3.065248    0.357267
    125          1           0       12.094368    4.067251   -1.647198
    126          1           0       12.653898    4.387902   -0.039561
    127          1           0       11.067755    5.013447   -0.501304
    128          1           0       13.055525    2.379626    1.012722
    129          1           0       12.476851    0.968822    0.222757
    130          1           0       10.400414    1.056814    1.673481
    131          1           0       11.419350    2.151613    2.720601
    132          1           0       13.079430    0.134366    2.300031
    133          1           0       11.570695   -0.779402    2.178571
    134          1           0       12.087785    1.180248    4.452521
    135          1           0       13.832669    0.353042    5.090716
    136          1           0       13.824847   -1.006681    3.971455
    137          1           0       12.968526   -1.187318    5.585690
    138          1           0        9.948241   -0.075490    4.223337
    139          1           0       10.546324   -0.160838    5.739838
    140          1           0       10.796792   -1.605764    4.880200
 ---------------------------------------------------------------------

 SCF Done:  E(RwB97XD) =  -3007.84988980     A.U. after   19 cycles

 Excitation energies and oscillator strengths:

 Excited State   1:      Singlet-A      1.5760 eV  786.68 nm  f=0.4141  <S**2>=0.000
     245 -> 248       -0.15709
     246 -> 247        0.68893
     245 <- 248       -0.10953
 This state for optimization and/or second-order correction.
 Total Energy, E(TD-HF/TD-DFT) =  -3007.79197150
 Copying the excited state density for this state as the 1-particle RhoCI density.

 Excited State   2:      Singlet-A      2.1151 eV  586.19 nm  f=0.1705  <S**2>=0.000
     245 -> 247        0.65950
     246 -> 248        0.22479

 Excited State   3:      Singlet-A      3.0502 eV  406.47 nm  f=0.0055  <S**2>=0.000
     243 -> 247        0.27500
     244 -> 247        0.62888

 Excited State   4:      Singlet-A      3.3035 eV  375.31 nm  f=0.0128  <S**2>=0.000
     240 -> 247       -0.17943
     240 -> 249        0.10014
     243 -> 247        0.58543
     244 -> 247       -0.26194
     246 -> 248       -0.10434

 Excited State   5:      Singlet-A      3.3839 eV  366.39 nm  f=0.0006  <S**2>=0.000
     239 -> 247       -0.10719
     240 -> 247        0.54472
     240 -> 249       -0.27151
     240 -> 250       -0.18891
     243 -> 247        0.17322
     246 -> 248       -0.11127

 The electronic state is 1-A.
 Alpha  occ. eigenvalues --  -46.94607 -19.29959 -19.29910 -19.26015 -19.25378
 Alpha  occ. eigenvalues --  -19.23781 -19.23755 -14.46769 -14.46739 -14.44317
 Alpha  occ. eigenvalues --  -14.44075 -10.43998 -10.43766 -10.39582 -10.38677
 Alpha  occ. eigenvalues --  -10.36500 -10.35503 -10.35352 -10.35095 -10.35095
 Alpha  occ. eigenvalues --  -10.34793 -10.34706 -10.34329 -10.33870 -10.33366
 Alpha  occ. eigenvalues --  -10.33213 -10.33192 -10.32904 -10.32794 -10.31863
 Alpha  occ. eigenvalues --  -10.31798 -10.31773 -10.31658 -10.31646 -10.31576
 Alpha  occ. eigenvalues --  -10.31493 -10.30741 -10.30672 -10.30559 -10.30427
 Alpha  occ. eigenvalues --  -10.30418 -10.30342 -10.30162 -10.30112 -10.29916
 Alpha  occ. eigenvalues --  -10.29697 -10.29666 -10.29644 -10.29453 -10.29354
 Alpha  occ. eigenvalues --  -10.29207 -10.29177 -10.29152 -10.29119 -10.29079
 Alpha  occ. eigenvalues --  -10.28959 -10.28951 -10.28946 -10.28945 -10.28927
 Alpha  occ. eigenvalues --  -10.28648 -10.28500 -10.28499 -10.28486 -10.28062
 Alpha  occ. eigenvalues --  -10.27751  -3.20586  -1.94183  -1.93708  -1.93559
 Alpha  occ. eigenvalues --   -1.19016  -1.17291  -1.11230  -1.10888  -1.09875
 Alpha  occ. eigenvalues --   -1.09482  -1.05531  -1.04719  -1.04299  -1.03474
 Alpha  occ. eigenvalues --   -0.95307  -0.92986  -0.91661  -0.91441  -0.91004
 Alpha  occ. eigenvalues --   -0.90654  -0.90356  -0.89735  -0.89208  -0.88162
 Alpha  occ. eigenvalues --   -0.87669  -0.87364  -0.86095  -0.85882  -0.85485
 Alpha  occ. eigenvalues --   -0.84469  -0.83845  -0.83049  -0.82892  -0.81993
 Alpha  occ. eigenvalues --   -0.81641  -0.80349  -0.79685  -0.79501  -0.78482
 Alpha  occ. eigenvalues --   -0.77929  -0.77482  -0.77009  -0.76602  -0.76046
 Alpha  occ. eigenvalues --   -0.75589  -0.74977  -0.73522  -0.72143  -0.71178
 Alpha  occ. eigenvalues --   -0.70554  -0.70148  -0.69353  -0.69101  -0.68102
 Alpha  occ. eigenvalues --   -0.67196  -0.67161  -0.66837  -0.66279  -0.66053
 Alpha  occ. eigenvalues --   -0.65039  -0.64478  -0.64365  -0.64143  -0.61976
 Alpha  occ. eigenvalues --   -0.61895  -0.61433  -0.61111  -0.60745  -0.60401
 Alpha  occ. eigenvalues --   -0.59931  -0.59176  -0.58561  -0.57888  -0.57376
 Alpha  occ. eigenvalues --   -0.57151  -0.56861  -0.56713  -0.56332  -0.55750
 Alpha  occ. eigenvalues --   -0.55535  -0.55439  -0.55289  -0.54606  -0.54272
 Alpha  occ. eigenvalues --   -0.54158  -0.53962  -0.53609  -0.53488  -0.53351
 Alpha  occ. eigenvalues --   -0.53241  -0.53144  -0.53022  -0.52927  -0.52838
 Alpha  occ. eigenvalues --   -0.52619  -0.52120  -0.51833  -0.51523  -0.51457
 Alpha  occ. eigenvalues --   -0.51299  -0.51184  -0.50993  -0.50659  -0.50498
 Alpha  occ. eigenvalues --   -0.50381  -0.50328  -0.50220  -0.49831  -0.49795
 Alpha  occ. eigenvalues --   -0.49509  -0.49410  -0.49065  -0.48799  -0.48456
 Alpha  occ. eigenvalues --   -0.48353  -0.48234  -0.48000  -0.47768  -0.47622
 Alpha  occ. eigenvalues --   -0.47377  -0.47336  -0.47160  -0.47153  -0.46854
 Alpha  occ. eigenvalues --   -0.46684  -0.46318  -0.46084  -0.45872  -0.45694
 Alpha  occ. eigenvalues --   -0.45468  -0.45436  -0.45088  -0.44875  -0.44746
 Alpha  occ. eigenvalues --   -0.44722  -0.44523  -0.44318  -0.44137  -0.44032
 Alpha  occ. eigenvalues --   -0.43795  -0.43616  -0.43332  -0.43277  -0.43097
 Alpha  occ. eigenvalues --   -0.42627  -0.42486  -0.42442  -0.42300  -0.42071
 Alpha  occ. eigenvalues --   -0.41915  -0.41539  -0.41306  -0.40538  -0.40327
 Alpha  occ. eigenvalues --   -0.39868  -0.39735  -0.39324  -0.39208  -0.39166
 Alpha  occ. eigenvalues --   -0.39032  -0.38869  -0.38774  -0.38476  -0.38337
 Alpha  occ. eigenvalues --   -0.37851  -0.37435  -0.37020  -0.36866  -0.36783
 Alpha  occ. eigenvalues --   -0.36635  -0.35993  -0.35212  -0.34195  -0.33007
 Alpha  occ. eigenvalues --   -0.32480  -0.32464  -0.31986  -0.31692  -0.26415
 Alpha  occ. eigenvalues --   -0.23491
 Alpha virt. eigenvalues --   -0.08124   0.00517   0.02216   0.03718   0.05781
 Alpha virt. eigenvalues --    0.06075   0.07002   0.07652   0.08089   0.09888
 Alpha virt. eigenvalues --    0.10198   0.11227   0.12066   0.12675   0.12843

 Mulliken charges:
               1
     1  Mg   0.958117
     2  C   -0.055335
     3  C   -0.041944
     4  C   -0.043999
     5  C   -0.091595
     6  N   -0.345314
     7  C   -0.007915
     8  C   -0.045104
     9  C   -0.079488
    10  C    0.061425
    11  C    0.033540
    12  C    0.015229
    13  C   -0.048423
    14  C    0.238519
    15  O   -0.245081
    16  O   -0.369217
    17  N   -0.450346
    18  C    0.113224
    19  C   -0.112764
    20  C   -0.068497
    21  C    0.160445
    22  C    0.025021
    23  C    0.064210
    24  O   -0.268213
    25  C   -0.025849
    26  N   -0.441882
    27  C    0.042743
    28  C   -0.124795
    29  C   -0.045811
    30  C    0.106150
    31  C    0.030294
    32  C   -0.014668
    33  C   -0.044583
    34  N   -0.480624
    35  C    0.142287
    36  C   -0.168424
    37  C   -0.030910
    38  C    0.181954
    39  C    0.057222
    40  C    0.104901
    41  O   -0.222620
    42  C   -0.021424
    43  C    0.265757
    44  O   -0.227485
    45  O   -0.402447
    46  C    0.128902
    47  C    0.283100
    48  C   -0.161610
    49  C   -0.203923
    50  C    0.072402
    51  C    0.022128
    52  C   -0.041315
    53  C    0.026014
    54  C   -0.194396
    55  C    0.001359
    56  C    0.029661
    57  C   -0.063375
    58  C    0.011575
    59  C   -0.171335
    60  C   -0.003026
    61  C   -0.007843
    62  C   -0.045500
    63  C   -0.010175
    64  C   -0.218158
    65  C    0.026675
    66  C   -0.000274
    67  H   -0.025469
    68  H    0.020995
    69  H    0.008356
    70  H    0.026533
    71  H    0.035352
    72  H    0.042715
    73  H    0.038874
    74  H    0.031634
    75  H    0.042791
    76  H    0.045197
    77  H    0.058467
    78  H    0.074881
    79  H    0.037598
    80  H    0.038889
    81  H    0.041363
    82  H    0.055397
    83  H    0.046282
    84  H    0.058098
    85  H    0.048044
    86  H    0.030813
    87  H    0.048175
    88  H    0.042039
    89  H    0.048622
    90  H    0.027332
    91  H    0.030245
    92  H    0.036084
    93  H    0.047926
    94  H    0.040822
    95  H    0.059013
    96  H    0.054244
    97  H    0.042204
    98  H    0.091663
    99  H    0.067073
   100  H    0.060298
   101  H    0.043723
   102  H    0.037328
   103  H    0.049495
   104  H    0.018800
   105  H    0.043537
   106  H    0.019877
   107  H    0.057050
   108  H    0.019706
   109  H    0.027518
   110  H    0.016484
   111  H    0.009640
   112  H    0.016017
   113  H    0.021513
   114  H    0.023938
   115  H    0.019239
   116  H    0.023764
   117  H    0.042262
   118  H    0.020486
   119  H    0.010452
   120  H    0.024474
   121  H    0.006997
   122  H    0.029869
   123  H    0.020990
   124  H    0.021284
   125  H    0.022479
   126  H    0.020452
   127  H    0.040273
   128  H    0.020976
   129  H    0.014091
   130  H    0.025096
   131  H    0.019222
   132  H    0.007130
   133  H    0.024947
   134  H    0.016886
   135  H    0.026144
   136  H    0.027137
   137  H    0.031324
   138  H    0.015554
   139  H    0.013588
   140  H    0.040543
 Sum of Mulliken charges =  -0.00000

 Dipole moment (field-independent basis, Debye):
    X=              3.7617    Y=              1.2918    Z=             -1.2114  Tot=              4.1577
 Quadrupole moment (field-independent basis, Debye-Ang):
   XX=           -382.1378   YY=           -427.7863   ZZ=           -401.7467
   XY=            -32.6663   XZ=              2.6012   YZ=              5.8263

 Normal termination of Gaussian 16 at Sat Apr 30 05:16:05 2022.
