 Gaussian 16, Revision A.03,
 Gaussian 16:  ES64L-G16RevA.03 25-Dec-2016

 --------------------
 #p ZINDO=(nstates=5)
 --------------------

 -----------------------------
 step_601_chromophore_15 ZINDO
 -----------------------------
 Symbolic Z-matrix:
 Charge =  0 Multiplicity = 1

                         Standard orientation:
 ---------------------------------------------------------------------
 Center     Atomic      Atomic             Coordinates (Angstroms)
 Number     Number       Type             X           Y           Z
 ---------------------------------------------------------------------
      1         12           0       -4.768009    1.074321    0.121408
      2          6           0       -4.476443   -2.489879    0.699057
      3          6           0       -1.281449    1.057971    0.080191
      4          6           0       -4.905672    4.394057    0.107915
      5          6           0       -8.183878    0.842155    0.570268
      6          7           0       -3.096659   -0.505764    0.197204
      7          6           0       -3.282651   -1.869377    0.444985
      8          6           0       -1.897965   -2.521260    0.228423
      9          6           0       -0.788493   -1.419736    0.338726
     10          6           0       -1.740889   -0.201899    0.178949
     11          6           0       -0.059190   -1.442032    1.669641
     12          6           0       -1.930154   -3.369141   -1.088293
     13          6           0       -0.770176   -3.392289   -2.103480
     14          6           0        0.661556   -3.739937   -1.637156
     15          8           0        1.088400   -3.894383   -0.515011
     16          8           0        1.406318   -3.791438   -2.787450
     17          7           0       -3.242704    2.513209   -0.043879
     18          6           0       -1.904502    2.341109   -0.087995
     19          6           0       -1.304745    3.648752   -0.293893
     20          6           0       -2.356323    4.655244   -0.265370
     21          6           0       -3.580197    3.863813   -0.045916
     22          6           0        0.202039    3.801220   -0.214359
     23          6           0       -2.327548    6.159289   -0.431353
     24          8           0       -3.315970    6.942150   -0.405228
     25          6           0       -0.949379    6.858813   -0.692234
     26          7           0       -6.302569    2.389909    0.557282
     27          6           0       -6.099851    3.789388    0.382362
     28          6           0       -7.470183    4.503490    0.402586
     29          6           0       -8.500006    3.320445    0.398711
     30          6           0       -7.667707    2.133218    0.610846
     31          6           0       -7.597153    5.329832    1.715592
     32          6           0       -9.235814    3.284868   -0.944632
     33          6           0      -10.760940    3.143042   -0.935462
     34          7           0       -6.042181   -0.502420    0.537671
     35          6           0       -7.436341   -0.385415    0.700587
     36          6           0       -7.935297   -1.762540    0.796606
     37          6           0       -6.785820   -2.587790    0.926768
     38          6           0       -5.676043   -1.805086    0.777741
     39          6           0       -9.395996   -2.247466    0.701248
     40          6           0       -6.403078   -3.930247    1.141878
     41          8           0       -7.117538   -4.923538    1.361199
     42          6           0       -4.859050   -3.949549    1.195304
     43          6           0       -4.266209   -5.067351    0.448659
     44          8           0       -4.583099   -5.496206   -0.650575
     45          8           0       -3.267871   -5.683141    1.245060
     46          6           0       -2.684784   -6.944412    0.753262
     47          6           0        2.764878   -4.305419   -2.736218
     48          6           0        3.691493   -3.068868   -2.512775
     49          6           0        4.368593   -2.794528   -1.409522
     50          6           0        4.429033   -3.501853   -0.073755
     51          6           0        5.080097   -1.478471   -1.358493
     52          6           0        6.463353   -1.591198   -2.008014
     53          6           0        6.773813   -0.512523   -3.085477
     54          6           0        7.705531    0.594654   -2.563281
     55          6           0        7.657398    1.868708   -3.501818
     56          6           0        9.162060    0.159102   -2.441416
     57          6           0        9.755323    0.719992   -1.085920
     58          6           0       10.684018    1.909212   -1.422592
     59          6           0       11.156304    2.752826   -0.221012
     60          6           0       11.754891    4.175409   -0.617542
     61          6           0       12.133582    1.866585    0.736847
     62          6           0       11.404879    1.366412    1.964719
     63          6           0       12.043295    0.090968    2.633359
     64          6           0       12.042617    0.127633    4.172695
     65          6           0       13.267594   -0.523084    4.773657
     66          6           0       10.793982   -0.524868    4.742308
     67          1           0       -0.198035    1.184145    0.130099
     68          1           0       -5.085679    5.464716   -0.011943
     69          1           0       -9.263720    0.698174    0.649206
     70          1           0       -1.775076   -3.258657    1.020766
     71          1           0       -0.036420   -1.386573   -0.450239
     72          1           0        0.937914   -1.809552    1.427934
     73          1           0       -0.531090   -2.122595    2.378787
     74          1           0        0.103008   -0.491039    2.176270
     75          1           0       -2.777011   -3.024676   -1.681782
     76          1           0       -2.063008   -4.402900   -0.769395
     77          1           0       -0.732001   -2.363256   -2.460161
     78          1           0       -1.160795   -3.991501   -2.926765
     79          1           0        0.553180    4.546295    0.498565
     80          1           0        0.620466    4.197720   -1.139605
     81          1           0        0.824632    2.958587    0.084247
     82          1           0       -1.098981    7.909358   -0.941695
     83          1           0       -0.512657    6.297761   -1.518207
     84          1           0       -0.296265    6.823091    0.180100
     85          1           0       -7.484231    5.194841   -0.439660
     86          1           0       -9.216315    3.374729    1.217972
     87          1           0       -7.056270    6.263399    1.558666
     88          1           0       -6.964119    4.774414    2.407587
     89          1           0       -8.656081    5.403690    1.961889
     90          1           0       -8.900089    2.401122   -1.486247
     91          1           0       -8.837454    4.055879   -1.604383
     92          1           0      -11.151432    3.159375    0.082126
     93          1           0      -11.140460    2.285037   -1.490993
     94          1           0      -11.058430    4.053513   -1.455319
     95          1           0       -9.529078   -3.315233    0.876169
     96          1           0       -9.889348   -2.035784   -0.248289
     97          1           0       -9.932512   -1.762338    1.517328
     98          1           0       -4.669361   -4.039063    2.264745
     99          1           0       -3.224185   -7.399781   -0.076357
    100          1           0       -2.407299   -7.745376    1.438926
    101          1           0       -1.729600   -6.576340    0.379698
    102          1           0        2.903915   -4.657084   -3.758132
    103          1           0        2.919321   -5.055734   -1.961064
    104          1           0        3.910127   -2.415487   -3.356970
    105          1           0        5.441630   -3.836193    0.151939
    106          1           0        3.837502   -4.415923   -0.112420
    107          1           0        3.943546   -2.831182    0.633721
    108          1           0        5.178935   -1.054550   -0.358954
    109          1           0        4.440336   -0.776011   -1.891658
    110          1           0        6.647989   -2.601750   -2.372498
    111          1           0        7.246822   -1.656955   -1.251846
    112          1           0        5.864675    0.017701   -3.370570
    113          1           0        7.183123   -1.105177   -3.903463
    114          1           0        7.256602    0.836256   -1.599740
    115          1           0        6.823262    1.928717   -4.200595
    116          1           0        8.490257    1.802530   -4.202387
    117          1           0        7.649901    2.756444   -2.869608
    118          1           0        9.838378    0.525497   -3.212533
    119          1           0        9.183289   -0.924658   -2.557625
    120          1           0       10.147340   -0.030174   -0.398879
    121          1           0        8.902897    1.095933   -0.520560
    122          1           0       10.240463    2.390589   -2.293346
    123          1           0       11.605375    1.367269   -1.638226
    124          1           0       10.287192    3.065248    0.357267
    125          1           0       12.094368    4.067251   -1.647198
    126          1           0       12.653898    4.387902   -0.039561
    127          1           0       11.067755    5.013447   -0.501304
    128          1           0       13.055525    2.379626    1.012722
    129          1           0       12.476851    0.968822    0.222757
    130          1           0       10.400414    1.056814    1.673481
    131          1           0       11.419350    2.151613    2.720601
    132          1           0       13.079430    0.134366    2.300031
    133          1           0       11.570695   -0.779402    2.178571
    134          1           0       12.087785    1.180248    4.452521
    135          1           0       13.832669    0.353042    5.090716
    136          1           0       13.824847   -1.006681    3.971455
    137          1           0       12.968526   -1.187318    5.585690
    138          1           0        9.948241   -0.075490    4.223337
    139          1           0       10.546324   -0.160838    5.739838
    140          1           0       10.796792   -1.605764    4.880200
 ---------------------------------------------------------------------

 SCF Done:  E(RZINDO/S) =  -474.096379286     A.U. after   19 cycles

 Excitation energies and oscillator strengths:

 Excited State   1:      Singlet-A      1.1887 eV 1043.00 nm  f=0.6663  <S**2>=0.000
     175 ->178         0.16922
     176 ->177         0.66844
 This state for optimization and/or second-order correction.
 Total Energy, E(CIS/TDA) =  -474.052694472
 Copying the excited state density for this state as the 1-particle RhoCI density.

 Excited State   2:      Singlet-A      1.9445 eV  637.61 nm  f=0.1200  <S**2>=0.000
     175 ->177         0.58719
     176 ->178        -0.36282

 Excited State   3:      Singlet-A      2.8746 eV  431.31 nm  f=0.0053  <S**2>=0.000
     168 ->177         0.35966
     168 ->178        -0.10625
     168 ->179        -0.38961
     168 ->180         0.22932
     168 ->185        -0.18202
     172 ->177         0.14504

 Excited State   4:      Singlet-A      2.9524 eV  419.95 nm  f=0.0018  <S**2>=0.000
     171 ->177         0.41938
     172 ->177        -0.31419
     174 ->177         0.39272

 Excited State   5:      Singlet-A      2.9599 eV  418.88 nm  f=0.0062  <S**2>=0.000
     169 ->177         0.21077
     169 ->178        -0.14836
     169 ->179         0.26027
     169 ->180         0.30783
     169 ->185         0.14056
     169 ->187         0.13939
     170 ->177         0.17928
     170 ->178        -0.10800
     170 ->179         0.19006
     170 ->180         0.22825
     170 ->185         0.10411
     174 ->177         0.10118

 The electronic state is 1-A.
 Alpha  occ. eigenvalues --   -1.83947  -1.80296  -1.78499  -1.73298  -1.70418
 Alpha  occ. eigenvalues --   -1.69990  -1.65993  -1.61766  -1.58745  -1.56541
 Alpha  occ. eigenvalues --   -1.54550  -1.51488  -1.49364  -1.47129  -1.46934
 Alpha  occ. eigenvalues --   -1.44750  -1.42667  -1.40407  -1.38469  -1.37710
 Alpha  occ. eigenvalues --   -1.36407  -1.32792  -1.32020  -1.31499  -1.28510
 Alpha  occ. eigenvalues --   -1.27193  -1.24664  -1.22067  -1.20148  -1.18826
 Alpha  occ. eigenvalues --   -1.17625  -1.16061  -1.15616  -1.14554  -1.13528
 Alpha  occ. eigenvalues --   -1.12555  -1.10487  -1.08942  -1.05289  -1.04128
 Alpha  occ. eigenvalues --   -1.03534  -1.01313  -0.99056  -0.97554  -0.97009
 Alpha  occ. eigenvalues --   -0.96011  -0.94971  -0.92589  -0.92213  -0.91945
 Alpha  occ. eigenvalues --   -0.91645  -0.91113  -0.88592  -0.87785  -0.86748
 Alpha  occ. eigenvalues --   -0.85802  -0.83617  -0.83112  -0.81473  -0.80949
 Alpha  occ. eigenvalues --   -0.79970  -0.79862  -0.78258  -0.77519  -0.76555
 Alpha  occ. eigenvalues --   -0.76257  -0.75043  -0.74899  -0.73861  -0.73080
 Alpha  occ. eigenvalues --   -0.72348  -0.72241  -0.72005  -0.71215  -0.70524
 Alpha  occ. eigenvalues --   -0.70192  -0.69360  -0.68445  -0.68280  -0.67658
 Alpha  occ. eigenvalues --   -0.67388  -0.66886  -0.66415  -0.66130  -0.65505
 Alpha  occ. eigenvalues --   -0.64693  -0.64462  -0.64129  -0.63978  -0.63334
 Alpha  occ. eigenvalues --   -0.62921  -0.62752  -0.62572  -0.62159  -0.62083
 Alpha  occ. eigenvalues --   -0.61625  -0.60898  -0.60301  -0.59815  -0.59473
 Alpha  occ. eigenvalues --   -0.59116  -0.58891  -0.58694  -0.58579  -0.58234
 Alpha  occ. eigenvalues --   -0.57960  -0.57826  -0.57505  -0.56589  -0.56439
 Alpha  occ. eigenvalues --   -0.56042  -0.55730  -0.55589  -0.54958  -0.54893
 Alpha  occ. eigenvalues --   -0.54131  -0.54012  -0.53781  -0.53288  -0.52772
 Alpha  occ. eigenvalues --   -0.52710  -0.52314  -0.52056  -0.52024  -0.51640
 Alpha  occ. eigenvalues --   -0.51411  -0.51277  -0.50413  -0.50052  -0.49968
 Alpha  occ. eigenvalues --   -0.49848  -0.49549  -0.49367  -0.49219  -0.48696
 Alpha  occ. eigenvalues --   -0.48617  -0.48338  -0.48065  -0.47894  -0.47560
 Alpha  occ. eigenvalues --   -0.47386  -0.46860  -0.46579  -0.46520  -0.45821
 Alpha  occ. eigenvalues --   -0.45713  -0.45414  -0.45169  -0.45082  -0.44853
 Alpha  occ. eigenvalues --   -0.44784  -0.44777  -0.44319  -0.44030  -0.43764
 Alpha  occ. eigenvalues --   -0.43513  -0.43315  -0.42908  -0.42564  -0.42219
 Alpha  occ. eigenvalues --   -0.41913  -0.41575  -0.41139  -0.39680  -0.39573
 Alpha  occ. eigenvalues --   -0.38695  -0.37220  -0.35514  -0.34978  -0.34683
 Alpha  occ. eigenvalues --   -0.33307  -0.33003  -0.32160  -0.32056  -0.27251
 Alpha  occ. eigenvalues --   -0.22165
 Alpha virt. eigenvalues --   -0.09553  -0.01731  -0.00696   0.00865   0.01722
 Alpha virt. eigenvalues --    0.01878   0.02494   0.02651   0.04835   0.05518
 Alpha virt. eigenvalues --    0.06172   0.06352   0.07476   0.07599   0.07749

 Mulliken charges:
               1
     1  Mg   0.424749
     2  C   -0.046194
     3  C   -0.064946
     4  C   -0.048193
     5  C   -0.070333
     6  N   -0.314149
     7  C    0.154655
     8  C    0.011554
     9  C    0.009607
    10  C    0.119091
    11  C   -0.046902
    12  C   -0.028245
    13  C    0.002593
    14  C    0.476271
    15  O   -0.510236
    16  O   -0.275200
    17  N   -0.309978
    18  C    0.099375
    19  C   -0.007454
    20  C   -0.053102
    21  C    0.122999
    22  C   -0.047377
    23  C    0.322041
    24  O   -0.540894
    25  C   -0.033111
    26  N   -0.293770
    27  C    0.109709
    28  C   -0.004160
    29  C    0.017444
    30  C    0.165564
    31  C   -0.058771
    32  C   -0.031281
    33  C   -0.056793
    34  N   -0.344360
    35  C    0.107899
    36  C    0.047918
    37  C   -0.038984
    38  C    0.139156
    39  C   -0.038056
    40  C    0.334712
    41  O   -0.528088
    42  C    0.062192
    43  C    0.492891
    44  O   -0.506365
    45  O   -0.286997
    46  C    0.069550
    47  C    0.101087
    48  C   -0.104144
    49  C    0.015278
    50  C   -0.041411
    51  C   -0.020507
    52  C   -0.037936
    53  C   -0.034135
    54  C   -0.008328
    55  C   -0.066701
    56  C   -0.034569
    57  C   -0.046671
    58  C   -0.036158
    59  C   -0.019047
    60  C   -0.064852
    61  C   -0.033940
    62  C   -0.041320
    63  C   -0.041308
    64  C   -0.006270
    65  C   -0.062596
    66  C   -0.059118
    67  H    0.014242
    68  H    0.047707
    69  H    0.028600
    70  H    0.024339
    71  H    0.043354
    72  H    0.020713
    73  H    0.022948
    74  H    0.022185
    75  H    0.024990
    76  H    0.031347
    77  H    0.038885
    78  H    0.046816
    79  H    0.018178
    80  H    0.022360
    81  H    0.026262
    82  H    0.038332
    83  H    0.032087
    84  H    0.037217
    85  H    0.038010
    86  H    0.034566
    87  H    0.026931
    88  H    0.027525
    89  H    0.029554
    90  H    0.012091
    91  H    0.027444
    92  H    0.022800
    93  H    0.027379
    94  H    0.017810
    95  H    0.036738
    96  H    0.035585
    97  H    0.025459
    98  H    0.062517
    99  H    0.052226
   100  H    0.045830
   101  H    0.025922
   102  H    0.033881
   103  H    0.057958
   104  H    0.032196
   105  H    0.033164
   106  H    0.017622
   107  H    0.038568
   108  H    0.017685
   109  H    0.018132
   110  H    0.013757
   111  H    0.013053
   112  H    0.019812
   113  H    0.020871
   114  H    0.026067
   115  H    0.014859
   116  H    0.019446
   117  H    0.022240
   118  H    0.022538
   119  H    0.014578
   120  H    0.025562
   121  H    0.009126
   122  H    0.035076
   123  H    0.017009
   124  H    0.014767
   125  H    0.015601
   126  H    0.017053
   127  H    0.026269
   128  H    0.021747
   129  H    0.017026
   130  H    0.020992
   131  H    0.021000
   132  H    0.010733
   133  H    0.023454
   134  H    0.021376
   135  H    0.017183
   136  H    0.022198
   137  H    0.027215
   138  H    0.011779
   139  H    0.003830
   140  H    0.032250
 Sum of Mulliken charges =  -0.00000

 Dipole moment (field-independent basis, Debye):
    X=              3.8475    Y=              1.1019    Z=             -0.5295  Tot=              4.0371
 N-N= 4.369909234136D+03 E-N= 0.000000000000D+00  KE=-9.414120453660D+03
 Leave Link  601 at Sat Apr 30 05:29:52 2022, MaxMem=  6710886400 cpu:               1.7 elap:               0.1
 (Enter /sw/apps/gaussian-16.0/g16/l9999.exe)
 1\1\GINC-BP1-COMPUTE161\SP\RZINDO CIS\STO-3G\C55H74Mg1N4O6\OF15641\30-
 Apr-2022\0\\#p ZINDO=(nstates=5)\\step_601_chromophore_15 ZINDO\\0,1\M
 g,0,46.399,34.531,27.933\C,0,44.267,32.666,30.191\C,0,46.375,36.989,30
 .406\C,0,47.915,36.525,25.75\C,0,45.946,32.092,25.531\N,0,45.591,34.74
 6,30.077\C,0,44.756,33.829,30.723\C,0,44.633,34.336,32.178\C,0,45.016,
 35.855,32.227\C,0,45.724,35.897,30.844\C,0,43.808,36.77,32.312\C,0,45.
 424,33.372,33.126\C,0,46.301,33.87,34.292\C,0,45.706,34.813,35.362\O,0

 Normal termination of Gaussian 16 at Sat Apr 30 05:29:52 2022.
