 Gaussian 16, Revision A.03,
 Gaussian 16:  ES64L-G16RevA.03 25-Dec-2016

 ------------------------------
 #p blyp/Def2SVP td=(nstates=5)
 ------------------------------

 --------------------------------------------------
 step_401_chromophore_25 TDDFT with blyp functional
 --------------------------------------------------
 Symbolic Z-matrix:
 Charge =  0 Multiplicity = 1

                         Standard orientation:
 ---------------------------------------------------------------------
 Center     Atomic      Atomic             Coordinates (Angstroms)
 Number     Number       Type             X           Y           Z
 ---------------------------------------------------------------------
      1         12           0        6.163402    0.430801    0.090096
      2          6           0        3.487971   -1.951521   -0.122583
      3          6           0        3.735347    2.866786   -0.315319
      4          6           0        8.720262    2.558201   -0.528436
      5          6           0        8.301799   -2.137834    0.757570
      6          7           0        3.879377    0.429250   -0.256246
      7          6           0        2.985824   -0.632217   -0.132807
      8          6           0        1.537181   -0.165217   -0.148081
      9          6           0        1.629887    1.323143   -0.472306
     10          6           0        3.144770    1.579061   -0.336970
     11          6           0        0.993604    1.770787   -1.818123
     12          6           0        0.671742   -0.580044    1.128079
     13          6           0       -0.576919   -1.501688    0.794868
     14          6           0       -1.912638   -1.149366    1.431877
     15          8           0       -2.114127   -1.234024    2.641408
     16          8           0       -2.862798   -0.699160    0.501993
     17          7           0        6.184245    2.455092   -0.404752
     18          6           0        5.102901    3.258103   -0.386009
     19          6           0        5.666822    4.625406   -0.487807
     20          6           0        7.059506    4.504122   -0.625527
     21          6           0        7.406112    3.115233   -0.441016
     22          6           0        4.741224    5.794913   -0.549703
     23          6           0        8.053649    5.617338   -0.884570
     24          8           0        9.248500    5.480022   -0.618070
     25          6           0        7.596847    7.000368   -1.488911
     26          7           0        8.204276    0.292760   -0.054832
     27          6           0        9.103740    1.262986   -0.219368
     28          6           0       10.564442    0.716336   -0.012484
     29          6           0       10.320031   -0.614540    0.773454
     30          6           0        8.834082   -0.838607    0.491049
     31          6           0       11.352130    0.510631   -1.337385
     32          6           0       10.631649   -0.609316    2.296661
     33          6           0       11.182694   -1.980945    2.721229
     34          7           0        5.999030   -1.647415    0.157073
     35          6           0        6.952467   -2.518320    0.649768
     36          6           0        6.310402   -3.873596    0.795553
     37          6           0        4.996988   -3.716074    0.504269
     38          6           0        4.824494   -2.360670    0.095497
     39          6           0        7.075479   -5.112948    1.087386
     40          6           0        3.661194   -4.355123    0.433763
     41          8           0        3.335370   -5.523609    0.602282
     42          6           0        2.707014   -3.233726    0.027966
     43          6           0        2.030856   -3.597227   -1.229340
     44          8           0        2.449540   -3.422049   -2.360938
     45          8           0        0.797139   -4.145473   -0.910391
     46          6           0       -0.094745   -4.458819   -1.932510
     47          6           0       -4.222780   -0.582335    0.998600
     48          6           0       -5.198815   -0.730464   -0.083650
     49          6           0       -6.111031   -1.744895   -0.368658
     50          6           0       -5.978192   -3.071571    0.161007
     51          6           0       -7.267587   -1.495597   -1.350612
     52          6           0       -8.469353   -0.768314   -0.817678
     53          6           0       -9.194194    0.242685   -1.723734
     54          6           0      -10.381503   -0.408163   -2.512824
     55          6           0      -10.153794   -0.859874   -3.971098
     56          6           0      -11.578497    0.581745   -2.513680
     57          6           0      -12.924665   -0.132667   -2.100430
     58          6           0      -13.913733    0.813515   -1.428349
     59          6           0      -14.343177    0.272449    0.007425
     60          6           0      -15.891080   -0.184396    0.038689
     61          6           0      -14.049720    1.171966    1.269950
     62          6           0      -12.641277    0.939025    1.812812
     63          6           0      -11.789165    2.265012    1.849817
     64          6           0      -11.123550    2.498643    3.243415
     65          6           0      -12.158910    3.139403    4.157475
     66          6           0       -9.821065    3.368256    3.190774
     67          1           0        3.078962    3.733092   -0.424321
     68          1           0        9.536308    3.196886   -0.871422
     69          1           0        8.778798   -3.043914    1.137117
     70          1           0        1.055972   -0.675728   -0.982706
     71          1           0        1.054803    1.882102    0.265626
     72          1           0       -0.089878    1.683069   -1.736306
     73          1           0        1.307382    1.058790   -2.581588
     74          1           0        1.245725    2.807710   -2.040460
     75          1           0        0.283820    0.347366    1.549766
     76          1           0        1.216120   -1.062358    1.940892
     77          1           0       -0.380474   -2.524384    1.114913
     78          1           0       -0.825340   -1.499912   -0.265757
     79          1           0        5.314390    6.671305   -0.246138
     80          1           0        3.946060    5.704647    0.190138
     81          1           0        4.212155    5.835457   -1.502347
     82          1           0        8.440847    7.310983   -2.106004
     83          1           0        7.488714    7.660423   -0.628922
     84          1           0        6.634516    6.935027   -1.996272
     85          1           0       11.054448    1.530953    0.521458
     86          1           0       10.732704   -1.440930    0.196451
     87          1           0       12.200737    1.179345   -1.480074
     88          1           0       10.732107    0.767837   -2.196915
     89          1           0       11.750085   -0.498899   -1.440435
     90          1           0        9.663936   -0.464024    2.777292
     91          1           0       11.434688    0.122386    2.386603
     92          1           0       11.813883   -1.818455    3.594901
     93          1           0       11.814409   -2.324624    1.902664
     94          1           0       10.408828   -2.696164    3.001617
     95          1           0        6.570703   -5.850144    1.711204
     96          1           0        8.067806   -4.895636    1.482993
     97          1           0        7.121978   -5.612554    0.120456
     98          1           0        1.986334   -3.037739    0.822071
     99          1           0       -0.731611   -3.579066   -2.019991
    100          1           0       -0.729364   -5.323654   -1.740926
    101          1           0        0.516769   -4.657262   -2.813464
    102          1           0       -4.225897    0.362734    1.540552
    103          1           0       -4.401578   -1.346532    1.754802
    104          1           0       -5.317104    0.221580   -0.600365
    105          1           0       -5.383499   -2.968596    1.068027
    106          1           0       -5.383482   -3.721696   -0.480052
    107          1           0       -6.912479   -3.595495    0.362449
    108          1           0       -7.718759   -2.398825   -1.761440
    109          1           0       -6.859724   -0.994598   -2.229114
    110          1           0       -8.236319   -0.236161    0.104503
    111          1           0       -9.099892   -1.532418   -0.364732
    112          1           0       -8.497855    0.716188   -2.416895
    113          1           0       -9.462995    1.010891   -0.999199
    114          1           0      -10.714698   -1.291884   -1.969387
    115          1           0       -9.325357   -1.563644   -4.044105
    116          1           0      -10.209093   -0.023488   -4.667091
    117          1           0      -11.121392   -1.343340   -4.106526
    118          1           0      -11.840555    1.035714   -3.469638
    119          1           0      -11.359264    1.484768   -1.943651
    120          1           0      -12.779090   -1.146347   -1.726497
    121          1           0      -13.353393   -0.378261   -3.071982
    122          1           0      -14.808196    0.913044   -2.042523
    123          1           0      -13.499535    1.814255   -1.306657
    124          1           0      -13.824184   -0.645977    0.279463
    125          1           0      -15.959115   -1.271534    0.014706
    126          1           0      -16.369685    0.065897   -0.908591
    127          1           0      -16.537543    0.149725    0.850535
    128          1           0      -14.734044    0.829558    2.046733
    129          1           0      -14.297278    2.227597    1.158576
    130          1           0      -12.081514    0.301846    1.128543
    131          1           0      -12.551280    0.403940    2.758333
    132          1           0      -12.447340    3.105572    1.627026
    133          1           0      -10.994623    2.286545    1.104929
    134          1           0      -10.911079    1.511116    3.651200
    135          1           0      -12.194489    2.551581    5.073831
    136          1           0      -13.148271    3.108229    3.701329
    137          1           0      -11.750109    4.130431    4.356623
    138          1           0       -9.007098    2.651345    3.077580
    139          1           0       -9.602202    3.932122    4.097908
    140          1           0       -9.965929    4.118876    2.414654
 ---------------------------------------------------------------------

 SCF Done:  E(RB-LYP) =  -3007.36958731     A.U. after   21 cycles

 Excitation energies and oscillator strengths:

 Excited State   1:      Singlet-A      1.7822 eV  695.67 nm  f=0.2881  <S**2>=0.000
     245 -> 248        0.19660
     246 -> 247        0.68635
     246 <- 247       -0.14799
 This state for optimization and/or second-order correction.
 Total Energy, E(TD-HF/TD-DFT) =  -3007.30409190
 Copying the excited state density for this state as the 1-particle RhoCI density.

 Excited State   2:      Singlet-A      1.9151 eV  647.42 nm  f=0.0194  <S**2>=0.000
     244 -> 247        0.55342
     245 -> 247        0.41227
     246 -> 248       -0.12129

 Excited State   3:      Singlet-A      2.0514 eV  604.38 nm  f=0.0397  <S**2>=0.000
     243 -> 247       -0.10958
     244 -> 247       -0.42704
     245 -> 247        0.48648
     246 -> 248       -0.24664

 Excited State   4:      Singlet-A      2.2536 eV  550.15 nm  f=0.0034  <S**2>=0.000
     243 -> 247        0.69252

 Excited State   5:      Singlet-A      2.4272 eV  510.80 nm  f=0.0002  <S**2>=0.000
     242 -> 247        0.70065

 The electronic state is 1-A.
 Alpha  occ. eigenvalues --  -46.26793 -18.81662 -18.81601 -18.77293 -18.76797
 Alpha  occ. eigenvalues --  -18.76362 -18.75511 -14.03320 -14.03163 -14.00815
 Alpha  occ. eigenvalues --  -14.00805 -10.04174 -10.03971 -10.00386  -9.99918
 Alpha  occ. eigenvalues --   -9.97318  -9.97042  -9.96912  -9.96832  -9.96756
 Alpha  occ. eigenvalues --   -9.95907  -9.95826  -9.95447  -9.95412  -9.94696
 Alpha  occ. eigenvalues --   -9.94685  -9.94562  -9.94406  -9.94284  -9.93942
 Alpha  occ. eigenvalues --   -9.93787  -9.93783  -9.93772  -9.93471  -9.93327
 Alpha  occ. eigenvalues --   -9.93295  -9.93137  -9.93067  -9.93022  -9.92923
 Alpha  occ. eigenvalues --   -9.92843  -9.92565  -9.92515  -9.92268  -9.92223
 Alpha  occ. eigenvalues --   -9.92187  -9.92179  -9.92110  -9.92072  -9.92063
 Alpha  occ. eigenvalues --   -9.92027  -9.91940  -9.91734  -9.91607  -9.91462
 Alpha  occ. eigenvalues --   -9.91450  -9.91408  -9.91336  -9.91213  -9.91142
 Alpha  occ. eigenvalues --   -9.91122  -9.91058  -9.91020  -9.90895  -9.90740
 Alpha  occ. eigenvalues --   -9.90230  -2.91469  -1.71885  -1.71355  -1.71182
 Alpha  occ. eigenvalues --   -0.98362  -0.96787  -0.91772  -0.90971  -0.90829
 Alpha  occ. eigenvalues --   -0.89566  -0.86144  -0.85591  -0.85117  -0.84516
 Alpha  occ. eigenvalues --   -0.76064  -0.74205  -0.72871  -0.72715  -0.72693
 Alpha  occ. eigenvalues --   -0.72038  -0.71089  -0.70655  -0.70522  -0.70044
 Alpha  occ. eigenvalues --   -0.69880  -0.69410  -0.68535  -0.67943  -0.67466
 Alpha  occ. eigenvalues --   -0.66762  -0.66138  -0.65482  -0.65162  -0.63987
 Alpha  occ. eigenvalues --   -0.63937  -0.62839  -0.62436  -0.61736  -0.61291
 Alpha  occ. eigenvalues --   -0.60726  -0.59822  -0.59565  -0.59058  -0.58848
 Alpha  occ. eigenvalues --   -0.58427  -0.57540  -0.56684  -0.56006  -0.54437
 Alpha  occ. eigenvalues --   -0.54031  -0.53822  -0.52418  -0.52282  -0.51596
 Alpha  occ. eigenvalues --   -0.51409  -0.51193  -0.50862  -0.50531  -0.50349
 Alpha  occ. eigenvalues --   -0.49478  -0.49254  -0.48527  -0.48285  -0.47049
 Alpha  occ. eigenvalues --   -0.46596  -0.46047  -0.45804  -0.45551  -0.45393
 Alpha  occ. eigenvalues --   -0.43951  -0.43843  -0.43471  -0.43051  -0.42452
 Alpha  occ. eigenvalues --   -0.41882  -0.41584  -0.41551  -0.41214  -0.41117
 Alpha  occ. eigenvalues --   -0.40809  -0.40685  -0.40469  -0.40312  -0.40111
 Alpha  occ. eigenvalues --   -0.39783  -0.39692  -0.39484  -0.39325  -0.39176
 Alpha  occ. eigenvalues --   -0.38927  -0.38802  -0.38716  -0.38484  -0.38462
 Alpha  occ. eigenvalues --   -0.38252  -0.38055  -0.37576  -0.37461  -0.37413
 Alpha  occ. eigenvalues --   -0.37345  -0.37170  -0.36888  -0.36554  -0.36411
 Alpha  occ. eigenvalues --   -0.36255  -0.36131  -0.35972  -0.35950  -0.35452
 Alpha  occ. eigenvalues --   -0.35417  -0.35139  -0.35085  -0.34899  -0.34709
 Alpha  occ. eigenvalues --   -0.34514  -0.34498  -0.34423  -0.34086  -0.33910
 Alpha  occ. eigenvalues --   -0.33767  -0.33727  -0.33710  -0.33393  -0.33127
 Alpha  occ. eigenvalues --   -0.33062  -0.32874  -0.32806  -0.32689  -0.32543
 Alpha  occ. eigenvalues --   -0.32101  -0.31938  -0.31910  -0.31752  -0.31698
 Alpha  occ. eigenvalues --   -0.31317  -0.31192  -0.31118  -0.30872  -0.30671
 Alpha  occ. eigenvalues --   -0.30503  -0.30427  -0.30236  -0.30010  -0.29990
 Alpha  occ. eigenvalues --   -0.29883  -0.29545  -0.29209  -0.29066  -0.29056
 Alpha  occ. eigenvalues --   -0.28664  -0.28574  -0.28359  -0.28297  -0.27861
 Alpha  occ. eigenvalues --   -0.27741  -0.27280  -0.27000  -0.26460  -0.26383
 Alpha  occ. eigenvalues --   -0.26104  -0.25893  -0.25647  -0.25550  -0.24773
 Alpha  occ. eigenvalues --   -0.24686  -0.24571  -0.24145  -0.23865  -0.23811
 Alpha  occ. eigenvalues --   -0.23127  -0.22731  -0.22020  -0.21865  -0.21049
 Alpha  occ. eigenvalues --   -0.20351  -0.20249  -0.19453  -0.18439  -0.17195
 Alpha  occ. eigenvalues --   -0.15559
 Alpha virt. eigenvalues --   -0.11333  -0.06862  -0.06415  -0.05075  -0.04449
 Alpha virt. eigenvalues --   -0.03245  -0.02896  -0.02403  -0.01725   0.00026
 Alpha virt. eigenvalues --    0.01219   0.01325   0.01914   0.02619   0.02837

 Mulliken charges:
               1
     1  Mg   0.677992
     2  C    0.017563
     3  C   -0.054092
     4  C   -0.044982
     5  C   -0.025827
     6  N   -0.188379
     7  C   -0.073554
     8  C    0.046122
     9  C    0.011864
    10  C    0.046520
    11  C    0.118265
    12  C    0.121134
    13  C    0.107885
    14  C    0.050438
    15  O   -0.202933
    16  O   -0.286705
    17  N   -0.294133
    18  C    0.087966
    19  C   -0.151090
    20  C    0.049680
    21  C    0.130349
    22  C    0.175832
    23  C   -0.090726
    24  O   -0.184067
    25  C    0.118314
    26  N   -0.249514
    27  C    0.015271
    28  C    0.018258
    29  C    0.016426
    30  C    0.055569
    31  C    0.121791
    32  C    0.147346
    33  C    0.065320
    34  N   -0.269895
    35  C    0.024544
    36  C   -0.187601
    37  C    0.103004
    38  C    0.040316
    39  C    0.165960
    40  C   -0.017456
    41  O   -0.120131
    42  C    0.050472
    43  C    0.118895
    44  O   -0.166667
    45  O   -0.262017
    46  C    0.206507
    47  C    0.305798
    48  C   -0.064128
    49  C   -0.143390
    50  C    0.174195
    51  C    0.146050
    52  C    0.036979
    53  C    0.137159
    54  C   -0.054472
    55  C    0.135375
    56  C    0.046909
    57  C    0.056499
    58  C    0.162011
    59  C   -0.083650
    60  C    0.075346
    61  C    0.108089
    62  C    0.070734
    63  C    0.072635
    64  C   -0.147115
    65  C    0.128466
    66  C    0.110232
    67  H   -0.069351
    68  H   -0.038218
    69  H   -0.078166
    70  H   -0.016465
    71  H   -0.031910
    72  H   -0.004912
    73  H    0.003206
    74  H   -0.001676
    75  H   -0.014288
    76  H    0.002015
    77  H    0.023338
    78  H   -0.008663
    79  H   -0.012760
    80  H   -0.009236
    81  H    0.013458
    82  H    0.007678
    83  H    0.017582
    84  H   -0.002293
    85  H   -0.026913
    86  H   -0.026239
    87  H   -0.011068
    88  H   -0.006284
    89  H   -0.008014
    90  H   -0.008089
    91  H   -0.013109
    92  H   -0.014124
    93  H   -0.013462
    94  H    0.003786
    95  H    0.003088
    96  H   -0.008078
    97  H    0.012698
    98  H    0.000586
    99  H    0.001345
   100  H    0.013254
   101  H    0.014400
   102  H   -0.015235
   103  H   -0.017491
   104  H   -0.045047
   105  H   -0.022777
   106  H    0.009192
   107  H   -0.008083
   108  H   -0.041604
   109  H   -0.022456
   110  H   -0.045692
   111  H   -0.041774
   112  H   -0.035031
   113  H   -0.025324
   114  H   -0.035923
   115  H   -0.005723
   116  H   -0.013897
   117  H   -0.029327
   118  H   -0.039329
   119  H   -0.031683
   120  H   -0.025231
   121  H   -0.042155
   122  H   -0.030428
   123  H   -0.026009
   124  H   -0.028964
   125  H   -0.025376
   126  H   -0.031001
   127  H   -0.007975
   128  H   -0.045107
   129  H   -0.024889
   130  H   -0.026391
   131  H   -0.025234
   132  H   -0.034775
   133  H   -0.034932
   134  H   -0.035953
   135  H   -0.021706
   136  H   -0.014029
   137  H   -0.020427
   138  H   -0.009466
   139  H   -0.019897
   140  H   -0.009523
 Sum of Mulliken charges =  -0.00000

 Dipole moment (field-independent basis, Debye):
    X=             -2.8126    Y=              1.6832    Z=             -0.2190  Tot=              3.2851
 Quadrupole moment (field-independent basis, Debye-Ang):
   XX=           -374.8076   YY=           -417.8589   ZZ=           -415.4431
   XY=             -5.7296   XZ=             23.7714   YZ=             -1.3661

 Normal termination of Gaussian 16 at Fri Apr 29 18:40:41 2022.
