 Gaussian 16, Revision A.03,
 Gaussian 16:  ES64L-G16RevA.03 25-Dec-2016

 -----------------------------------
 #p cam-b3lyp/Def2SVP td=(nstates=5)
 -----------------------------------

 -------------------------------------------------------
 step_401_chromophore_25 TDDFT with cam-b3lyp functional
 -------------------------------------------------------
 Symbolic Z-matrix:
 Charge =  0 Multiplicity = 1

                         Standard orientation:
 ---------------------------------------------------------------------
 Center     Atomic      Atomic             Coordinates (Angstroms)
 Number     Number       Type             X           Y           Z
 ---------------------------------------------------------------------
      1         12           0        6.163402    0.430801    0.090096
      2          6           0        3.487971   -1.951521   -0.122583
      3          6           0        3.735347    2.866786   -0.315319
      4          6           0        8.720262    2.558201   -0.528436
      5          6           0        8.301799   -2.137834    0.757570
      6          7           0        3.879377    0.429250   -0.256246
      7          6           0        2.985824   -0.632217   -0.132807
      8          6           0        1.537181   -0.165217   -0.148081
      9          6           0        1.629887    1.323143   -0.472306
     10          6           0        3.144770    1.579061   -0.336970
     11          6           0        0.993604    1.770787   -1.818123
     12          6           0        0.671742   -0.580044    1.128079
     13          6           0       -0.576919   -1.501688    0.794868
     14          6           0       -1.912638   -1.149366    1.431877
     15          8           0       -2.114127   -1.234024    2.641408
     16          8           0       -2.862798   -0.699160    0.501993
     17          7           0        6.184245    2.455092   -0.404752
     18          6           0        5.102901    3.258103   -0.386009
     19          6           0        5.666822    4.625406   -0.487807
     20          6           0        7.059506    4.504122   -0.625527
     21          6           0        7.406112    3.115233   -0.441016
     22          6           0        4.741224    5.794913   -0.549703
     23          6           0        8.053649    5.617338   -0.884570
     24          8           0        9.248500    5.480022   -0.618070
     25          6           0        7.596847    7.000368   -1.488911
     26          7           0        8.204276    0.292760   -0.054832
     27          6           0        9.103740    1.262986   -0.219368
     28          6           0       10.564442    0.716336   -0.012484
     29          6           0       10.320031   -0.614540    0.773454
     30          6           0        8.834082   -0.838607    0.491049
     31          6           0       11.352130    0.510631   -1.337385
     32          6           0       10.631649   -0.609316    2.296661
     33          6           0       11.182694   -1.980945    2.721229
     34          7           0        5.999030   -1.647415    0.157073
     35          6           0        6.952467   -2.518320    0.649768
     36          6           0        6.310402   -3.873596    0.795553
     37          6           0        4.996988   -3.716074    0.504269
     38          6           0        4.824494   -2.360670    0.095497
     39          6           0        7.075479   -5.112948    1.087386
     40          6           0        3.661194   -4.355123    0.433763
     41          8           0        3.335370   -5.523609    0.602282
     42          6           0        2.707014   -3.233726    0.027966
     43          6           0        2.030856   -3.597227   -1.229340
     44          8           0        2.449540   -3.422049   -2.360938
     45          8           0        0.797139   -4.145473   -0.910391
     46          6           0       -0.094745   -4.458819   -1.932510
     47          6           0       -4.222780   -0.582335    0.998600
     48          6           0       -5.198815   -0.730464   -0.083650
     49          6           0       -6.111031   -1.744895   -0.368658
     50          6           0       -5.978192   -3.071571    0.161007
     51          6           0       -7.267587   -1.495597   -1.350612
     52          6           0       -8.469353   -0.768314   -0.817678
     53          6           0       -9.194194    0.242685   -1.723734
     54          6           0      -10.381503   -0.408163   -2.512824
     55          6           0      -10.153794   -0.859874   -3.971098
     56          6           0      -11.578497    0.581745   -2.513680
     57          6           0      -12.924665   -0.132667   -2.100430
     58          6           0      -13.913733    0.813515   -1.428349
     59          6           0      -14.343177    0.272449    0.007425
     60          6           0      -15.891080   -0.184396    0.038689
     61          6           0      -14.049720    1.171966    1.269950
     62          6           0      -12.641277    0.939025    1.812812
     63          6           0      -11.789165    2.265012    1.849817
     64          6           0      -11.123550    2.498643    3.243415
     65          6           0      -12.158910    3.139403    4.157475
     66          6           0       -9.821065    3.368256    3.190774
     67          1           0        3.078962    3.733092   -0.424321
     68          1           0        9.536308    3.196886   -0.871422
     69          1           0        8.778798   -3.043914    1.137117
     70          1           0        1.055972   -0.675728   -0.982706
     71          1           0        1.054803    1.882102    0.265626
     72          1           0       -0.089878    1.683069   -1.736306
     73          1           0        1.307382    1.058790   -2.581588
     74          1           0        1.245725    2.807710   -2.040460
     75          1           0        0.283820    0.347366    1.549766
     76          1           0        1.216120   -1.062358    1.940892
     77          1           0       -0.380474   -2.524384    1.114913
     78          1           0       -0.825340   -1.499912   -0.265757
     79          1           0        5.314390    6.671305   -0.246138
     80          1           0        3.946060    5.704647    0.190138
     81          1           0        4.212155    5.835457   -1.502347
     82          1           0        8.440847    7.310983   -2.106004
     83          1           0        7.488714    7.660423   -0.628922
     84          1           0        6.634516    6.935027   -1.996272
     85          1           0       11.054448    1.530953    0.521458
     86          1           0       10.732704   -1.440930    0.196451
     87          1           0       12.200737    1.179345   -1.480074
     88          1           0       10.732107    0.767837   -2.196915
     89          1           0       11.750085   -0.498899   -1.440435
     90          1           0        9.663936   -0.464024    2.777292
     91          1           0       11.434688    0.122386    2.386603
     92          1           0       11.813883   -1.818455    3.594901
     93          1           0       11.814409   -2.324624    1.902664
     94          1           0       10.408828   -2.696164    3.001617
     95          1           0        6.570703   -5.850144    1.711204
     96          1           0        8.067806   -4.895636    1.482993
     97          1           0        7.121978   -5.612554    0.120456
     98          1           0        1.986334   -3.037739    0.822071
     99          1           0       -0.731611   -3.579066   -2.019991
    100          1           0       -0.729364   -5.323654   -1.740926
    101          1           0        0.516769   -4.657262   -2.813464
    102          1           0       -4.225897    0.362734    1.540552
    103          1           0       -4.401578   -1.346532    1.754802
    104          1           0       -5.317104    0.221580   -0.600365
    105          1           0       -5.383499   -2.968596    1.068027
    106          1           0       -5.383482   -3.721696   -0.480052
    107          1           0       -6.912479   -3.595495    0.362449
    108          1           0       -7.718759   -2.398825   -1.761440
    109          1           0       -6.859724   -0.994598   -2.229114
    110          1           0       -8.236319   -0.236161    0.104503
    111          1           0       -9.099892   -1.532418   -0.364732
    112          1           0       -8.497855    0.716188   -2.416895
    113          1           0       -9.462995    1.010891   -0.999199
    114          1           0      -10.714698   -1.291884   -1.969387
    115          1           0       -9.325357   -1.563644   -4.044105
    116          1           0      -10.209093   -0.023488   -4.667091
    117          1           0      -11.121392   -1.343340   -4.106526
    118          1           0      -11.840555    1.035714   -3.469638
    119          1           0      -11.359264    1.484768   -1.943651
    120          1           0      -12.779090   -1.146347   -1.726497
    121          1           0      -13.353393   -0.378261   -3.071982
    122          1           0      -14.808196    0.913044   -2.042523
    123          1           0      -13.499535    1.814255   -1.306657
    124          1           0      -13.824184   -0.645977    0.279463
    125          1           0      -15.959115   -1.271534    0.014706
    126          1           0      -16.369685    0.065897   -0.908591
    127          1           0      -16.537543    0.149725    0.850535
    128          1           0      -14.734044    0.829558    2.046733
    129          1           0      -14.297278    2.227597    1.158576
    130          1           0      -12.081514    0.301846    1.128543
    131          1           0      -12.551280    0.403940    2.758333
    132          1           0      -12.447340    3.105572    1.627026
    133          1           0      -10.994623    2.286545    1.104929
    134          1           0      -10.911079    1.511116    3.651200
    135          1           0      -12.194489    2.551581    5.073831
    136          1           0      -13.148271    3.108229    3.701329
    137          1           0      -11.750109    4.130431    4.356623
    138          1           0       -9.007098    2.651345    3.077580
    139          1           0       -9.602202    3.932122    4.097908
    140          1           0       -9.965929    4.118876    2.414654
 ---------------------------------------------------------------------

 SCF Done:  E(RCAM-B3LYP) =  -3007.15786502     A.U. after   18 cycles

 Excitation energies and oscillator strengths:

 Excited State   1:      Singlet-A      1.6753 eV  740.09 nm  f=0.3602  <S**2>=0.000
     245 -> 248        0.18726
     246 -> 247        0.68470
     245 <- 248        0.11265
 This state for optimization and/or second-order correction.
 Total Energy, E(TD-HF/TD-DFT) =  -3007.09630050
 Copying the excited state density for this state as the 1-particle RhoCI density.

 Excited State   2:      Singlet-A      2.2416 eV  553.10 nm  f=0.0666  <S**2>=0.000
     245 -> 247        0.61845
     246 -> 248       -0.33538

 Excited State   3:      Singlet-A      3.4057 eV  364.05 nm  f=0.2830  <S**2>=0.000
     244 -> 247        0.50403
     245 -> 247        0.20128
     246 -> 248        0.41862

 Excited State   4:      Singlet-A      3.4981 eV  354.43 nm  f=0.4694  <S**2>=0.000
     242 -> 247       -0.11326
     244 -> 247        0.46135
     245 -> 247       -0.23898
     246 -> 248       -0.42233

 Excited State   5:      Singlet-A      3.6613 eV  338.64 nm  f=0.0012  <S**2>=0.000
     239 -> 247        0.13535
     240 -> 247        0.15965
     240 -> 249        0.18440
     240 -> 250        0.13194
     241 -> 247        0.39197
     241 -> 249        0.16694
     241 -> 250        0.20731
     242 -> 247        0.30525
     242 -> 250        0.10329
     246 -> 249       -0.10370

 The electronic state is 1-A.
 Alpha  occ. eigenvalues --  -46.88313 -19.24613 -19.24507 -19.20502 -19.19865
 Alpha  occ. eigenvalues --  -19.19741 -19.18767 -14.42259 -14.41979 -14.39278
 Alpha  occ. eigenvalues --  -14.39217 -10.39756 -10.39412 -10.35842 -10.35207
 Alpha  occ. eigenvalues --  -10.31400 -10.31341 -10.31337 -10.31275 -10.30948
 Alpha  occ. eigenvalues --  -10.30302 -10.30247 -10.29791 -10.29656 -10.28983
 Alpha  occ. eigenvalues --  -10.28767 -10.28592 -10.28525 -10.28392 -10.28237
 Alpha  occ. eigenvalues --  -10.28168 -10.27924 -10.27859 -10.27829 -10.27752
 Alpha  occ. eigenvalues --  -10.27272 -10.27149 -10.27144 -10.26775 -10.26653
 Alpha  occ. eigenvalues --  -10.26634 -10.26533 -10.26344 -10.26268 -10.26254
 Alpha  occ. eigenvalues --  -10.26182 -10.25976 -10.25938 -10.25852 -10.25809
 Alpha  occ. eigenvalues --  -10.25690 -10.25511 -10.25410 -10.25368 -10.25282
 Alpha  occ. eigenvalues --  -10.25183 -10.25048 -10.25029 -10.24991 -10.24811
 Alpha  occ. eigenvalues --  -10.24795 -10.24751 -10.24640 -10.24610 -10.24377
 Alpha  occ. eigenvalues --  -10.23801  -3.16896  -1.91785  -1.91354  -1.91198
 Alpha  occ. eigenvalues --   -1.16978  -1.15271  -1.10321  -1.09406  -1.08903
 Alpha  occ. eigenvalues --   -1.07489  -1.03844  -1.03248  -1.02697  -1.02013
 Alpha  occ. eigenvalues --   -0.93294  -0.91098  -0.89642  -0.89458  -0.89369
 Alpha  occ. eigenvalues --   -0.88758  -0.87706  -0.87251  -0.87072  -0.86618
 Alpha  occ. eigenvalues --   -0.86451  -0.85819  -0.84829  -0.84135  -0.83585
 Alpha  occ. eigenvalues --   -0.82820  -0.82099  -0.81335  -0.81083  -0.80044
 Alpha  occ. eigenvalues --   -0.79815  -0.78524  -0.78147  -0.77240  -0.76712
 Alpha  occ. eigenvalues --   -0.76143  -0.75168  -0.74806  -0.74269  -0.74106
 Alpha  occ. eigenvalues --   -0.73479  -0.72529  -0.71561  -0.70824  -0.68962
 Alpha  occ. eigenvalues --   -0.68660  -0.68376  -0.66824  -0.66754  -0.65657
 Alpha  occ. eigenvalues --   -0.65614  -0.65409  -0.64903  -0.64496  -0.64402
 Alpha  occ. eigenvalues --   -0.63417  -0.63051  -0.62444  -0.62012  -0.60587
 Alpha  occ. eigenvalues --   -0.60286  -0.59686  -0.59407  -0.59182  -0.58791
 Alpha  occ. eigenvalues --   -0.57279  -0.57143  -0.56765  -0.56259  -0.55709
 Alpha  occ. eigenvalues --   -0.55041  -0.54920  -0.54481  -0.54189  -0.54024
 Alpha  occ. eigenvalues --   -0.53526  -0.53488  -0.53177  -0.52965  -0.52859
 Alpha  occ. eigenvalues --   -0.52432  -0.52360  -0.51960  -0.51937  -0.51679
 Alpha  occ. eigenvalues --   -0.51587  -0.51443  -0.51346  -0.51166  -0.50859
 Alpha  occ. eigenvalues --   -0.50671  -0.50332  -0.50174  -0.49858  -0.49814
 Alpha  occ. eigenvalues --   -0.49686  -0.49588  -0.49568  -0.48997  -0.48718
 Alpha  occ. eigenvalues --   -0.48616  -0.48297  -0.48076  -0.47991  -0.47917
 Alpha  occ. eigenvalues --   -0.47322  -0.47171  -0.47090  -0.46954  -0.46556
 Alpha  occ. eigenvalues --   -0.46369  -0.46302  -0.46221  -0.46069  -0.45658
 Alpha  occ. eigenvalues --   -0.45622  -0.45462  -0.45340  -0.45247  -0.44983
 Alpha  occ. eigenvalues --   -0.44835  -0.44699  -0.44432  -0.44352  -0.44304
 Alpha  occ. eigenvalues --   -0.43774  -0.43592  -0.43470  -0.43423  -0.43305
 Alpha  occ. eigenvalues --   -0.43009  -0.42683  -0.42507  -0.42208  -0.41981
 Alpha  occ. eigenvalues --   -0.41751  -0.41686  -0.41514  -0.41448  -0.41313
 Alpha  occ. eigenvalues --   -0.41195  -0.40771  -0.40546  -0.40421  -0.40139
 Alpha  occ. eigenvalues --   -0.40065  -0.39778  -0.39653  -0.39254  -0.38839
 Alpha  occ. eigenvalues --   -0.38616  -0.38134  -0.37824  -0.37389  -0.37253
 Alpha  occ. eigenvalues --   -0.36861  -0.36838  -0.36479  -0.36367  -0.36321
 Alpha  occ. eigenvalues --   -0.36167  -0.35114  -0.35074  -0.34586  -0.34279
 Alpha  occ. eigenvalues --   -0.34173  -0.33935  -0.33233  -0.31878  -0.31078
 Alpha  occ. eigenvalues --   -0.30461  -0.30391  -0.29899  -0.29577  -0.24015
 Alpha  occ. eigenvalues --   -0.20741
 Alpha virt. eigenvalues --   -0.08298  -0.01854   0.00176   0.01943   0.02337
 Alpha virt. eigenvalues --    0.02836   0.04394   0.04994   0.05601   0.06819
 Alpha virt. eigenvalues --    0.07256   0.08101   0.08750   0.08837   0.09073

 Mulliken charges:
               1
     1  Mg   0.810796
     2  C   -0.001693
     3  C   -0.066307
     4  C   -0.061850
     5  C   -0.039241
     6  N   -0.253442
     7  C   -0.032462
     8  C   -0.006677
     9  C   -0.039842
    10  C    0.059995
    11  C    0.066290
    12  C    0.065801
    13  C    0.039665
    14  C    0.138084
    15  O   -0.242866
    16  O   -0.351850
    17  N   -0.381578
    18  C    0.101489
    19  C   -0.158184
    20  C   -0.018672
    21  C    0.153570
    22  C    0.110602
    23  C   -0.014822
    24  O   -0.223797
    25  C    0.042147
    26  N   -0.322334
    27  C    0.032633
    28  C   -0.030616
    29  C   -0.046199
    30  C    0.075715
    31  C    0.063824
    32  C    0.087805
    33  C    0.004268
    34  N   -0.355193
    35  C    0.036293
    36  C   -0.190607
    37  C    0.026199
    38  C    0.078193
    39  C    0.114387
    40  C    0.085607
    41  O   -0.157058
    42  C   -0.036301
    43  C    0.209937
    44  O   -0.202819
    45  O   -0.325123
    46  C    0.167166
    47  C    0.267922
    48  C   -0.085274
    49  C   -0.163858
    50  C    0.106783
    51  C    0.087065
    52  C   -0.015221
    53  C    0.080928
    54  C   -0.112558
    55  C    0.081576
    56  C   -0.001165
    57  C   -0.001521
    58  C    0.108345
    59  C   -0.140208
    60  C    0.020855
    61  C    0.053292
    62  C    0.017114
    63  C    0.024267
    64  C   -0.199689
    65  C    0.067640
    66  C    0.048223
    67  H   -0.035330
    68  H    0.001200
    69  H   -0.043684
    70  H    0.017205
    71  H    0.003540
    72  H    0.019559
    73  H    0.026705
    74  H    0.021711
    75  H    0.017377
    76  H    0.032788
    77  H    0.053044
    78  H    0.022517
    79  H    0.013938
    80  H    0.019436
    81  H    0.040779
    82  H    0.040314
    83  H    0.044438
    84  H    0.027175
    85  H    0.009098
    86  H    0.009097
    87  H    0.013881
    88  H    0.019530
    89  H    0.016010
    90  H    0.021027
    91  H    0.015519
    92  H    0.011561
    93  H    0.009699
    94  H    0.024390
    95  H    0.030584
    96  H    0.014429
    97  H    0.039412
    98  H    0.042776
    99  H    0.020173
   100  H    0.035519
   101  H    0.041022
   102  H    0.015766
   103  H    0.013362
   104  H   -0.012261
   105  H    0.000837
   106  H    0.034869
   107  H    0.016582
   108  H   -0.011172
   109  H    0.007459
   110  H   -0.014817
   111  H   -0.013557
   112  H   -0.006073
   113  H    0.002720
   114  H   -0.005638
   115  H    0.016516
   116  H    0.010163
   117  H   -0.006238
   118  H   -0.010005
   119  H   -0.005180
   120  H    0.001997
   121  H   -0.012782
   122  H   -0.000684
   123  H    0.001351
   124  H    0.002796
   125  H   -0.001227
   126  H   -0.007653
   127  H    0.015528
   128  H   -0.013657
   129  H    0.001871
   130  H   -0.000800
   131  H    0.003135
   132  H   -0.008138
   133  H   -0.009626
   134  H   -0.005434
   135  H    0.003018
   136  H    0.008104
   137  H    0.004078
   138  H    0.014073
   139  H    0.005329
   140  H    0.013501
 Sum of Mulliken charges =  -0.00000

 Dipole moment (field-independent basis, Debye):
    X=             -2.9347    Y=              2.1416    Z=             -0.2807  Tot=              3.6439
 Quadrupole moment (field-independent basis, Debye-Ang):
   XX=           -373.8913   YY=           -412.9701   ZZ=           -415.9180
   XY=             -3.2068   XZ=             23.6067   YZ=             -2.4499

 Normal termination of Gaussian 16 at Fri Apr 29 17:18:08 2022.
