 Gaussian 16, Revision A.03,
 Gaussian 16:  ES64L-G16RevA.03 25-Dec-2016

 ---------------------------------
 #p PBE1PBE/Def2SVP td=(nstates=5)
 ---------------------------------

 -----------------------------------------------------
 step_401_chromophore_25 TDDFT with PBE1PBE functional
 -----------------------------------------------------
 Symbolic Z-matrix:
 Charge =  0 Multiplicity = 1

                         Standard orientation:
 ---------------------------------------------------------------------
 Center     Atomic      Atomic             Coordinates (Angstroms)
 Number     Number       Type             X           Y           Z
 ---------------------------------------------------------------------
      1         12           0        6.163402    0.430801    0.090096
      2          6           0        3.487971   -1.951521   -0.122583
      3          6           0        3.735347    2.866786   -0.315319
      4          6           0        8.720262    2.558201   -0.528436
      5          6           0        8.301799   -2.137834    0.757570
      6          7           0        3.879377    0.429250   -0.256246
      7          6           0        2.985824   -0.632217   -0.132807
      8          6           0        1.537181   -0.165217   -0.148081
      9          6           0        1.629887    1.323143   -0.472306
     10          6           0        3.144770    1.579061   -0.336970
     11          6           0        0.993604    1.770787   -1.818123
     12          6           0        0.671742   -0.580044    1.128079
     13          6           0       -0.576919   -1.501688    0.794868
     14          6           0       -1.912638   -1.149366    1.431877
     15          8           0       -2.114127   -1.234024    2.641408
     16          8           0       -2.862798   -0.699160    0.501993
     17          7           0        6.184245    2.455092   -0.404752
     18          6           0        5.102901    3.258103   -0.386009
     19          6           0        5.666822    4.625406   -0.487807
     20          6           0        7.059506    4.504122   -0.625527
     21          6           0        7.406112    3.115233   -0.441016
     22          6           0        4.741224    5.794913   -0.549703
     23          6           0        8.053649    5.617338   -0.884570
     24          8           0        9.248500    5.480022   -0.618070
     25          6           0        7.596847    7.000368   -1.488911
     26          7           0        8.204276    0.292760   -0.054832
     27          6           0        9.103740    1.262986   -0.219368
     28          6           0       10.564442    0.716336   -0.012484
     29          6           0       10.320031   -0.614540    0.773454
     30          6           0        8.834082   -0.838607    0.491049
     31          6           0       11.352130    0.510631   -1.337385
     32          6           0       10.631649   -0.609316    2.296661
     33          6           0       11.182694   -1.980945    2.721229
     34          7           0        5.999030   -1.647415    0.157073
     35          6           0        6.952467   -2.518320    0.649768
     36          6           0        6.310402   -3.873596    0.795553
     37          6           0        4.996988   -3.716074    0.504269
     38          6           0        4.824494   -2.360670    0.095497
     39          6           0        7.075479   -5.112948    1.087386
     40          6           0        3.661194   -4.355123    0.433763
     41          8           0        3.335370   -5.523609    0.602282
     42          6           0        2.707014   -3.233726    0.027966
     43          6           0        2.030856   -3.597227   -1.229340
     44          8           0        2.449540   -3.422049   -2.360938
     45          8           0        0.797139   -4.145473   -0.910391
     46          6           0       -0.094745   -4.458819   -1.932510
     47          6           0       -4.222780   -0.582335    0.998600
     48          6           0       -5.198815   -0.730464   -0.083650
     49          6           0       -6.111031   -1.744895   -0.368658
     50          6           0       -5.978192   -3.071571    0.161007
     51          6           0       -7.267587   -1.495597   -1.350612
     52          6           0       -8.469353   -0.768314   -0.817678
     53          6           0       -9.194194    0.242685   -1.723734
     54          6           0      -10.381503   -0.408163   -2.512824
     55          6           0      -10.153794   -0.859874   -3.971098
     56          6           0      -11.578497    0.581745   -2.513680
     57          6           0      -12.924665   -0.132667   -2.100430
     58          6           0      -13.913733    0.813515   -1.428349
     59          6           0      -14.343177    0.272449    0.007425
     60          6           0      -15.891080   -0.184396    0.038689
     61          6           0      -14.049720    1.171966    1.269950
     62          6           0      -12.641277    0.939025    1.812812
     63          6           0      -11.789165    2.265012    1.849817
     64          6           0      -11.123550    2.498643    3.243415
     65          6           0      -12.158910    3.139403    4.157475
     66          6           0       -9.821065    3.368256    3.190774
     67          1           0        3.078962    3.733092   -0.424321
     68          1           0        9.536308    3.196886   -0.871422
     69          1           0        8.778798   -3.043914    1.137117
     70          1           0        1.055972   -0.675728   -0.982706
     71          1           0        1.054803    1.882102    0.265626
     72          1           0       -0.089878    1.683069   -1.736306
     73          1           0        1.307382    1.058790   -2.581588
     74          1           0        1.245725    2.807710   -2.040460
     75          1           0        0.283820    0.347366    1.549766
     76          1           0        1.216120   -1.062358    1.940892
     77          1           0       -0.380474   -2.524384    1.114913
     78          1           0       -0.825340   -1.499912   -0.265757
     79          1           0        5.314390    6.671305   -0.246138
     80          1           0        3.946060    5.704647    0.190138
     81          1           0        4.212155    5.835457   -1.502347
     82          1           0        8.440847    7.310983   -2.106004
     83          1           0        7.488714    7.660423   -0.628922
     84          1           0        6.634516    6.935027   -1.996272
     85          1           0       11.054448    1.530953    0.521458
     86          1           0       10.732704   -1.440930    0.196451
     87          1           0       12.200737    1.179345   -1.480074
     88          1           0       10.732107    0.767837   -2.196915
     89          1           0       11.750085   -0.498899   -1.440435
     90          1           0        9.663936   -0.464024    2.777292
     91          1           0       11.434688    0.122386    2.386603
     92          1           0       11.813883   -1.818455    3.594901
     93          1           0       11.814409   -2.324624    1.902664
     94          1           0       10.408828   -2.696164    3.001617
     95          1           0        6.570703   -5.850144    1.711204
     96          1           0        8.067806   -4.895636    1.482993
     97          1           0        7.121978   -5.612554    0.120456
     98          1           0        1.986334   -3.037739    0.822071
     99          1           0       -0.731611   -3.579066   -2.019991
    100          1           0       -0.729364   -5.323654   -1.740926
    101          1           0        0.516769   -4.657262   -2.813464
    102          1           0       -4.225897    0.362734    1.540552
    103          1           0       -4.401578   -1.346532    1.754802
    104          1           0       -5.317104    0.221580   -0.600365
    105          1           0       -5.383499   -2.968596    1.068027
    106          1           0       -5.383482   -3.721696   -0.480052
    107          1           0       -6.912479   -3.595495    0.362449
    108          1           0       -7.718759   -2.398825   -1.761440
    109          1           0       -6.859724   -0.994598   -2.229114
    110          1           0       -8.236319   -0.236161    0.104503
    111          1           0       -9.099892   -1.532418   -0.364732
    112          1           0       -8.497855    0.716188   -2.416895
    113          1           0       -9.462995    1.010891   -0.999199
    114          1           0      -10.714698   -1.291884   -1.969387
    115          1           0       -9.325357   -1.563644   -4.044105
    116          1           0      -10.209093   -0.023488   -4.667091
    117          1           0      -11.121392   -1.343340   -4.106526
    118          1           0      -11.840555    1.035714   -3.469638
    119          1           0      -11.359264    1.484768   -1.943651
    120          1           0      -12.779090   -1.146347   -1.726497
    121          1           0      -13.353393   -0.378261   -3.071982
    122          1           0      -14.808196    0.913044   -2.042523
    123          1           0      -13.499535    1.814255   -1.306657
    124          1           0      -13.824184   -0.645977    0.279463
    125          1           0      -15.959115   -1.271534    0.014706
    126          1           0      -16.369685    0.065897   -0.908591
    127          1           0      -16.537543    0.149725    0.850535
    128          1           0      -14.734044    0.829558    2.046733
    129          1           0      -14.297278    2.227597    1.158576
    130          1           0      -12.081514    0.301846    1.128543
    131          1           0      -12.551280    0.403940    2.758333
    132          1           0      -12.447340    3.105572    1.627026
    133          1           0      -10.994623    2.286545    1.104929
    134          1           0      -10.911079    1.511116    3.651200
    135          1           0      -12.194489    2.551581    5.073831
    136          1           0      -13.148271    3.108229    3.701329
    137          1           0      -11.750109    4.130431    4.356623
    138          1           0       -9.007098    2.651345    3.077580
    139          1           0       -9.602202    3.932122    4.097908
    140          1           0       -9.965929    4.118876    2.414654
 ---------------------------------------------------------------------

 SCF Done:  E(RPBE1PBE) =  -3005.34800401     A.U. after   15 cycles

 Excitation energies and oscillator strengths:

 Excited State   1:      Singlet-A      1.8324 eV  676.61 nm  f=0.3529  <S**2>=0.000
     245 -> 248        0.17971
     246 -> 247        0.69232
     246 <- 247       -0.10641
 This state for optimization and/or second-order correction.
 Total Energy, E(TD-HF/TD-DFT) =  -3005.28066291
 Copying the excited state density for this state as the 1-particle RhoCI density.

 Excited State   2:      Singlet-A      2.2500 eV  551.04 nm  f=0.0714  <S**2>=0.000
     245 -> 247        0.63493
     246 -> 248       -0.30472

 Excited State   3:      Singlet-A      3.0393 eV  407.94 nm  f=0.0020  <S**2>=0.000
     244 -> 247        0.67376
     246 -> 248        0.11687

 Excited State   4:      Singlet-A      3.1834 eV  389.48 nm  f=0.0001  <S**2>=0.000
     242 -> 247        0.67288

 Excited State   5:      Singlet-A      3.2572 eV  380.65 nm  f=0.1718  <S**2>=0.000
     239 -> 247        0.21598
     240 -> 247        0.43663
     240 -> 249       -0.14746
     241 -> 247        0.16051
     245 -> 247       -0.15804
     246 -> 248       -0.35633
     246 -> 249       -0.15077

 The electronic state is 1-A.
 Alpha  occ. eigenvalues --  -46.91713 -19.25235 -19.25230 -19.20681 -19.20156
 Alpha  occ. eigenvalues --  -19.19923 -19.18971 -14.41770 -14.41526 -14.38945
 Alpha  occ. eigenvalues --  -14.38886 -10.36711 -10.36475 -10.32964 -10.32354
 Alpha  occ. eigenvalues --  -10.29190 -10.29119 -10.28981 -10.28769 -10.28123
 Alpha  occ. eigenvalues --  -10.28013 -10.27925 -10.27461 -10.27453 -10.26734
 Alpha  occ. eigenvalues --  -10.26579 -10.26255 -10.26173 -10.26166 -10.25941
 Alpha  occ. eigenvalues --  -10.25754 -10.25701 -10.25568 -10.25554 -10.25352
 Alpha  occ. eigenvalues --  -10.25041 -10.24914 -10.24833 -10.24305 -10.24195
 Alpha  occ. eigenvalues --  -10.24163 -10.24107 -10.24100 -10.23860 -10.23712
 Alpha  occ. eigenvalues --  -10.23697 -10.23517 -10.23512 -10.23339 -10.23214
 Alpha  occ. eigenvalues --  -10.23185 -10.23087 -10.22977 -10.22968 -10.22866
 Alpha  occ. eigenvalues --  -10.22852 -10.22587 -10.22570 -10.22443 -10.22368
 Alpha  occ. eigenvalues --  -10.22362 -10.22350 -10.22190 -10.22041 -10.21816
 Alpha  occ. eigenvalues --  -10.21168  -3.13875  -1.86706  -1.86253  -1.86100
 Alpha  occ. eigenvalues --   -1.11718  -1.10086  -1.05027  -1.04114  -1.03680
 Alpha  occ. eigenvalues --   -1.02371  -0.98456  -0.97853  -0.97370  -0.96687
 Alpha  occ. eigenvalues --   -0.87646  -0.85236  -0.83860  -0.83685  -0.83583
 Alpha  occ. eigenvalues --   -0.82854  -0.82037  -0.81572  -0.81187  -0.80866
 Alpha  occ. eigenvalues --   -0.80761  -0.80064  -0.79024  -0.78447  -0.77858
 Alpha  occ. eigenvalues --   -0.77016  -0.76361  -0.75636  -0.75406  -0.74194
 Alpha  occ. eigenvalues --   -0.73944  -0.72813  -0.72442  -0.71572  -0.70871
 Alpha  occ. eigenvalues --   -0.70491  -0.69258  -0.69170  -0.68461  -0.68251
 Alpha  occ. eigenvalues --   -0.67811  -0.66961  -0.66000  -0.65154  -0.63354
 Alpha  occ. eigenvalues --   -0.63086  -0.62618  -0.61218  -0.61012  -0.60098
 Alpha  occ. eigenvalues --   -0.59846  -0.59824  -0.59448  -0.59093  -0.58546
 Alpha  occ. eigenvalues --   -0.57699  -0.57486  -0.56634  -0.56580  -0.54975
 Alpha  occ. eigenvalues --   -0.54767  -0.54238  -0.53965  -0.53603  -0.53423
 Alpha  occ. eigenvalues --   -0.51849  -0.51553  -0.51213  -0.50809  -0.50249
 Alpha  occ. eigenvalues --   -0.49593  -0.49479  -0.49014  -0.48772  -0.48626
 Alpha  occ. eigenvalues --   -0.48073  -0.47925  -0.47696  -0.47604  -0.47358
 Alpha  occ. eigenvalues --   -0.46895  -0.46825  -0.46560  -0.46387  -0.46217
 Alpha  occ. eigenvalues --   -0.46084  -0.45959  -0.45907  -0.45728  -0.45505
 Alpha  occ. eigenvalues --   -0.45241  -0.44882  -0.44751  -0.44424  -0.44394
 Alpha  occ. eigenvalues --   -0.44209  -0.44182  -0.44114  -0.43568  -0.43362
 Alpha  occ. eigenvalues --   -0.43116  -0.42950  -0.42710  -0.42550  -0.42517
 Alpha  occ. eigenvalues --   -0.42043  -0.41819  -0.41759  -0.41611  -0.41210
 Alpha  occ. eigenvalues --   -0.41107  -0.40980  -0.40815  -0.40784  -0.40414
 Alpha  occ. eigenvalues --   -0.40404  -0.40254  -0.40023  -0.39924  -0.39661
 Alpha  occ. eigenvalues --   -0.39582  -0.39464  -0.39229  -0.39093  -0.39043
 Alpha  occ. eigenvalues --   -0.38545  -0.38291  -0.38281  -0.38174  -0.38069
 Alpha  occ. eigenvalues --   -0.37812  -0.37574  -0.37278  -0.37087  -0.36857
 Alpha  occ. eigenvalues --   -0.36653  -0.36448  -0.36330  -0.36209  -0.36061
 Alpha  occ. eigenvalues --   -0.36028  -0.35557  -0.35458  -0.35287  -0.35028
 Alpha  occ. eigenvalues --   -0.34871  -0.34676  -0.34571  -0.34045  -0.33612
 Alpha  occ. eigenvalues --   -0.33601  -0.32872  -0.32667  -0.32445  -0.32017
 Alpha  occ. eigenvalues --   -0.31895  -0.31674  -0.31594  -0.31211  -0.31183
 Alpha  occ. eigenvalues --   -0.31105  -0.30033  -0.29846  -0.29504  -0.29340
 Alpha  occ. eigenvalues --   -0.29233  -0.28847  -0.28796  -0.27012  -0.26343
 Alpha  occ. eigenvalues --   -0.25987  -0.25529  -0.25281  -0.25038  -0.20930
 Alpha  occ. eigenvalues --   -0.18424
 Alpha virt. eigenvalues --   -0.10839  -0.05287  -0.04085  -0.02476  -0.01597
 Alpha virt. eigenvalues --   -0.00523  -0.00128   0.00495   0.01079   0.02985
 Alpha virt. eigenvalues --    0.04069   0.04279   0.04663   0.05474   0.05772

 Mulliken charges:
               1
     1  Mg   0.960531
     2  C   -0.007925
     3  C   -0.061872
     4  C   -0.052337
     5  C   -0.037689
     6  N   -0.350496
     7  C    0.033096
     8  C   -0.072749
     9  C   -0.114409
    10  C    0.096396
    11  C    0.006034
    12  C    0.015214
    13  C   -0.040612
    14  C    0.206531
    15  O   -0.274101
    16  O   -0.381941
    17  N   -0.497884
    18  C    0.135818
    19  C   -0.191951
    20  C   -0.070688
    21  C    0.183629
    22  C    0.045567
    23  C    0.039239
    24  O   -0.257703
    25  C   -0.034385
    26  N   -0.422205
    27  C    0.066345
    28  C   -0.106465
    29  C   -0.121399
    30  C    0.101042
    31  C    0.010644
    32  C    0.022347
    33  C   -0.068491
    34  N   -0.474381
    35  C    0.069407
    36  C   -0.220423
    37  C   -0.019992
    38  C    0.128117
    39  C    0.063217
    40  C    0.185311
    41  O   -0.204635
    42  C   -0.156730
    43  C    0.303029
    44  O   -0.238970
    45  O   -0.358718
    46  C    0.114632
    47  C    0.224377
    48  C   -0.092224
    49  C   -0.213786
    50  C    0.043028
    51  C    0.026641
    52  C   -0.074717
    53  C    0.021339
    54  C   -0.198707
    55  C    0.016308
    56  C   -0.049243
    57  C   -0.066380
    58  C    0.056206
    59  C   -0.225429
    60  C   -0.037338
    61  C   -0.001528
    62  C   -0.042321
    63  C   -0.035844
    64  C   -0.287334
    65  C    0.005873
    66  C   -0.017604
    67  H   -0.003821
    68  H    0.032846
    69  H   -0.006758
    70  H    0.058109
    71  H    0.040759
    72  H    0.048036
    73  H    0.054420
    74  H    0.049546
    75  H    0.050402
    76  H    0.063234
    77  H    0.084910
    78  H    0.055440
    79  H    0.044398
    80  H    0.047415
    81  H    0.068155
    82  H    0.067206
    83  H    0.070975
    84  H    0.054956
    85  H    0.045500
    86  H    0.045577
    87  H    0.041214
    88  H    0.046876
    89  H    0.042515
    90  H    0.055097
    91  H    0.049222
    92  H    0.040838
    93  H    0.037671
    94  H    0.051204
    95  H    0.058226
    96  H    0.039908
    97  H    0.068093
    98  H    0.084869
    99  H    0.043200
   100  H    0.057368
   101  H    0.061583
   102  H    0.043068
   103  H    0.040032
   104  H    0.018266
   105  H    0.029499
   106  H    0.063212
   107  H    0.043867
   108  H    0.021713
   109  H    0.039022
   110  H    0.018147
   111  H    0.018726
   112  H    0.026384
   113  H    0.037472
   114  H    0.032659
   115  H    0.044811
   116  H    0.038115
   117  H    0.024541
   118  H    0.022491
   119  H    0.025927
   120  H    0.030884
   121  H    0.021423
   122  H    0.030764
   123  H    0.033324
   124  H    0.041097
   125  H    0.026579
   126  H    0.019790
   127  H    0.041292
   128  H    0.020500
   129  H    0.032138
   130  H    0.034422
   131  H    0.033430
   132  H    0.024224
   133  H    0.026293
   134  H    0.032533
   135  H    0.031030
   136  H    0.036574
   137  H    0.031972
   138  H    0.042135
   139  H    0.033209
   140  H    0.040934
 Sum of Mulliken charges =  -0.00000

 Dipole moment (field-independent basis, Debye):
    X=             -2.9593    Y=              2.0368    Z=             -0.2739  Tot=              3.6029
 Quadrupole moment (field-independent basis, Debye-Ang):
   XX=           -367.3684   YY=           -410.4929   ZZ=           -413.4875
   XY=             -4.4130   XZ=             24.3676   YZ=             -2.7026

 Normal termination of Gaussian 16 at Fri Apr 29 17:45:55 2022.
