 Gaussian 16, Revision A.03,
 Gaussian 16:  ES64L-G16RevA.03 25-Dec-2016

 --------------------------------
 #p wB97XD/Def2SVP td=(nstates=5)
 --------------------------------

 ----------------------------------------------------
 step_401_chromophore_25 TDDFT with wB97XD functional
 ----------------------------------------------------
 Symbolic Z-matrix:
 Charge =  0 Multiplicity = 1

                         Standard orientation:
 ---------------------------------------------------------------------
 Center     Atomic      Atomic             Coordinates (Angstroms)
 Number     Number       Type             X           Y           Z
 ---------------------------------------------------------------------
      1         12           0        6.163402    0.430801    0.090096
      2          6           0        3.487971   -1.951521   -0.122583
      3          6           0        3.735347    2.866786   -0.315319
      4          6           0        8.720262    2.558201   -0.528436
      5          6           0        8.301799   -2.137834    0.757570
      6          7           0        3.879377    0.429250   -0.256246
      7          6           0        2.985824   -0.632217   -0.132807
      8          6           0        1.537181   -0.165217   -0.148081
      9          6           0        1.629887    1.323143   -0.472306
     10          6           0        3.144770    1.579061   -0.336970
     11          6           0        0.993604    1.770787   -1.818123
     12          6           0        0.671742   -0.580044    1.128079
     13          6           0       -0.576919   -1.501688    0.794868
     14          6           0       -1.912638   -1.149366    1.431877
     15          8           0       -2.114127   -1.234024    2.641408
     16          8           0       -2.862798   -0.699160    0.501993
     17          7           0        6.184245    2.455092   -0.404752
     18          6           0        5.102901    3.258103   -0.386009
     19          6           0        5.666822    4.625406   -0.487807
     20          6           0        7.059506    4.504122   -0.625527
     21          6           0        7.406112    3.115233   -0.441016
     22          6           0        4.741224    5.794913   -0.549703
     23          6           0        8.053649    5.617338   -0.884570
     24          8           0        9.248500    5.480022   -0.618070
     25          6           0        7.596847    7.000368   -1.488911
     26          7           0        8.204276    0.292760   -0.054832
     27          6           0        9.103740    1.262986   -0.219368
     28          6           0       10.564442    0.716336   -0.012484
     29          6           0       10.320031   -0.614540    0.773454
     30          6           0        8.834082   -0.838607    0.491049
     31          6           0       11.352130    0.510631   -1.337385
     32          6           0       10.631649   -0.609316    2.296661
     33          6           0       11.182694   -1.980945    2.721229
     34          7           0        5.999030   -1.647415    0.157073
     35          6           0        6.952467   -2.518320    0.649768
     36          6           0        6.310402   -3.873596    0.795553
     37          6           0        4.996988   -3.716074    0.504269
     38          6           0        4.824494   -2.360670    0.095497
     39          6           0        7.075479   -5.112948    1.087386
     40          6           0        3.661194   -4.355123    0.433763
     41          8           0        3.335370   -5.523609    0.602282
     42          6           0        2.707014   -3.233726    0.027966
     43          6           0        2.030856   -3.597227   -1.229340
     44          8           0        2.449540   -3.422049   -2.360938
     45          8           0        0.797139   -4.145473   -0.910391
     46          6           0       -0.094745   -4.458819   -1.932510
     47          6           0       -4.222780   -0.582335    0.998600
     48          6           0       -5.198815   -0.730464   -0.083650
     49          6           0       -6.111031   -1.744895   -0.368658
     50          6           0       -5.978192   -3.071571    0.161007
     51          6           0       -7.267587   -1.495597   -1.350612
     52          6           0       -8.469353   -0.768314   -0.817678
     53          6           0       -9.194194    0.242685   -1.723734
     54          6           0      -10.381503   -0.408163   -2.512824
     55          6           0      -10.153794   -0.859874   -3.971098
     56          6           0      -11.578497    0.581745   -2.513680
     57          6           0      -12.924665   -0.132667   -2.100430
     58          6           0      -13.913733    0.813515   -1.428349
     59          6           0      -14.343177    0.272449    0.007425
     60          6           0      -15.891080   -0.184396    0.038689
     61          6           0      -14.049720    1.171966    1.269950
     62          6           0      -12.641277    0.939025    1.812812
     63          6           0      -11.789165    2.265012    1.849817
     64          6           0      -11.123550    2.498643    3.243415
     65          6           0      -12.158910    3.139403    4.157475
     66          6           0       -9.821065    3.368256    3.190774
     67          1           0        3.078962    3.733092   -0.424321
     68          1           0        9.536308    3.196886   -0.871422
     69          1           0        8.778798   -3.043914    1.137117
     70          1           0        1.055972   -0.675728   -0.982706
     71          1           0        1.054803    1.882102    0.265626
     72          1           0       -0.089878    1.683069   -1.736306
     73          1           0        1.307382    1.058790   -2.581588
     74          1           0        1.245725    2.807710   -2.040460
     75          1           0        0.283820    0.347366    1.549766
     76          1           0        1.216120   -1.062358    1.940892
     77          1           0       -0.380474   -2.524384    1.114913
     78          1           0       -0.825340   -1.499912   -0.265757
     79          1           0        5.314390    6.671305   -0.246138
     80          1           0        3.946060    5.704647    0.190138
     81          1           0        4.212155    5.835457   -1.502347
     82          1           0        8.440847    7.310983   -2.106004
     83          1           0        7.488714    7.660423   -0.628922
     84          1           0        6.634516    6.935027   -1.996272
     85          1           0       11.054448    1.530953    0.521458
     86          1           0       10.732704   -1.440930    0.196451
     87          1           0       12.200737    1.179345   -1.480074
     88          1           0       10.732107    0.767837   -2.196915
     89          1           0       11.750085   -0.498899   -1.440435
     90          1           0        9.663936   -0.464024    2.777292
     91          1           0       11.434688    0.122386    2.386603
     92          1           0       11.813883   -1.818455    3.594901
     93          1           0       11.814409   -2.324624    1.902664
     94          1           0       10.408828   -2.696164    3.001617
     95          1           0        6.570703   -5.850144    1.711204
     96          1           0        8.067806   -4.895636    1.482993
     97          1           0        7.121978   -5.612554    0.120456
     98          1           0        1.986334   -3.037739    0.822071
     99          1           0       -0.731611   -3.579066   -2.019991
    100          1           0       -0.729364   -5.323654   -1.740926
    101          1           0        0.516769   -4.657262   -2.813464
    102          1           0       -4.225897    0.362734    1.540552
    103          1           0       -4.401578   -1.346532    1.754802
    104          1           0       -5.317104    0.221580   -0.600365
    105          1           0       -5.383499   -2.968596    1.068027
    106          1           0       -5.383482   -3.721696   -0.480052
    107          1           0       -6.912479   -3.595495    0.362449
    108          1           0       -7.718759   -2.398825   -1.761440
    109          1           0       -6.859724   -0.994598   -2.229114
    110          1           0       -8.236319   -0.236161    0.104503
    111          1           0       -9.099892   -1.532418   -0.364732
    112          1           0       -8.497855    0.716188   -2.416895
    113          1           0       -9.462995    1.010891   -0.999199
    114          1           0      -10.714698   -1.291884   -1.969387
    115          1           0       -9.325357   -1.563644   -4.044105
    116          1           0      -10.209093   -0.023488   -4.667091
    117          1           0      -11.121392   -1.343340   -4.106526
    118          1           0      -11.840555    1.035714   -3.469638
    119          1           0      -11.359264    1.484768   -1.943651
    120          1           0      -12.779090   -1.146347   -1.726497
    121          1           0      -13.353393   -0.378261   -3.071982
    122          1           0      -14.808196    0.913044   -2.042523
    123          1           0      -13.499535    1.814255   -1.306657
    124          1           0      -13.824184   -0.645977    0.279463
    125          1           0      -15.959115   -1.271534    0.014706
    126          1           0      -16.369685    0.065897   -0.908591
    127          1           0      -16.537543    0.149725    0.850535
    128          1           0      -14.734044    0.829558    2.046733
    129          1           0      -14.297278    2.227597    1.158576
    130          1           0      -12.081514    0.301846    1.128543
    131          1           0      -12.551280    0.403940    2.758333
    132          1           0      -12.447340    3.105572    1.627026
    133          1           0      -10.994623    2.286545    1.104929
    134          1           0      -10.911079    1.511116    3.651200
    135          1           0      -12.194489    2.551581    5.073831
    136          1           0      -13.148271    3.108229    3.701329
    137          1           0      -11.750109    4.130431    4.356623
    138          1           0       -9.007098    2.651345    3.077580
    139          1           0       -9.602202    3.932122    4.097908
    140          1           0       -9.965929    4.118876    2.414654
 ---------------------------------------------------------------------

 SCF Done:  E(RwB97XD) =  -3007.85548227     A.U. after   20 cycles

 Excitation energies and oscillator strengths:

 Excited State   1:      Singlet-A      1.6155 eV  767.46 nm  f=0.3579  <S**2>=0.000
     245 -> 248        0.19320
     246 -> 247        0.68249
     245 <- 248        0.12255
 This state for optimization and/or second-order correction.
 Total Energy, E(TD-HF/TD-DFT) =  -3007.79611347
 Copying the excited state density for this state as the 1-particle RhoCI density.

 Excited State   2:      Singlet-A      2.1844 eV  567.59 nm  f=0.0654  <S**2>=0.000
     245 -> 247        0.61743
     246 -> 248       -0.33627

 Excited State   3:      Singlet-A      3.4211 eV  362.41 nm  f=0.3384  <S**2>=0.000
     241 -> 247        0.10355
     244 -> 247        0.47055
     245 -> 247        0.21433
     246 -> 248        0.44506

 Excited State   4:      Singlet-A      3.5167 eV  352.56 nm  f=0.4308  <S**2>=0.000
     241 -> 247       -0.13428
     244 -> 247        0.48153
     245 -> 247       -0.22665
     246 -> 248       -0.39692

 Excited State   5:      Singlet-A      3.6782 eV  337.08 nm  f=0.0020  <S**2>=0.000
     239 -> 247        0.10419
     240 -> 249       -0.15794
     241 -> 249       -0.10288
     242 -> 247        0.49868
     242 -> 249        0.19082
     242 -> 250        0.25068
     244 -> 250        0.12650

 The electronic state is 1-A.
 Alpha  occ. eigenvalues --  -46.94669 -19.29839 -19.29791 -19.25442 -19.24844
 Alpha  occ. eigenvalues --  -19.24814 -19.23794 -14.46880 -14.46579 -14.43878
 Alpha  occ. eigenvalues --  -14.43805 -10.43604 -10.43269 -10.39879 -10.39190
 Alpha  occ. eigenvalues --  -10.35383 -10.35381 -10.35319 -10.35291 -10.34652
 Alpha  occ. eigenvalues --  -10.34323 -10.34311 -10.33841 -10.33683 -10.32996
 Alpha  occ. eigenvalues --  -10.32835 -10.32600 -10.32532 -10.32432 -10.32352
 Alpha  occ. eigenvalues --  -10.32216 -10.32068 -10.31906 -10.31879 -10.31786
 Alpha  occ. eigenvalues --  -10.31347 -10.31204 -10.31202 -10.30715 -10.30613
 Alpha  occ. eigenvalues --  -10.30574 -10.30494 -10.30367 -10.30228 -10.30137
 Alpha  occ. eigenvalues --  -10.30130 -10.29975 -10.29884 -10.29732 -10.29661
 Alpha  occ. eigenvalues --  -10.29535 -10.29414 -10.29343 -10.29342 -10.29220
 Alpha  occ. eigenvalues --  -10.29114 -10.28948 -10.28922 -10.28882 -10.28728
 Alpha  occ. eigenvalues --  -10.28716 -10.28699 -10.28527 -10.28461 -10.28223
 Alpha  occ. eigenvalues --  -10.27594  -3.20681  -1.94261  -1.93811  -1.93654
 Alpha  occ. eigenvalues --   -1.19154  -1.17475  -1.12576  -1.11617  -1.11095
 Alpha  occ. eigenvalues --   -1.09724  -1.05840  -1.05250  -1.04735  -1.04056
 Alpha  occ. eigenvalues --   -0.95287  -0.92909  -0.91485  -0.91249  -0.91236
 Alpha  occ. eigenvalues --   -0.90516  -0.89644  -0.89182  -0.88851  -0.88554
 Alpha  occ. eigenvalues --   -0.88379  -0.87713  -0.86673  -0.86069  -0.85463
 Alpha  occ. eigenvalues --   -0.84663  -0.84000  -0.83267  -0.83045  -0.81969
 Alpha  occ. eigenvalues --   -0.81618  -0.80450  -0.80097  -0.79169  -0.78545
 Alpha  occ. eigenvalues --   -0.78099  -0.76954  -0.76748  -0.76119  -0.75923
 Alpha  occ. eigenvalues --   -0.75413  -0.74515  -0.73535  -0.72760  -0.70896
 Alpha  occ. eigenvalues --   -0.70638  -0.70251  -0.68797  -0.68644  -0.67589
 Alpha  occ. eigenvalues --   -0.67462  -0.67360  -0.66907  -0.66513  -0.66217
 Alpha  occ. eigenvalues --   -0.65271  -0.65033  -0.64269  -0.63997  -0.62490
 Alpha  occ. eigenvalues --   -0.62239  -0.61687  -0.61396  -0.61143  -0.60778
 Alpha  occ. eigenvalues --   -0.59253  -0.59052  -0.58675  -0.58228  -0.57647
 Alpha  occ. eigenvalues --   -0.57009  -0.56874  -0.56427  -0.56147  -0.55964
 Alpha  occ. eigenvalues --   -0.55435  -0.55376  -0.55073  -0.54885  -0.54757
 Alpha  occ. eigenvalues --   -0.54370  -0.54218  -0.53888  -0.53788  -0.53611
 Alpha  occ. eigenvalues --   -0.53455  -0.53372  -0.53291  -0.53066  -0.52784
 Alpha  occ. eigenvalues --   -0.52600  -0.52212  -0.52094  -0.51774  -0.51763
 Alpha  occ. eigenvalues --   -0.51618  -0.51504  -0.51449  -0.50883  -0.50653
 Alpha  occ. eigenvalues --   -0.50551  -0.50208  -0.50026  -0.49847  -0.49803
 Alpha  occ. eigenvalues --   -0.49236  -0.49095  -0.49020  -0.48835  -0.48468
 Alpha  occ. eigenvalues --   -0.48295  -0.48184  -0.48063  -0.48003  -0.47594
 Alpha  occ. eigenvalues --   -0.47574  -0.47382  -0.47211  -0.47167  -0.46854
 Alpha  occ. eigenvalues --   -0.46775  -0.46629  -0.46366  -0.46251  -0.46222
 Alpha  occ. eigenvalues --   -0.45774  -0.45460  -0.45385  -0.45314  -0.45201
 Alpha  occ. eigenvalues --   -0.44941  -0.44616  -0.44372  -0.44175  -0.43919
 Alpha  occ. eigenvalues --   -0.43679  -0.43557  -0.43511  -0.43329  -0.43171
 Alpha  occ. eigenvalues --   -0.43092  -0.42675  -0.42458  -0.42323  -0.42048
 Alpha  occ. eigenvalues --   -0.41933  -0.41671  -0.41550  -0.41106  -0.40683
 Alpha  occ. eigenvalues --   -0.40508  -0.39963  -0.39671  -0.39343  -0.39082
 Alpha  occ. eigenvalues --   -0.38824  -0.38709  -0.38589  -0.38320  -0.38206
 Alpha  occ. eigenvalues --   -0.38171  -0.37043  -0.36922  -0.36432  -0.36189
 Alpha  occ. eigenvalues --   -0.36101  -0.35878  -0.35499  -0.33922  -0.33188
 Alpha  occ. eigenvalues --   -0.32586  -0.32474  -0.31952  -0.31742  -0.25941
 Alpha  occ. eigenvalues --   -0.22549
 Alpha virt. eigenvalues --   -0.06644   0.00049   0.02230   0.04045   0.05039
 Alpha virt. eigenvalues --    0.05381   0.06646   0.07184   0.07867   0.09543
 Alpha virt. eigenvalues --    0.10741   0.10787   0.11423   0.12190   0.12504

 Mulliken charges:
               1
     1  Mg   0.949450
     2  C   -0.009262
     3  C   -0.076200
     4  C   -0.070145
     5  C   -0.047428
     6  N   -0.318854
     7  C    0.005025
     8  C   -0.046528
     9  C   -0.089301
    10  C    0.081594
    11  C    0.017833
    12  C    0.023219
    13  C   -0.020435
    14  C    0.197262
    15  O   -0.271974
    16  O   -0.381688
    17  N   -0.464979
    18  C    0.123371
    19  C   -0.179081
    20  C   -0.060647
    21  C    0.175601
    22  C    0.058738
    23  C    0.030310
    24  O   -0.253042
    25  C   -0.021178
    26  N   -0.393495
    27  C    0.052060
    28  C   -0.081788
    29  C   -0.090158
    30  C    0.094244
    31  C    0.018378
    32  C    0.035633
    33  C   -0.051289
    34  N   -0.440337
    35  C    0.056392
    36  C   -0.212482
    37  C   -0.015337
    38  C    0.110855
    39  C    0.072408
    40  C    0.165207
    41  O   -0.194152
    42  C   -0.109152
    43  C    0.277398
    44  O   -0.232954
    45  O   -0.356094
    46  C    0.129669
    47  C    0.239722
    48  C   -0.106112
    49  C   -0.193483
    50  C    0.055102
    51  C    0.040748
    52  C   -0.057194
    53  C    0.036520
    54  C   -0.169017
    55  C    0.032542
    56  C   -0.034022
    57  C   -0.049326
    58  C    0.069513
    59  C   -0.195444
    60  C   -0.023326
    61  C    0.011504
    62  C   -0.026212
    63  C   -0.014817
    64  C   -0.257976
    65  C    0.017837
    66  C   -0.004147
    67  H   -0.010735
    68  H    0.029349
    69  H   -0.021280
    70  H    0.040853
    71  H    0.030922
    72  H    0.042333
    73  H    0.048309
    74  H    0.043781
    75  H    0.042357
    76  H    0.058020
    77  H    0.078585
    78  H    0.046354
    79  H    0.037084
    80  H    0.042563
    81  H    0.064423
    82  H    0.065776
    83  H    0.067092
    84  H    0.049436
    85  H    0.036580
    86  H    0.030583
    87  H    0.036178
    88  H    0.040974
    89  H    0.037096
    90  H    0.046231
    91  H    0.041398
    92  H    0.035692
    93  H    0.030804
    94  H    0.044723
    95  H    0.054471
    96  H    0.035657
    97  H    0.062543
    98  H    0.070811
    99  H    0.038256
   100  H    0.053821
   101  H    0.057555
   102  H    0.040066
   103  H    0.032103
   104  H    0.015050
   105  H    0.022083
   106  H    0.058108
   107  H    0.039201
   108  H    0.014028
   109  H    0.030862
   110  H    0.008738
   111  H    0.010156
   112  H    0.018460
   113  H    0.027963
   114  H    0.016687
   115  H    0.039616
   116  H    0.031529
   117  H    0.015075
   118  H    0.013602
   119  H    0.014210
   120  H    0.022185
   121  H    0.012388
   122  H    0.023203
   123  H    0.023830
   124  H    0.026337
   125  H    0.020640
   126  H    0.012240
   127  H    0.035967
   128  H    0.011599
   129  H    0.023710
   130  H    0.021279
   131  H    0.026164
   132  H    0.011571
   133  H    0.015618
   134  H    0.020206
   135  H    0.025933
   136  H    0.028378
   137  H    0.025319
   138  H    0.036568
   139  H    0.027245
   140  H    0.034413
 Sum of Mulliken charges =  -0.00000

 Dipole moment (field-independent basis, Debye):
    X=             -3.0120    Y=              2.1863    Z=             -0.3027  Tot=              3.7341
 Quadrupole moment (field-independent basis, Debye-Ang):
   XX=           -368.7237   YY=           -408.4914   ZZ=           -413.1193
   XY=             -3.0438   XZ=             24.1662   YZ=             -2.8483

 Normal termination of Gaussian 16 at Fri Apr 29 18:24:32 2022.
