 Gaussian 16, Revision A.03,
 Gaussian 16:  ES64L-G16RevA.03 25-Dec-2016

 --------------------
 #p ZINDO=(nstates=5)
 --------------------

 -----------------------------
 step_401_chromophore_25 ZINDO
 -----------------------------
 Symbolic Z-matrix:
 Charge =  0 Multiplicity = 1

                         Standard orientation:
 ---------------------------------------------------------------------
 Center     Atomic      Atomic             Coordinates (Angstroms)
 Number     Number       Type             X           Y           Z
 ---------------------------------------------------------------------
      1         12           0        6.163402    0.430801    0.090096
      2          6           0        3.487971   -1.951521   -0.122583
      3          6           0        3.735347    2.866786   -0.315319
      4          6           0        8.720262    2.558201   -0.528436
      5          6           0        8.301799   -2.137834    0.757570
      6          7           0        3.879377    0.429250   -0.256246
      7          6           0        2.985824   -0.632217   -0.132807
      8          6           0        1.537181   -0.165217   -0.148081
      9          6           0        1.629887    1.323143   -0.472306
     10          6           0        3.144770    1.579061   -0.336970
     11          6           0        0.993604    1.770787   -1.818123
     12          6           0        0.671742   -0.580044    1.128079
     13          6           0       -0.576919   -1.501688    0.794868
     14          6           0       -1.912638   -1.149366    1.431877
     15          8           0       -2.114127   -1.234024    2.641408
     16          8           0       -2.862798   -0.699160    0.501993
     17          7           0        6.184245    2.455092   -0.404752
     18          6           0        5.102901    3.258103   -0.386009
     19          6           0        5.666822    4.625406   -0.487807
     20          6           0        7.059506    4.504122   -0.625527
     21          6           0        7.406112    3.115233   -0.441016
     22          6           0        4.741224    5.794913   -0.549703
     23          6           0        8.053649    5.617338   -0.884570
     24          8           0        9.248500    5.480022   -0.618070
     25          6           0        7.596847    7.000368   -1.488911
     26          7           0        8.204276    0.292760   -0.054832
     27          6           0        9.103740    1.262986   -0.219368
     28          6           0       10.564442    0.716336   -0.012484
     29          6           0       10.320031   -0.614540    0.773454
     30          6           0        8.834082   -0.838607    0.491049
     31          6           0       11.352130    0.510631   -1.337385
     32          6           0       10.631649   -0.609316    2.296661
     33          6           0       11.182694   -1.980945    2.721229
     34          7           0        5.999030   -1.647415    0.157073
     35          6           0        6.952467   -2.518320    0.649768
     36          6           0        6.310402   -3.873596    0.795553
     37          6           0        4.996988   -3.716074    0.504269
     38          6           0        4.824494   -2.360670    0.095497
     39          6           0        7.075479   -5.112948    1.087386
     40          6           0        3.661194   -4.355123    0.433763
     41          8           0        3.335370   -5.523609    0.602282
     42          6           0        2.707014   -3.233726    0.027966
     43          6           0        2.030856   -3.597227   -1.229340
     44          8           0        2.449540   -3.422049   -2.360938
     45          8           0        0.797139   -4.145473   -0.910391
     46          6           0       -0.094745   -4.458819   -1.932510
     47          6           0       -4.222780   -0.582335    0.998600
     48          6           0       -5.198815   -0.730464   -0.083650
     49          6           0       -6.111031   -1.744895   -0.368658
     50          6           0       -5.978192   -3.071571    0.161007
     51          6           0       -7.267587   -1.495597   -1.350612
     52          6           0       -8.469353   -0.768314   -0.817678
     53          6           0       -9.194194    0.242685   -1.723734
     54          6           0      -10.381503   -0.408163   -2.512824
     55          6           0      -10.153794   -0.859874   -3.971098
     56          6           0      -11.578497    0.581745   -2.513680
     57          6           0      -12.924665   -0.132667   -2.100430
     58          6           0      -13.913733    0.813515   -1.428349
     59          6           0      -14.343177    0.272449    0.007425
     60          6           0      -15.891080   -0.184396    0.038689
     61          6           0      -14.049720    1.171966    1.269950
     62          6           0      -12.641277    0.939025    1.812812
     63          6           0      -11.789165    2.265012    1.849817
     64          6           0      -11.123550    2.498643    3.243415
     65          6           0      -12.158910    3.139403    4.157475
     66          6           0       -9.821065    3.368256    3.190774
     67          1           0        3.078962    3.733092   -0.424321
     68          1           0        9.536308    3.196886   -0.871422
     69          1           0        8.778798   -3.043914    1.137117
     70          1           0        1.055972   -0.675728   -0.982706
     71          1           0        1.054803    1.882102    0.265626
     72          1           0       -0.089878    1.683069   -1.736306
     73          1           0        1.307382    1.058790   -2.581588
     74          1           0        1.245725    2.807710   -2.040460
     75          1           0        0.283820    0.347366    1.549766
     76          1           0        1.216120   -1.062358    1.940892
     77          1           0       -0.380474   -2.524384    1.114913
     78          1           0       -0.825340   -1.499912   -0.265757
     79          1           0        5.314390    6.671305   -0.246138
     80          1           0        3.946060    5.704647    0.190138
     81          1           0        4.212155    5.835457   -1.502347
     82          1           0        8.440847    7.310983   -2.106004
     83          1           0        7.488714    7.660423   -0.628922
     84          1           0        6.634516    6.935027   -1.996272
     85          1           0       11.054448    1.530953    0.521458
     86          1           0       10.732704   -1.440930    0.196451
     87          1           0       12.200737    1.179345   -1.480074
     88          1           0       10.732107    0.767837   -2.196915
     89          1           0       11.750085   -0.498899   -1.440435
     90          1           0        9.663936   -0.464024    2.777292
     91          1           0       11.434688    0.122386    2.386603
     92          1           0       11.813883   -1.818455    3.594901
     93          1           0       11.814409   -2.324624    1.902664
     94          1           0       10.408828   -2.696164    3.001617
     95          1           0        6.570703   -5.850144    1.711204
     96          1           0        8.067806   -4.895636    1.482993
     97          1           0        7.121978   -5.612554    0.120456
     98          1           0        1.986334   -3.037739    0.822071
     99          1           0       -0.731611   -3.579066   -2.019991
    100          1           0       -0.729364   -5.323654   -1.740926
    101          1           0        0.516769   -4.657262   -2.813464
    102          1           0       -4.225897    0.362734    1.540552
    103          1           0       -4.401578   -1.346532    1.754802
    104          1           0       -5.317104    0.221580   -0.600365
    105          1           0       -5.383499   -2.968596    1.068027
    106          1           0       -5.383482   -3.721696   -0.480052
    107          1           0       -6.912479   -3.595495    0.362449
    108          1           0       -7.718759   -2.398825   -1.761440
    109          1           0       -6.859724   -0.994598   -2.229114
    110          1           0       -8.236319   -0.236161    0.104503
    111          1           0       -9.099892   -1.532418   -0.364732
    112          1           0       -8.497855    0.716188   -2.416895
    113          1           0       -9.462995    1.010891   -0.999199
    114          1           0      -10.714698   -1.291884   -1.969387
    115          1           0       -9.325357   -1.563644   -4.044105
    116          1           0      -10.209093   -0.023488   -4.667091
    117          1           0      -11.121392   -1.343340   -4.106526
    118          1           0      -11.840555    1.035714   -3.469638
    119          1           0      -11.359264    1.484768   -1.943651
    120          1           0      -12.779090   -1.146347   -1.726497
    121          1           0      -13.353393   -0.378261   -3.071982
    122          1           0      -14.808196    0.913044   -2.042523
    123          1           0      -13.499535    1.814255   -1.306657
    124          1           0      -13.824184   -0.645977    0.279463
    125          1           0      -15.959115   -1.271534    0.014706
    126          1           0      -16.369685    0.065897   -0.908591
    127          1           0      -16.537543    0.149725    0.850535
    128          1           0      -14.734044    0.829558    2.046733
    129          1           0      -14.297278    2.227597    1.158576
    130          1           0      -12.081514    0.301846    1.128543
    131          1           0      -12.551280    0.403940    2.758333
    132          1           0      -12.447340    3.105572    1.627026
    133          1           0      -10.994623    2.286545    1.104929
    134          1           0      -10.911079    1.511116    3.651200
    135          1           0      -12.194489    2.551581    5.073831
    136          1           0      -13.148271    3.108229    3.701329
    137          1           0      -11.750109    4.130431    4.356623
    138          1           0       -9.007098    2.651345    3.077580
    139          1           0       -9.602202    3.932122    4.097908
    140          1           0       -9.965929    4.118876    2.414654
 ---------------------------------------------------------------------

 SCF Done:  E(RZINDO/S) =  -474.239560567     A.U. after   21 cycles

 Excitation energies and oscillator strengths:

 Excited State   1:      Singlet-A      1.2253 eV 1011.84 nm  f=0.5697  <S**2>=0.000
     175 ->178         0.19857
     176 ->177         0.66092
 This state for optimization and/or second-order correction.
 Total Energy, E(CIS/TDA) =  -474.194530218
 Copying the excited state density for this state as the 1-particle RhoCI density.

 Excited State   2:      Singlet-A      1.8920 eV  655.30 nm  f=0.0090  <S**2>=0.000
     175 ->177         0.51266
     176 ->178        -0.46264

 Excited State   3:      Singlet-A      2.8969 eV  427.99 nm  f=0.3547  <S**2>=0.000
     175 ->177         0.26317
     176 ->178         0.37123
     176 ->179         0.49548

 Excited State   4:      Singlet-A      3.0154 eV  411.17 nm  f=0.2011  <S**2>=0.000
     167 ->180         0.11410
     169 ->177         0.14035
     169 ->179        -0.13467
     169 ->180        -0.25565
     169 ->186        -0.10308
     169 ->187         0.10109
     170 ->177         0.14617
     170 ->179        -0.13214
     170 ->180        -0.26925
     172 ->177        -0.12849
     175 ->177         0.16992
     176 ->178         0.16864
     176 ->179        -0.22955

 Excited State   5:      Singlet-A      3.0654 eV  404.46 nm  f=0.0303  <S**2>=0.000
     168 ->177        -0.28357
     168 ->178        -0.16189
     168 ->179        -0.41702
     168 ->180         0.18169
     168 ->183         0.11273
     168 ->186        -0.18250
     169 ->179         0.10254
     176 ->179        -0.16290

 The electronic state is 1-A.
 Alpha  occ. eigenvalues --   -1.83279  -1.81002  -1.79138  -1.74412  -1.72278
 Alpha  occ. eigenvalues --   -1.70384  -1.64010  -1.60513  -1.59846  -1.57316
 Alpha  occ. eigenvalues --   -1.55205  -1.51217  -1.50046  -1.48708  -1.48021
 Alpha  occ. eigenvalues --   -1.44424  -1.43843  -1.39335  -1.39188  -1.38014
 Alpha  occ. eigenvalues --   -1.35430  -1.34446  -1.33432  -1.31536  -1.29679
 Alpha  occ. eigenvalues --   -1.27104  -1.24986  -1.21969  -1.20403  -1.18163
 Alpha  occ. eigenvalues --   -1.17426  -1.16472  -1.15339  -1.14333  -1.12271
 Alpha  occ. eigenvalues --   -1.11447  -1.10091  -1.09526  -1.04723  -1.03060
 Alpha  occ. eigenvalues --   -1.02807  -1.01513  -0.99360  -0.97509  -0.96325
 Alpha  occ. eigenvalues --   -0.96173  -0.94542  -0.93623  -0.93422  -0.92722
 Alpha  occ. eigenvalues --   -0.91229  -0.90598  -0.89049  -0.88382  -0.87198
 Alpha  occ. eigenvalues --   -0.86001  -0.83849  -0.83408  -0.82093  -0.80243
 Alpha  occ. eigenvalues --   -0.79956  -0.79532  -0.77654  -0.76625  -0.76480
 Alpha  occ. eigenvalues --   -0.75681  -0.75295  -0.74384  -0.73586  -0.72923
 Alpha  occ. eigenvalues --   -0.72618  -0.72024  -0.71769  -0.71260  -0.70948
 Alpha  occ. eigenvalues --   -0.70742  -0.69385  -0.68957  -0.68767  -0.67740
 Alpha  occ. eigenvalues --   -0.67586  -0.67418  -0.66950  -0.66346  -0.66042
 Alpha  occ. eigenvalues --   -0.65601  -0.65289  -0.64759  -0.64182  -0.63767
 Alpha  occ. eigenvalues --   -0.63400  -0.63228  -0.62688  -0.62033  -0.61742
 Alpha  occ. eigenvalues --   -0.61603  -0.61281  -0.60901  -0.60477  -0.59693
 Alpha  occ. eigenvalues --   -0.59517  -0.59066  -0.58827  -0.58684  -0.58492
 Alpha  occ. eigenvalues --   -0.58096  -0.57785  -0.57491  -0.57077  -0.56570
 Alpha  occ. eigenvalues --   -0.56034  -0.55563  -0.55373  -0.54936  -0.54545
 Alpha  occ. eigenvalues --   -0.54387  -0.54060  -0.53685  -0.53590  -0.53094
 Alpha  occ. eigenvalues --   -0.52703  -0.52288  -0.52221  -0.51954  -0.51601
 Alpha  occ. eigenvalues --   -0.51503  -0.51151  -0.50803  -0.50564  -0.50176
 Alpha  occ. eigenvalues --   -0.50090  -0.49627  -0.49566  -0.49121  -0.48980
 Alpha  occ. eigenvalues --   -0.48616  -0.48452  -0.48245  -0.48130  -0.47785
 Alpha  occ. eigenvalues --   -0.47381  -0.47070  -0.46459  -0.46392  -0.46263
 Alpha  occ. eigenvalues --   -0.46139  -0.46099  -0.45786  -0.45247  -0.45208
 Alpha  occ. eigenvalues --   -0.45043  -0.44556  -0.43963  -0.43845  -0.43724
 Alpha  occ. eigenvalues --   -0.43714  -0.42970  -0.42739  -0.42227  -0.42017
 Alpha  occ. eigenvalues --   -0.41659  -0.41651  -0.41484  -0.39055  -0.38977
 Alpha  occ. eigenvalues --   -0.38452  -0.36975  -0.35950  -0.35251  -0.34639
 Alpha  occ. eigenvalues --   -0.33363  -0.32436  -0.32060  -0.31713  -0.26549
 Alpha  occ. eigenvalues --   -0.21263
 Alpha virt. eigenvalues --   -0.08066  -0.02189  -0.00527   0.01227   0.01562
 Alpha virt. eigenvalues --    0.02386   0.02608   0.02747   0.03591   0.04887
 Alpha virt. eigenvalues --    0.06295   0.07053   0.07355   0.07765   0.07878

 Mulliken charges:
               1
     1  Mg   0.427309
     2  C   -0.048602
     3  C   -0.086149
     4  C   -0.059449
     5  C   -0.080287
     6  N   -0.294376
     7  C    0.118515
     8  C    0.011489
     9  C    0.010320
    10  C    0.131877
    11  C   -0.047249
    12  C   -0.020839
    13  C    0.000727
    14  C    0.462561
    15  O   -0.516600
    16  O   -0.276737
    17  N   -0.313114
    18  C    0.106038
    19  C   -0.001803
    20  C   -0.033473
    21  C    0.123498
    22  C   -0.044022
    23  C    0.316677
    24  O   -0.527563
    25  C   -0.034805
    26  N   -0.263444
    27  C    0.130487
    28  C    0.005063
    29  C   -0.006139
    30  C    0.119442
    31  C   -0.052052
    32  C   -0.026945
    33  C   -0.059477
    34  N   -0.325021
    35  C    0.080335
    36  C    0.047688
    37  C   -0.045855
    38  C    0.108317
    39  C   -0.038862
    40  C    0.344353
    41  O   -0.510835
    42  C    0.061503
    43  C    0.495372
    44  O   -0.516250
    45  O   -0.276939
    46  C    0.077771
    47  C    0.114882
    48  C   -0.102660
    49  C    0.019282
    50  C   -0.034303
    51  C   -0.016398
    52  C   -0.030710
    53  C   -0.031552
    54  C   -0.010969
    55  C   -0.060464
    56  C   -0.043085
    57  C   -0.042165
    58  C   -0.022002
    59  C   -0.021625
    60  C   -0.072526
    61  C   -0.030147
    62  C   -0.038435
    63  C   -0.039598
    64  C   -0.020808
    65  C   -0.061564
    66  C   -0.059754
    67  H    0.020372
    68  H    0.049453
    69  H    0.040700
    70  H    0.031259
    71  H    0.025917
    72  H    0.016915
    73  H    0.027696
    74  H    0.027305
    75  H    0.027250
    76  H    0.035566
    77  H    0.048251
    78  H    0.032047
    79  H    0.024240
    80  H    0.021152
    81  H    0.038398
    82  H    0.045304
    83  H    0.042308
    84  H    0.031531
    85  H    0.031111
    86  H    0.035579
    87  H    0.018932
    88  H    0.023451
    89  H    0.022094
    90  H    0.038724
    91  H    0.032940
    92  H    0.013246
    93  H    0.022036
    94  H    0.026236
    95  H    0.034674
    96  H    0.025149
    97  H    0.037977
    98  H    0.052758
    99  H    0.030001
   100  H    0.036888
   101  H    0.050107
   102  H    0.043751
   103  H    0.041258
   104  H    0.015874
   105  H    0.022971
   106  H    0.033600
   107  H    0.025533
   108  H    0.014443
   109  H    0.019867
   110  H    0.006918
   111  H    0.015752
   112  H    0.021099
   113  H    0.021529
   114  H    0.022768
   115  H    0.027310
   116  H    0.029675
   117  H    0.014543
   118  H    0.014645
   119  H    0.017573
   120  H    0.033440
   121  H    0.003620
   122  H    0.023550
   123  H    0.023308
   124  H    0.022426
   125  H    0.011469
   126  H    0.012371
   127  H    0.026937
   128  H    0.010534
   129  H    0.026782
   130  H    0.011647
   131  H    0.027708
   132  H    0.018383
   133  H    0.012842
   134  H    0.018017
   135  H    0.013350
   136  H    0.023090
   137  H    0.025081
   138  H    0.019508
   139  H    0.016747
   140  H    0.024657
 Sum of Mulliken charges =   0.00000

 Dipole moment (field-independent basis, Debye):
    X=             -3.8106    Y=              3.1168    Z=              0.2432  Tot=              4.9290
 N-N= 4.249763213197D+03 E-N= 0.000000000000D+00  KE=-9.173762813055D+03
 Leave Link  601 at Fri Apr 29 18:40:50 2022, MaxMem=  6710886400 cpu:               0.7 elap:               0.0
 (Enter /sw/apps/gaussian-16.0/g16/l9999.exe)
 1\1\GINC-BP1-COMPUTE197\SP\RZINDO CIS\STO-3G\C55H74Mg1N4O6\OF15641\29-
 Apr-2022\0\\#p ZINDO=(nstates=5)\\step_401_chromophore_25 ZINDO\\0,1\M
 g,0,-3.105,34.52,26.515\C,0,-4.289,33.172,29.623\C,0,-1.212,36.697,28.
 431\C,0,-2.652,36.281,23.662\C,0,-4.841,32.085,24.88\N,0,-2.854,34.922
 ,28.776\C,0,-3.293,34.147,29.847\C,0,-2.673,34.589,31.165\C,0,-1.912,3
 5.863,30.809\C,0,-1.972,35.843,29.268\C,0,-2.416,37.171,31.481\C,0,-1.
 87,33.458,31.956\C,0,-2.458,33.128,33.393\C,0,-1.482,33.022,34.555\O,0

 Normal termination of Gaussian 16 at Fri Apr 29 18:40:50 2022.
