 Gaussian 16, Revision A.03,
 Gaussian 16:  ES64L-G16RevA.03 25-Dec-2016

 ------------------------------
 #p blyp/Def2SVP td=(nstates=5)
 ------------------------------

 ---------------------------------------------------
 step_1351_chromophore_16 TDDFT with blyp functional
 ---------------------------------------------------
 Symbolic Z-matrix:
 Charge =  0 Multiplicity = 1

                         Standard orientation:
 ---------------------------------------------------------------------
 Center     Atomic      Atomic             Coordinates (Angstroms)
 Number     Number       Type             X           Y           Z
 ---------------------------------------------------------------------
      1         12           0        6.406429    0.646559    0.215296
      2          6           0        4.238638   -2.197000    0.240094
      3          6           0        3.742510    2.475935   -1.108155
      4          6           0        8.427555    3.118801   -0.054961
      5          6           0        9.066587   -1.514955    1.088973
      6          7           0        4.220076    0.181672   -0.379342
      7          6           0        3.580083   -1.084813   -0.230708
      8          6           0        2.121591   -0.892934   -0.654983
      9          6           0        1.895569    0.615965   -0.949579
     10          6           0        3.377216    1.148274   -0.909331
     11          6           0        1.052504    0.923180   -2.175037
     12          6           0        1.098363   -1.564785    0.389755
     13          6           0       -0.342370   -0.987631    0.468344
     14          6           0       -1.506597   -1.996841    0.636495
     15          8           0       -1.526423   -2.949060    1.443862
     16          8           0       -2.580074   -1.619196   -0.120765
     17          7           0        6.079416    2.618418   -0.429319
     18          6           0        4.972645    3.180836   -0.975319
     19          6           0        5.183187    4.612180   -1.182285
     20          6           0        6.566868    4.827706   -0.790652
     21          6           0        7.100431    3.515651   -0.420946
     22          6           0        4.178603    5.547392   -1.762328
     23          6           0        7.370630    6.107912   -0.631252
     24          8           0        8.569740    6.043444   -0.398020
     25          6           0        6.687084    7.539399   -0.886829
     26          7           0        8.462484    0.781471    0.563082
     27          6           0        9.081118    1.977378    0.384674
     28          6           0       10.561189    1.912703    0.683987
     29          6           0       10.702132    0.472505    1.263671
     30          6           0        9.339597   -0.142578    0.985904
     31          6           0       11.660454    2.299513   -0.400800
     32          6           0       11.190878    0.340569    2.740112
     33          6           0       10.177018    0.751251    3.824173
     34          7           0        6.661264   -1.406278    0.499774
     35          6           0        7.793252   -2.072074    0.898386
     36          6           0        7.389981   -3.453327    1.123661
     37          6           0        6.046434   -3.532138    0.826126
     38          6           0        5.580849   -2.235161    0.517686
     39          6           0        8.287264   -4.598756    1.480917
     40          6           0        4.988708   -4.490422    0.731670
     41          8           0        4.970365   -5.709226    0.837753
     42          6           0        3.734802   -3.658604    0.374924
     43          6           0        3.146000   -4.160232   -0.800162
     44          8           0        3.692597   -4.203495   -1.913494
     45          8           0        1.957398   -4.729202   -0.405939
     46          6           0        1.205238   -5.374607   -1.502546
     47          6           0       -3.574840   -2.731287   -0.187390
     48          6           0       -4.682649   -2.197198   -1.135218
     49          6           0       -5.923613   -2.753870   -1.264511
     50          6           0       -6.506312   -3.901342   -0.520926
     51          6           0       -6.909036   -2.163254   -2.271233
     52          6           0       -8.323564   -1.813704   -1.733325
     53          6           0       -8.727322   -0.432945   -2.373245
     54          6           0      -10.222725   -0.403376   -2.814317
     55          6           0      -10.392419   -0.630005   -4.335284
     56          6           0      -11.026155    0.869234   -2.359571
     57          6           0      -11.777375    0.527652   -1.013755
     58          6           0      -11.443018    1.555644    0.114340
     59          6           0      -12.579033    2.388171    0.695227
     60          6           0      -12.215213    3.660575    1.412124
     61          6           0      -13.467365    1.517739    1.538060
     62          6           0      -14.998402    1.803477    1.244600
     63          6           0      -15.827214    2.225865    2.457006
     64          6           0      -17.081490    1.316667    2.545314
     65          6           0      -17.057545    0.362831    3.740365
     66          6           0      -18.330038    2.186018    2.589123
     67          1           0        2.922069    3.193036   -1.173241
     68          1           0        9.199561    3.865366   -0.254603
     69          1           0        9.882430   -2.195393    1.337655
     70          1           0        2.133540   -1.458583   -1.585259
     71          1           0        1.512319    0.946287    0.015876
     72          1           0        1.664709    1.424786   -2.924137
     73          1           0        0.227112    1.556992   -1.850257
     74          1           0        0.626592    0.018707   -2.609669
     75          1           0        1.613360   -1.436996    1.341874
     76          1           0        0.968132   -2.613142    0.119613
     77          1           0       -0.657339   -0.448756   -0.424670
     78          1           0       -0.330461   -0.423757    1.401566
     79          1           0        3.878619    6.094135   -0.868644
     80          1           0        3.335101    4.972949   -2.144889
     81          1           0        4.614687    6.148059   -2.561128
     82          1           0        7.348811    8.370853   -0.644885
     83          1           0        5.692863    7.571013   -0.439468
     84          1           0        6.550903    7.559604   -1.967923
     85          1           0       10.754351    2.614452    1.495487
     86          1           0       11.435276   -0.120579    0.718232
     87          1           0       11.268580    2.354008   -1.416024
     88          1           0       12.541009    1.656795   -0.380240
     89          1           0       11.897245    3.330712   -0.137340
     90          1           0       12.070230    0.959204    2.922749
     91          1           0       11.415292   -0.696838    2.989615
     92          1           0       10.262246    0.015521    4.624044
     93          1           0        9.177249    0.912528    3.419849
     94          1           0       10.508425    1.684788    4.280946
     95          1           0        9.329546   -4.286746    1.414251
     96          1           0        7.946425   -5.421059    0.850466
     97          1           0        8.220191   -5.006760    2.489311
     98          1           0        2.998880   -3.587512    1.176302
     99          1           0        0.902456   -6.372309   -1.183453
    100          1           0        1.786549   -5.484816   -2.417944
    101          1           0        0.263645   -4.829820   -1.561680
    102          1           0       -3.985525   -2.863754    0.813422
    103          1           0       -3.193467   -3.670909   -0.587761
    104          1           0       -4.446733   -1.250346   -1.619315
    105          1           0       -6.687864   -4.757748   -1.169957
    106          1           0       -7.436867   -3.640067   -0.016295
    107          1           0       -5.770146   -4.232960    0.210542
    108          1           0       -7.000797   -2.791395   -3.156920
    109          1           0       -6.468247   -1.215345   -2.580097
    110          1           0       -8.498292   -1.666930   -0.667561
    111          1           0       -8.995989   -2.596844   -2.084943
    112          1           0       -8.104888   -0.270217   -3.254240
    113          1           0       -8.464756    0.350295   -1.661626
    114          1           0      -10.763342   -1.264523   -2.422744
    115          1           0      -10.630090    0.325147   -4.804351
    116          1           0      -11.183690   -1.342304   -4.569397
    117          1           0       -9.478361   -1.029136   -4.774759
    118          1           0      -11.736057    1.220287   -3.108053
    119          1           0      -10.307558    1.671523   -2.195216
    120          1           0      -11.472885   -0.393007   -0.515458
    121          1           0      -12.860180    0.545894   -1.134531
    122          1           0      -10.842047    2.340145   -0.346135
    123          1           0      -10.951852    1.021685    0.927614
    124          1           0      -13.134833    2.765721   -0.162729
    125          1           0      -11.968593    3.528894    2.465842
    126          1           0      -13.012514    4.398577    1.510016
    127          1           0      -11.367164    4.148370    0.932559
    128          1           0      -13.364202    1.782559    2.589824
    129          1           0      -13.196372    0.463851    1.481475
    130          1           0      -15.397135    0.955049    0.689128
    131          1           0      -14.972197    2.617265    0.520120
    132          1           0      -15.975017    3.305122    2.432457
    133          1           0      -15.247918    2.177066    3.378088
    134          1           0      -17.233988    0.652023    1.694677
    135          1           0      -17.974134    0.350415    4.330917
    136          1           0      -16.238847    0.604433    4.417976
    137          1           0      -17.060050   -0.679439    3.422205
    138          1           0      -19.127272    1.462641    2.414966
    139          1           0      -18.396991    2.938131    1.803203
    140          1           0      -18.306519    2.738188    3.528191
 ---------------------------------------------------------------------

 SCF Done:  E(RB-LYP) =  -3007.37669339     A.U. after   21 cycles

 Excitation energies and oscillator strengths:

 Excited State   1:      Singlet-A      1.8047 eV  687.00 nm  f=0.3085  <S**2>=0.000
     245 -> 248        0.18718
     246 -> 247        0.69202
     246 <- 247       -0.15339
 This state for optimization and/or second-order correction.
 Total Energy, E(TD-HF/TD-DFT) =  -3007.31037167
 Copying the excited state density for this state as the 1-particle RhoCI density.

 Excited State   2:      Singlet-A      1.8908 eV  655.72 nm  f=0.0182  <S**2>=0.000
     244 -> 247        0.61260
     245 -> 247        0.33936

 Excited State   3:      Singlet-A      2.0187 eV  614.17 nm  f=0.0135  <S**2>=0.000
     243 -> 247        0.64655
     244 -> 247       -0.15597
     245 -> 247        0.21928

 Excited State   4:      Singlet-A      2.0407 eV  607.56 nm  f=0.0593  <S**2>=0.000
     243 -> 247       -0.28399
     244 -> 247       -0.31052
     245 -> 247        0.51790
     246 -> 248       -0.20656

 Excited State   5:      Singlet-A      2.3772 eV  521.55 nm  f=0.0000  <S**2>=0.000
     241 -> 247        0.70593

 The electronic state is 1-A.
 Alpha  occ. eigenvalues --  -46.27117 -18.83124 -18.82484 -18.76907 -18.76537
 Alpha  occ. eigenvalues --  -18.75731 -18.75605 -14.03037 -14.02981 -14.00944
 Alpha  occ. eigenvalues --  -14.00744 -10.04429 -10.03323 -10.00234  -9.99368
 Alpha  occ. eigenvalues --   -9.98602  -9.97354  -9.96651  -9.96610  -9.96332
 Alpha  occ. eigenvalues --   -9.96221  -9.95867  -9.95500  -9.95424  -9.94295
 Alpha  occ. eigenvalues --   -9.94252  -9.94101  -9.94088  -9.94025  -9.93895
 Alpha  occ. eigenvalues --   -9.93509  -9.93481  -9.93477  -9.93460  -9.93050
 Alpha  occ. eigenvalues --   -9.93032  -9.92928  -9.92885  -9.92840  -9.92787
 Alpha  occ. eigenvalues --   -9.92721  -9.92640  -9.92557  -9.92433  -9.92342
 Alpha  occ. eigenvalues --   -9.92331  -9.92086  -9.92054  -9.91942  -9.91874
 Alpha  occ. eigenvalues --   -9.91768  -9.91642  -9.91599  -9.91559  -9.91480
 Alpha  occ. eigenvalues --   -9.91409  -9.90862  -9.90807  -9.90777  -9.90668
 Alpha  occ. eigenvalues --   -9.90601  -9.90514  -9.90496  -9.90425  -9.90283
 Alpha  occ. eigenvalues --   -9.90253  -2.91678  -1.72119  -1.71569  -1.71370
 Alpha  occ. eigenvalues --   -0.97962  -0.97321  -0.91418  -0.91290  -0.89284
 Alpha  occ. eigenvalues --   -0.89014  -0.86957  -0.85747  -0.85493  -0.83478
 Alpha  occ. eigenvalues --   -0.76140  -0.73645  -0.73321  -0.72348  -0.72128
 Alpha  occ. eigenvalues --   -0.71910  -0.71672  -0.71242  -0.70781  -0.70387
 Alpha  occ. eigenvalues --   -0.69555  -0.69120  -0.68211  -0.67881  -0.67078
 Alpha  occ. eigenvalues --   -0.66452  -0.65872  -0.65203  -0.65015  -0.64311
 Alpha  occ. eigenvalues --   -0.63981  -0.62636  -0.62390  -0.61800  -0.60785
 Alpha  occ. eigenvalues --   -0.60537  -0.60133  -0.59991  -0.59730  -0.58722
 Alpha  occ. eigenvalues --   -0.58034  -0.57790  -0.57039  -0.55711  -0.55077
 Alpha  occ. eigenvalues --   -0.54231  -0.53463  -0.52595  -0.52106  -0.51640
 Alpha  occ. eigenvalues --   -0.51177  -0.50959  -0.50739  -0.50614  -0.49765
 Alpha  occ. eigenvalues --   -0.49527  -0.49493  -0.48707  -0.48079  -0.46399
 Alpha  occ. eigenvalues --   -0.46003  -0.45916  -0.45628  -0.44912  -0.44782
 Alpha  occ. eigenvalues --   -0.44083  -0.43913  -0.43114  -0.42722  -0.42336
 Alpha  occ. eigenvalues --   -0.41925  -0.41892  -0.41607  -0.41326  -0.41132
 Alpha  occ. eigenvalues --   -0.41020  -0.40799  -0.40432  -0.40397  -0.40223
 Alpha  occ. eigenvalues --   -0.40056  -0.39817  -0.39631  -0.39451  -0.39313
 Alpha  occ. eigenvalues --   -0.38842  -0.38743  -0.38364  -0.38224  -0.38058
 Alpha  occ. eigenvalues --   -0.38013  -0.37840  -0.37662  -0.37452  -0.37120
 Alpha  occ. eigenvalues --   -0.37000  -0.36839  -0.36714  -0.36586  -0.36401
 Alpha  occ. eigenvalues --   -0.36318  -0.36121  -0.36013  -0.35880  -0.35774
 Alpha  occ. eigenvalues --   -0.35604  -0.35503  -0.34965  -0.34934  -0.34577
 Alpha  occ. eigenvalues --   -0.34390  -0.34291  -0.34133  -0.34125  -0.34044
 Alpha  occ. eigenvalues --   -0.33990  -0.33850  -0.33577  -0.33315  -0.33163
 Alpha  occ. eigenvalues --   -0.32959  -0.32803  -0.32669  -0.32517  -0.32350
 Alpha  occ. eigenvalues --   -0.32238  -0.32077  -0.31995  -0.31404  -0.31303
 Alpha  occ. eigenvalues --   -0.31170  -0.31144  -0.30957  -0.30895  -0.30792
 Alpha  occ. eigenvalues --   -0.30585  -0.30233  -0.30179  -0.29759  -0.29564
 Alpha  occ. eigenvalues --   -0.29462  -0.29344  -0.29219  -0.28839  -0.28771
 Alpha  occ. eigenvalues --   -0.28694  -0.28418  -0.28183  -0.27989  -0.27924
 Alpha  occ. eigenvalues --   -0.27888  -0.27481  -0.27228  -0.26700  -0.26621
 Alpha  occ. eigenvalues --   -0.26281  -0.25994  -0.25758  -0.25700  -0.25445
 Alpha  occ. eigenvalues --   -0.25045  -0.24778  -0.24607  -0.23477  -0.22879
 Alpha  occ. eigenvalues --   -0.22635  -0.22197  -0.21749  -0.21550  -0.20581
 Alpha  occ. eigenvalues --   -0.20346  -0.20255  -0.18939  -0.18574  -0.17220
 Alpha  occ. eigenvalues --   -0.15835
 Alpha virt. eigenvalues --   -0.11610  -0.06700  -0.06111  -0.04462  -0.03872
 Alpha virt. eigenvalues --   -0.02915  -0.02298  -0.02009  -0.01064   0.00376
 Alpha virt. eigenvalues --    0.01392   0.01947   0.02268   0.02751   0.02834

 Mulliken charges:
               1
     1  Mg   0.683372
     2  C   -0.062246
     3  C   -0.068543
     4  C   -0.003488
     5  C   -0.093862
     6  N   -0.232548
     7  C   -0.108476
     8  C    0.000886
     9  C    0.021418
    10  C    0.006973
    11  C    0.167998
    12  C    0.087659
    13  C    0.146249
    14  C    0.061324
    15  O   -0.218196
    16  O   -0.266623
    17  N   -0.272491
    18  C    0.101591
    19  C   -0.168876
    20  C    0.038286
    21  C    0.097561
    22  C    0.180327
    23  C   -0.077077
    24  O   -0.162630
    25  C    0.108697
    26  N   -0.220851
    27  C   -0.022644
    28  C    0.056223
    29  C    0.046360
    30  C    0.019194
    31  C    0.114376
    32  C    0.060660
    33  C    0.049351
    34  N   -0.263669
    35  C    0.135303
    36  C   -0.180332
    37  C    0.090533
    38  C    0.138365
    39  C    0.165067
    40  C   -0.033607
    41  O   -0.126051
    42  C    0.139015
    43  C    0.106574
    44  O   -0.197241
    45  O   -0.270714
    46  C    0.202588
    47  C    0.287442
    48  C   -0.113969
    49  C   -0.146580
    50  C    0.167005
    51  C    0.114984
    52  C    0.041037
    53  C    0.097291
    54  C   -0.094906
    55  C    0.097292
    56  C    0.120379
    57  C    0.075113
    58  C    0.068796
    59  C   -0.061946
    60  C    0.105669
    61  C    0.113522
    62  C    0.052778
    63  C    0.131751
    64  C   -0.077487
    65  C    0.107784
    66  C    0.095947
    67  H   -0.052127
    68  H   -0.047336
    69  H   -0.060869
    70  H   -0.023897
    71  H   -0.018867
    72  H   -0.004521
    73  H   -0.003563
    74  H   -0.001463
    75  H   -0.015100
    76  H    0.011458
    77  H   -0.010948
    78  H    0.007032
    79  H    0.014932
    80  H   -0.009187
    81  H    0.015589
    82  H    0.000204
    83  H   -0.000983
    84  H    0.005042
    85  H   -0.019473
    86  H   -0.035195
    87  H   -0.001179
    88  H    0.001999
    89  H    0.003597
    90  H   -0.017437
    91  H   -0.019986
    92  H   -0.010100
    93  H    0.012428
    94  H   -0.016917
    95  H   -0.021793
    96  H    0.018988
    97  H   -0.001983
    98  H   -0.002009
    99  H    0.014091
   100  H    0.037386
   101  H    0.008837
   102  H    0.022575
   103  H    0.020112
   104  H   -0.024217
   105  H   -0.005289
   106  H    0.008729
   107  H   -0.027511
   108  H   -0.010089
   109  H   -0.028321
   110  H   -0.009784
   111  H   -0.023675
   112  H   -0.027562
   113  H   -0.025663
   114  H   -0.028483
   115  H   -0.017049
   116  H   -0.016667
   117  H   -0.026733
   118  H   -0.032749
   119  H   -0.026555
   120  H   -0.019369
   121  H   -0.028037
   122  H   -0.043832
   123  H   -0.033297
   124  H   -0.042594
   125  H   -0.030220
   126  H   -0.025730
   127  H   -0.024185
   128  H   -0.047404
   129  H   -0.039458
   130  H   -0.024620
   131  H   -0.035931
   132  H   -0.040126
   133  H   -0.042271
   134  H   -0.031798
   135  H   -0.032518
   136  H   -0.014693
   137  H   -0.023437
   138  H   -0.018991
   139  H   -0.023584
   140  H   -0.013310
 Sum of Mulliken charges =  -0.00000

 Dipole moment (field-independent basis, Debye):
    X=             -3.1486    Y=              3.1912    Z=             -0.3642  Tot=              4.4978
 Quadrupole moment (field-independent basis, Debye-Ang):
   XX=           -378.2536   YY=           -428.4220   ZZ=           -407.0121
   XY=             12.9792   XZ=             24.0627   YZ=              3.0684

 Normal termination of Gaussian 16 at Wed Apr 27 23:57:54 2022.
