 Gaussian 16, Revision A.03,
 Gaussian 16:  ES64L-G16RevA.03 25-Dec-2016

 -----------------------------------
 #p cam-b3lyp/Def2SVP td=(nstates=5)
 -----------------------------------

 --------------------------------------------------------
 step_1351_chromophore_16 TDDFT with cam-b3lyp functional
 --------------------------------------------------------
 Symbolic Z-matrix:
 Charge =  0 Multiplicity = 1

                         Standard orientation:
 ---------------------------------------------------------------------
 Center     Atomic      Atomic             Coordinates (Angstroms)
 Number     Number       Type             X           Y           Z
 ---------------------------------------------------------------------
      1         12           0        6.406429    0.646559    0.215296
      2          6           0        4.238638   -2.197000    0.240094
      3          6           0        3.742510    2.475935   -1.108155
      4          6           0        8.427555    3.118801   -0.054961
      5          6           0        9.066587   -1.514955    1.088973
      6          7           0        4.220076    0.181672   -0.379342
      7          6           0        3.580083   -1.084813   -0.230708
      8          6           0        2.121591   -0.892934   -0.654983
      9          6           0        1.895569    0.615965   -0.949579
     10          6           0        3.377216    1.148274   -0.909331
     11          6           0        1.052504    0.923180   -2.175037
     12          6           0        1.098363   -1.564785    0.389755
     13          6           0       -0.342370   -0.987631    0.468344
     14          6           0       -1.506597   -1.996841    0.636495
     15          8           0       -1.526423   -2.949060    1.443862
     16          8           0       -2.580074   -1.619196   -0.120765
     17          7           0        6.079416    2.618418   -0.429319
     18          6           0        4.972645    3.180836   -0.975319
     19          6           0        5.183187    4.612180   -1.182285
     20          6           0        6.566868    4.827706   -0.790652
     21          6           0        7.100431    3.515651   -0.420946
     22          6           0        4.178603    5.547392   -1.762328
     23          6           0        7.370630    6.107912   -0.631252
     24          8           0        8.569740    6.043444   -0.398020
     25          6           0        6.687084    7.539399   -0.886829
     26          7           0        8.462484    0.781471    0.563082
     27          6           0        9.081118    1.977378    0.384674
     28          6           0       10.561189    1.912703    0.683987
     29          6           0       10.702132    0.472505    1.263671
     30          6           0        9.339597   -0.142578    0.985904
     31          6           0       11.660454    2.299513   -0.400800
     32          6           0       11.190878    0.340569    2.740112
     33          6           0       10.177018    0.751251    3.824173
     34          7           0        6.661264   -1.406278    0.499774
     35          6           0        7.793252   -2.072074    0.898386
     36          6           0        7.389981   -3.453327    1.123661
     37          6           0        6.046434   -3.532138    0.826126
     38          6           0        5.580849   -2.235161    0.517686
     39          6           0        8.287264   -4.598756    1.480917
     40          6           0        4.988708   -4.490422    0.731670
     41          8           0        4.970365   -5.709226    0.837753
     42          6           0        3.734802   -3.658604    0.374924
     43          6           0        3.146000   -4.160232   -0.800162
     44          8           0        3.692597   -4.203495   -1.913494
     45          8           0        1.957398   -4.729202   -0.405939
     46          6           0        1.205238   -5.374607   -1.502546
     47          6           0       -3.574840   -2.731287   -0.187390
     48          6           0       -4.682649   -2.197198   -1.135218
     49          6           0       -5.923613   -2.753870   -1.264511
     50          6           0       -6.506312   -3.901342   -0.520926
     51          6           0       -6.909036   -2.163254   -2.271233
     52          6           0       -8.323564   -1.813704   -1.733325
     53          6           0       -8.727322   -0.432945   -2.373245
     54          6           0      -10.222725   -0.403376   -2.814317
     55          6           0      -10.392419   -0.630005   -4.335284
     56          6           0      -11.026155    0.869234   -2.359571
     57          6           0      -11.777375    0.527652   -1.013755
     58          6           0      -11.443018    1.555644    0.114340
     59          6           0      -12.579033    2.388171    0.695227
     60          6           0      -12.215213    3.660575    1.412124
     61          6           0      -13.467365    1.517739    1.538060
     62          6           0      -14.998402    1.803477    1.244600
     63          6           0      -15.827214    2.225865    2.457006
     64          6           0      -17.081490    1.316667    2.545314
     65          6           0      -17.057545    0.362831    3.740365
     66          6           0      -18.330038    2.186018    2.589123
     67          1           0        2.922069    3.193036   -1.173241
     68          1           0        9.199561    3.865366   -0.254603
     69          1           0        9.882430   -2.195393    1.337655
     70          1           0        2.133540   -1.458583   -1.585259
     71          1           0        1.512319    0.946287    0.015876
     72          1           0        1.664709    1.424786   -2.924137
     73          1           0        0.227112    1.556992   -1.850257
     74          1           0        0.626592    0.018707   -2.609669
     75          1           0        1.613360   -1.436996    1.341874
     76          1           0        0.968132   -2.613142    0.119613
     77          1           0       -0.657339   -0.448756   -0.424670
     78          1           0       -0.330461   -0.423757    1.401566
     79          1           0        3.878619    6.094135   -0.868644
     80          1           0        3.335101    4.972949   -2.144889
     81          1           0        4.614687    6.148059   -2.561128
     82          1           0        7.348811    8.370853   -0.644885
     83          1           0        5.692863    7.571013   -0.439468
     84          1           0        6.550903    7.559604   -1.967923
     85          1           0       10.754351    2.614452    1.495487
     86          1           0       11.435276   -0.120579    0.718232
     87          1           0       11.268580    2.354008   -1.416024
     88          1           0       12.541009    1.656795   -0.380240
     89          1           0       11.897245    3.330712   -0.137340
     90          1           0       12.070230    0.959204    2.922749
     91          1           0       11.415292   -0.696838    2.989615
     92          1           0       10.262246    0.015521    4.624044
     93          1           0        9.177249    0.912528    3.419849
     94          1           0       10.508425    1.684788    4.280946
     95          1           0        9.329546   -4.286746    1.414251
     96          1           0        7.946425   -5.421059    0.850466
     97          1           0        8.220191   -5.006760    2.489311
     98          1           0        2.998880   -3.587512    1.176302
     99          1           0        0.902456   -6.372309   -1.183453
    100          1           0        1.786549   -5.484816   -2.417944
    101          1           0        0.263645   -4.829820   -1.561680
    102          1           0       -3.985525   -2.863754    0.813422
    103          1           0       -3.193467   -3.670909   -0.587761
    104          1           0       -4.446733   -1.250346   -1.619315
    105          1           0       -6.687864   -4.757748   -1.169957
    106          1           0       -7.436867   -3.640067   -0.016295
    107          1           0       -5.770146   -4.232960    0.210542
    108          1           0       -7.000797   -2.791395   -3.156920
    109          1           0       -6.468247   -1.215345   -2.580097
    110          1           0       -8.498292   -1.666930   -0.667561
    111          1           0       -8.995989   -2.596844   -2.084943
    112          1           0       -8.104888   -0.270217   -3.254240
    113          1           0       -8.464756    0.350295   -1.661626
    114          1           0      -10.763342   -1.264523   -2.422744
    115          1           0      -10.630090    0.325147   -4.804351
    116          1           0      -11.183690   -1.342304   -4.569397
    117          1           0       -9.478361   -1.029136   -4.774759
    118          1           0      -11.736057    1.220287   -3.108053
    119          1           0      -10.307558    1.671523   -2.195216
    120          1           0      -11.472885   -0.393007   -0.515458
    121          1           0      -12.860180    0.545894   -1.134531
    122          1           0      -10.842047    2.340145   -0.346135
    123          1           0      -10.951852    1.021685    0.927614
    124          1           0      -13.134833    2.765721   -0.162729
    125          1           0      -11.968593    3.528894    2.465842
    126          1           0      -13.012514    4.398577    1.510016
    127          1           0      -11.367164    4.148370    0.932559
    128          1           0      -13.364202    1.782559    2.589824
    129          1           0      -13.196372    0.463851    1.481475
    130          1           0      -15.397135    0.955049    0.689128
    131          1           0      -14.972197    2.617265    0.520120
    132          1           0      -15.975017    3.305122    2.432457
    133          1           0      -15.247918    2.177066    3.378088
    134          1           0      -17.233988    0.652023    1.694677
    135          1           0      -17.974134    0.350415    4.330917
    136          1           0      -16.238847    0.604433    4.417976
    137          1           0      -17.060050   -0.679439    3.422205
    138          1           0      -19.127272    1.462641    2.414966
    139          1           0      -18.396991    2.938131    1.803203
    140          1           0      -18.306519    2.738188    3.528191
 ---------------------------------------------------------------------

 SCF Done:  E(RCAM-B3LYP) =  -3007.16841976     A.U. after   19 cycles

 Excitation energies and oscillator strengths:

 Excited State   1:      Singlet-A      1.6913 eV  733.06 nm  f=0.3918  <S**2>=0.000
     245 -> 248       -0.17752
     246 -> 247        0.68660
     245 <- 248       -0.10885
 This state for optimization and/or second-order correction.
 Total Energy, E(TD-HF/TD-DFT) =  -3007.10626497
 Copying the excited state density for this state as the 1-particle RhoCI density.

 Excited State   2:      Singlet-A      2.2157 eV  559.57 nm  f=0.1218  <S**2>=0.000
     245 -> 247        0.64583
     246 -> 248        0.27640

 Excited State   3:      Singlet-A      3.3531 eV  369.76 nm  f=0.0051  <S**2>=0.000
     242 -> 247       -0.23323
     243 -> 247       -0.11410
     244 -> 247        0.63075
     246 -> 248       -0.12458

 Excited State   4:      Singlet-A      3.4693 eV  357.37 nm  f=0.0215  <S**2>=0.000
     242 -> 247        0.53210
     243 -> 247        0.27062
     244 -> 247        0.19652
     246 -> 248       -0.25825

 Excited State   5:      Singlet-A      3.5726 eV  347.04 nm  f=0.0491  <S**2>=0.000
     239 -> 247        0.26556
     239 -> 249       -0.17308
     239 -> 250        0.10227
     240 -> 247        0.48387
     240 -> 249       -0.25964
     240 -> 250        0.13932
     246 -> 248       -0.16611

 The electronic state is 1-A.
 Alpha  occ. eigenvalues --  -46.88650 -19.26081 -19.25611 -19.19930 -19.19808
 Alpha  occ. eigenvalues --  -19.19099 -19.18675 -14.41897 -14.41851 -14.39282
 Alpha  occ. eigenvalues --  -14.39221 -10.39819 -10.38990 -10.35391 -10.34853
 Alpha  occ. eigenvalues --  -10.32761 -10.31491 -10.31358 -10.30955 -10.30837
 Alpha  occ. eigenvalues --  -10.30458 -10.30022 -10.29944 -10.29459 -10.28797
 Alpha  occ. eigenvalues --  -10.28478 -10.28238 -10.28176 -10.28133 -10.27765
 Alpha  occ. eigenvalues --  -10.27740 -10.27732 -10.27554 -10.27406 -10.27265
 Alpha  occ. eigenvalues --  -10.27218 -10.27194 -10.27104 -10.26982 -10.26607
 Alpha  occ. eigenvalues --  -10.26556 -10.26508 -10.26418 -10.26406 -10.26174
 Alpha  occ. eigenvalues --  -10.26003 -10.25807 -10.25796 -10.25796 -10.25749
 Alpha  occ. eigenvalues --  -10.25615 -10.25351 -10.25298 -10.25221 -10.25090
 Alpha  occ. eigenvalues --  -10.25053 -10.24488 -10.24475 -10.24450 -10.24369
 Alpha  occ. eigenvalues --  -10.24322 -10.24205 -10.24158 -10.24082 -10.23988
 Alpha  occ. eigenvalues --  -10.23928  -3.17113  -1.92032  -1.91575  -1.91398
 Alpha  occ. eigenvalues --   -1.16424  -1.16011  -1.09851  -1.09691  -1.07415
 Alpha  occ. eigenvalues --   -1.06904  -1.04695  -1.03483  -1.02896  -1.01009
 Alpha  occ. eigenvalues --   -0.93436  -0.90538  -0.90168  -0.89130  -0.88784
 Alpha  occ. eigenvalues --   -0.88604  -0.88248  -0.87861  -0.87359  -0.86981
 Alpha  occ. eigenvalues --   -0.86090  -0.85466  -0.84528  -0.84123  -0.83168
 Alpha  occ. eigenvalues --   -0.82495  -0.81910  -0.81065  -0.80914  -0.80140
 Alpha  occ. eigenvalues --   -0.79945  -0.78378  -0.78022  -0.77299  -0.76297
 Alpha  occ. eigenvalues --   -0.75919  -0.75356  -0.75330  -0.75049  -0.73948
 Alpha  occ. eigenvalues --   -0.73114  -0.72847  -0.71947  -0.70541  -0.69703
 Alpha  occ. eigenvalues --   -0.68948  -0.67994  -0.66997  -0.66457  -0.65928
 Alpha  occ. eigenvalues --   -0.65296  -0.65111  -0.64673  -0.64614  -0.63790
 Alpha  occ. eigenvalues --   -0.63539  -0.63376  -0.62625  -0.61911  -0.60042
 Alpha  occ. eigenvalues --   -0.59521  -0.59378  -0.59224  -0.58565  -0.58219
 Alpha  occ. eigenvalues --   -0.57436  -0.57151  -0.56347  -0.56059  -0.55294
 Alpha  occ. eigenvalues --   -0.55156  -0.54807  -0.54620  -0.54552  -0.54136
 Alpha  occ. eigenvalues --   -0.53890  -0.53627  -0.53122  -0.53012  -0.52953
 Alpha  occ. eigenvalues --   -0.52654  -0.52352  -0.52313  -0.52088  -0.52020
 Alpha  occ. eigenvalues --   -0.51587  -0.51238  -0.50992  -0.50718  -0.50540
 Alpha  occ. eigenvalues --   -0.50283  -0.50187  -0.49947  -0.49737  -0.49464
 Alpha  occ. eigenvalues --   -0.49306  -0.49132  -0.49019  -0.48939  -0.48869
 Alpha  occ. eigenvalues --   -0.48652  -0.48613  -0.48194  -0.48077  -0.48007
 Alpha  occ. eigenvalues --   -0.47726  -0.47549  -0.47000  -0.46920  -0.46472
 Alpha  occ. eigenvalues --   -0.46296  -0.46153  -0.46081  -0.45923  -0.45854
 Alpha  occ. eigenvalues --   -0.45735  -0.45653  -0.45422  -0.45358  -0.45053
 Alpha  occ. eigenvalues --   -0.44680  -0.44482  -0.44416  -0.44229  -0.44162
 Alpha  occ. eigenvalues --   -0.43660  -0.43509  -0.43460  -0.43149  -0.43084
 Alpha  occ. eigenvalues --   -0.42938  -0.42672  -0.42615  -0.42313  -0.42229
 Alpha  occ. eigenvalues --   -0.42144  -0.41924  -0.41633  -0.40939  -0.40696
 Alpha  occ. eigenvalues --   -0.40597  -0.40551  -0.40332  -0.39962  -0.39822
 Alpha  occ. eigenvalues --   -0.39774  -0.39421  -0.39126  -0.38997  -0.38905
 Alpha  occ. eigenvalues --   -0.38865  -0.38376  -0.38070  -0.37703  -0.37546
 Alpha  occ. eigenvalues --   -0.37331  -0.37029  -0.36775  -0.36408  -0.36382
 Alpha  occ. eigenvalues --   -0.36057  -0.36010  -0.35085  -0.34551  -0.34018
 Alpha  occ. eigenvalues --   -0.33591  -0.32983  -0.32792  -0.31412  -0.31096
 Alpha  occ. eigenvalues --   -0.30415  -0.29973  -0.29966  -0.29398  -0.23986
 Alpha  occ. eigenvalues --   -0.21106
 Alpha virt. eigenvalues --   -0.08745  -0.01448   0.00385   0.02498   0.02869
 Alpha virt. eigenvalues --    0.03770   0.04595   0.05489   0.05890   0.06765
 Alpha virt. eigenvalues --    0.08027   0.08723   0.08990   0.09136   0.09248

 Mulliken charges:
               1
     1  Mg   0.815581
     2  C   -0.091915
     3  C   -0.083574
     4  C   -0.025583
     5  C   -0.096027
     6  N   -0.301516
     7  C   -0.057490
     8  C   -0.041299
     9  C   -0.036878
    10  C    0.033677
    11  C    0.100582
    12  C    0.034754
    13  C    0.073526
    14  C    0.146046
    15  O   -0.259255
    16  O   -0.331730
    17  N   -0.358123
    18  C    0.108421
    19  C   -0.172513
    20  C   -0.027584
    21  C    0.116519
    22  C    0.120209
    23  C   -0.003066
    24  O   -0.205964
    25  C    0.039647
    26  N   -0.295103
    27  C   -0.000795
    28  C   -0.001135
    29  C   -0.009573
    30  C    0.033438
    31  C    0.059014
    32  C    0.011522
    33  C   -0.011887
    34  N   -0.354551
    35  C    0.142317
    36  C   -0.173018
    37  C    0.004220
    38  C    0.179863
    39  C    0.115903
    40  C    0.066913
    41  O   -0.163501
    42  C    0.055867
    43  C    0.194558
    44  O   -0.234345
    45  O   -0.334229
    46  C    0.166608
    47  C    0.256030
    48  C   -0.135756
    49  C   -0.165790
    50  C    0.103094
    51  C    0.059382
    52  C   -0.015589
    53  C    0.044094
    54  C   -0.151917
    55  C    0.042522
    56  C    0.067320
    57  C    0.019694
    58  C    0.021633
    59  C   -0.121131
    60  C    0.051334
    61  C    0.055019
    62  C    0.000390
    63  C    0.075539
    64  C   -0.141667
    65  C    0.047128
    66  C    0.039244
    67  H   -0.020476
    68  H   -0.008954
    69  H   -0.024542
    70  H    0.010587
    71  H    0.015078
    72  H    0.023679
    73  H    0.020548
    74  H    0.022871
    75  H    0.015748
    76  H    0.038480
    77  H    0.022594
    78  H    0.040061
    79  H    0.039243
    80  H    0.017989
    81  H    0.039963
    82  H    0.033371
    83  H    0.024890
    84  H    0.030343
    85  H    0.015666
    86  H    0.001020
    87  H    0.023923
    88  H    0.025112
    89  H    0.025909
    90  H    0.011024
    91  H    0.006887
    92  H    0.014329
    93  H    0.032794
    94  H    0.007202
    95  H    0.002355
    96  H    0.045673
    97  H    0.026667
    98  H    0.045423
    99  H    0.037212
   100  H    0.064695
   101  H    0.027871
   102  H    0.050641
   103  H    0.045837
   104  H    0.011724
   105  H    0.020786
   106  H    0.033458
   107  H   -0.002787
   108  H    0.018601
   109  H    0.000702
   110  H    0.016787
   111  H    0.004434
   112  H    0.000458
   113  H    0.002799
   114  H    0.003180
   115  H    0.005972
   116  H    0.007726
   117  H   -0.003173
   118  H   -0.002194
   119  H    0.000948
   120  H    0.006798
   121  H   -0.000126
   122  H   -0.017434
   123  H   -0.005725
   124  H   -0.011735
   125  H   -0.006079
   126  H   -0.000648
   127  H    0.001121
   128  H   -0.018441
   129  H   -0.009240
   130  H    0.002686
   131  H   -0.007254
   132  H   -0.010168
   133  H   -0.014136
   134  H   -0.000074
   135  H   -0.005553
   136  H    0.008844
   137  H    0.001620
   138  H    0.004796
   139  H    0.001243
   140  H    0.009263
 Sum of Mulliken charges =  -0.00000

 Dipole moment (field-independent basis, Debye):
    X=             -3.3310    Y=              3.2519    Z=             -0.3495  Tot=              4.6683
 Quadrupole moment (field-independent basis, Debye-Ang):
   XX=           -377.0872   YY=           -424.0069   ZZ=           -406.8159
   XY=             12.4938   XZ=             25.3766   YZ=              2.7364

 Normal termination of Gaussian 16 at Wed Apr 27 22:35:55 2022.
