 Gaussian 16, Revision A.03,
 Gaussian 16:  ES64L-G16RevA.03 25-Dec-2016

 ---------------------------------
 #p PBE1PBE/Def2SVP td=(nstates=5)
 ---------------------------------

 ------------------------------------------------------
 step_1351_chromophore_16 TDDFT with PBE1PBE functional
 ------------------------------------------------------
 Symbolic Z-matrix:
 Charge =  0 Multiplicity = 1

                         Standard orientation:
 ---------------------------------------------------------------------
 Center     Atomic      Atomic             Coordinates (Angstroms)
 Number     Number       Type             X           Y           Z
 ---------------------------------------------------------------------
      1         12           0        6.406429    0.646559    0.215296
      2          6           0        4.238638   -2.197000    0.240094
      3          6           0        3.742510    2.475935   -1.108155
      4          6           0        8.427555    3.118801   -0.054961
      5          6           0        9.066587   -1.514955    1.088973
      6          7           0        4.220076    0.181672   -0.379342
      7          6           0        3.580083   -1.084813   -0.230708
      8          6           0        2.121591   -0.892934   -0.654983
      9          6           0        1.895569    0.615965   -0.949579
     10          6           0        3.377216    1.148274   -0.909331
     11          6           0        1.052504    0.923180   -2.175037
     12          6           0        1.098363   -1.564785    0.389755
     13          6           0       -0.342370   -0.987631    0.468344
     14          6           0       -1.506597   -1.996841    0.636495
     15          8           0       -1.526423   -2.949060    1.443862
     16          8           0       -2.580074   -1.619196   -0.120765
     17          7           0        6.079416    2.618418   -0.429319
     18          6           0        4.972645    3.180836   -0.975319
     19          6           0        5.183187    4.612180   -1.182285
     20          6           0        6.566868    4.827706   -0.790652
     21          6           0        7.100431    3.515651   -0.420946
     22          6           0        4.178603    5.547392   -1.762328
     23          6           0        7.370630    6.107912   -0.631252
     24          8           0        8.569740    6.043444   -0.398020
     25          6           0        6.687084    7.539399   -0.886829
     26          7           0        8.462484    0.781471    0.563082
     27          6           0        9.081118    1.977378    0.384674
     28          6           0       10.561189    1.912703    0.683987
     29          6           0       10.702132    0.472505    1.263671
     30          6           0        9.339597   -0.142578    0.985904
     31          6           0       11.660454    2.299513   -0.400800
     32          6           0       11.190878    0.340569    2.740112
     33          6           0       10.177018    0.751251    3.824173
     34          7           0        6.661264   -1.406278    0.499774
     35          6           0        7.793252   -2.072074    0.898386
     36          6           0        7.389981   -3.453327    1.123661
     37          6           0        6.046434   -3.532138    0.826126
     38          6           0        5.580849   -2.235161    0.517686
     39          6           0        8.287264   -4.598756    1.480917
     40          6           0        4.988708   -4.490422    0.731670
     41          8           0        4.970365   -5.709226    0.837753
     42          6           0        3.734802   -3.658604    0.374924
     43          6           0        3.146000   -4.160232   -0.800162
     44          8           0        3.692597   -4.203495   -1.913494
     45          8           0        1.957398   -4.729202   -0.405939
     46          6           0        1.205238   -5.374607   -1.502546
     47          6           0       -3.574840   -2.731287   -0.187390
     48          6           0       -4.682649   -2.197198   -1.135218
     49          6           0       -5.923613   -2.753870   -1.264511
     50          6           0       -6.506312   -3.901342   -0.520926
     51          6           0       -6.909036   -2.163254   -2.271233
     52          6           0       -8.323564   -1.813704   -1.733325
     53          6           0       -8.727322   -0.432945   -2.373245
     54          6           0      -10.222725   -0.403376   -2.814317
     55          6           0      -10.392419   -0.630005   -4.335284
     56          6           0      -11.026155    0.869234   -2.359571
     57          6           0      -11.777375    0.527652   -1.013755
     58          6           0      -11.443018    1.555644    0.114340
     59          6           0      -12.579033    2.388171    0.695227
     60          6           0      -12.215213    3.660575    1.412124
     61          6           0      -13.467365    1.517739    1.538060
     62          6           0      -14.998402    1.803477    1.244600
     63          6           0      -15.827214    2.225865    2.457006
     64          6           0      -17.081490    1.316667    2.545314
     65          6           0      -17.057545    0.362831    3.740365
     66          6           0      -18.330038    2.186018    2.589123
     67          1           0        2.922069    3.193036   -1.173241
     68          1           0        9.199561    3.865366   -0.254603
     69          1           0        9.882430   -2.195393    1.337655
     70          1           0        2.133540   -1.458583   -1.585259
     71          1           0        1.512319    0.946287    0.015876
     72          1           0        1.664709    1.424786   -2.924137
     73          1           0        0.227112    1.556992   -1.850257
     74          1           0        0.626592    0.018707   -2.609669
     75          1           0        1.613360   -1.436996    1.341874
     76          1           0        0.968132   -2.613142    0.119613
     77          1           0       -0.657339   -0.448756   -0.424670
     78          1           0       -0.330461   -0.423757    1.401566
     79          1           0        3.878619    6.094135   -0.868644
     80          1           0        3.335101    4.972949   -2.144889
     81          1           0        4.614687    6.148059   -2.561128
     82          1           0        7.348811    8.370853   -0.644885
     83          1           0        5.692863    7.571013   -0.439468
     84          1           0        6.550903    7.559604   -1.967923
     85          1           0       10.754351    2.614452    1.495487
     86          1           0       11.435276   -0.120579    0.718232
     87          1           0       11.268580    2.354008   -1.416024
     88          1           0       12.541009    1.656795   -0.380240
     89          1           0       11.897245    3.330712   -0.137340
     90          1           0       12.070230    0.959204    2.922749
     91          1           0       11.415292   -0.696838    2.989615
     92          1           0       10.262246    0.015521    4.624044
     93          1           0        9.177249    0.912528    3.419849
     94          1           0       10.508425    1.684788    4.280946
     95          1           0        9.329546   -4.286746    1.414251
     96          1           0        7.946425   -5.421059    0.850466
     97          1           0        8.220191   -5.006760    2.489311
     98          1           0        2.998880   -3.587512    1.176302
     99          1           0        0.902456   -6.372309   -1.183453
    100          1           0        1.786549   -5.484816   -2.417944
    101          1           0        0.263645   -4.829820   -1.561680
    102          1           0       -3.985525   -2.863754    0.813422
    103          1           0       -3.193467   -3.670909   -0.587761
    104          1           0       -4.446733   -1.250346   -1.619315
    105          1           0       -6.687864   -4.757748   -1.169957
    106          1           0       -7.436867   -3.640067   -0.016295
    107          1           0       -5.770146   -4.232960    0.210542
    108          1           0       -7.000797   -2.791395   -3.156920
    109          1           0       -6.468247   -1.215345   -2.580097
    110          1           0       -8.498292   -1.666930   -0.667561
    111          1           0       -8.995989   -2.596844   -2.084943
    112          1           0       -8.104888   -0.270217   -3.254240
    113          1           0       -8.464756    0.350295   -1.661626
    114          1           0      -10.763342   -1.264523   -2.422744
    115          1           0      -10.630090    0.325147   -4.804351
    116          1           0      -11.183690   -1.342304   -4.569397
    117          1           0       -9.478361   -1.029136   -4.774759
    118          1           0      -11.736057    1.220287   -3.108053
    119          1           0      -10.307558    1.671523   -2.195216
    120          1           0      -11.472885   -0.393007   -0.515458
    121          1           0      -12.860180    0.545894   -1.134531
    122          1           0      -10.842047    2.340145   -0.346135
    123          1           0      -10.951852    1.021685    0.927614
    124          1           0      -13.134833    2.765721   -0.162729
    125          1           0      -11.968593    3.528894    2.465842
    126          1           0      -13.012514    4.398577    1.510016
    127          1           0      -11.367164    4.148370    0.932559
    128          1           0      -13.364202    1.782559    2.589824
    129          1           0      -13.196372    0.463851    1.481475
    130          1           0      -15.397135    0.955049    0.689128
    131          1           0      -14.972197    2.617265    0.520120
    132          1           0      -15.975017    3.305122    2.432457
    133          1           0      -15.247918    2.177066    3.378088
    134          1           0      -17.233988    0.652023    1.694677
    135          1           0      -17.974134    0.350415    4.330917
    136          1           0      -16.238847    0.604433    4.417976
    137          1           0      -17.060050   -0.679439    3.422205
    138          1           0      -19.127272    1.462641    2.414966
    139          1           0      -18.396991    2.938131    1.803203
    140          1           0      -18.306519    2.738188    3.528191
 ---------------------------------------------------------------------

 SCF Done:  E(RPBE1PBE) =  -3005.35725093     A.U. after   16 cycles

 Excitation energies and oscillator strengths:

 Excited State   1:      Singlet-A      1.8469 eV  671.31 nm  f=0.3773  <S**2>=0.000
     245 -> 248        0.17066
     246 -> 247        0.69418
     246 <- 247       -0.11082
 This state for optimization and/or second-order correction.
 Total Energy, E(TD-HF/TD-DFT) =  -3005.28937892
 Copying the excited state density for this state as the 1-particle RhoCI density.

 Excited State   2:      Singlet-A      2.2235 eV  557.60 nm  f=0.1192  <S**2>=0.000
     245 -> 247        0.65655
     246 -> 248       -0.25003

 Excited State   3:      Singlet-A      2.9982 eV  413.53 nm  f=0.0018  <S**2>=0.000
     241 -> 247        0.14127
     242 -> 247       -0.16625
     244 -> 247        0.65520

 Excited State   4:      Singlet-A      3.0341 eV  408.63 nm  f=0.0017  <S**2>=0.000
     240 -> 247        0.12438
     242 -> 247        0.65012
     244 -> 247        0.18335

 Excited State   5:      Singlet-A      3.0695 eV  403.92 nm  f=0.0014  <S**2>=0.000
     240 -> 247        0.52156
     240 -> 249       -0.15652
     241 -> 247        0.40973
     244 -> 247       -0.11069

 The electronic state is 1-A.
 Alpha  occ. eigenvalues --  -46.92051 -19.26803 -19.26208 -19.20262 -19.19952
 Alpha  occ. eigenvalues --  -19.19209 -19.18999 -14.41453 -14.41393 -14.38999
 Alpha  occ. eigenvalues --  -14.38846 -10.36918 -10.35865 -10.32652 -10.31872
 Alpha  occ. eigenvalues --  -10.30203 -10.29023 -10.28802 -10.28654 -10.28491
 Alpha  occ. eigenvalues --  -10.28272 -10.27882 -10.27521 -10.27333 -10.26343
 Alpha  occ. eigenvalues --  -10.26332 -10.26052 -10.25936 -10.25692 -10.25590
 Alpha  occ. eigenvalues --  -10.25534 -10.25244 -10.25232 -10.25179 -10.24888
 Alpha  occ. eigenvalues --  -10.24868 -10.24806 -10.24716 -10.24670 -10.24329
 Alpha  occ. eigenvalues --  -10.24129 -10.23985 -10.23892 -10.23885 -10.23717
 Alpha  occ. eigenvalues --  -10.23472 -10.23382 -10.23376 -10.23371 -10.23359
 Alpha  occ. eigenvalues --  -10.23129 -10.22956 -10.22905 -10.22885 -10.22658
 Alpha  occ. eigenvalues --  -10.22449 -10.22153 -10.22060 -10.22013 -10.21876
 Alpha  occ. eigenvalues --  -10.21776 -10.21730 -10.21580 -10.21488 -10.21463
 Alpha  occ. eigenvalues --  -10.21357  -3.14098  -1.86957  -1.86479  -1.86304
 Alpha  occ. eigenvalues --   -1.11269  -1.10676  -1.04526  -1.04480  -1.02119
 Alpha  occ. eigenvalues --   -1.01783  -0.99307  -0.98079  -0.97697  -0.95597
 Alpha  occ. eigenvalues --   -0.87741  -0.84653  -0.84276  -0.83333  -0.83084
 Alpha  occ. eigenvalues --   -0.82719  -0.82589  -0.81989  -0.81691  -0.81298
 Alpha  occ. eigenvalues --   -0.80397  -0.79735  -0.78795  -0.78313  -0.77453
 Alpha  occ. eigenvalues --   -0.76692  -0.76158  -0.75433  -0.75126  -0.74314
 Alpha  occ. eigenvalues --   -0.74165  -0.72622  -0.72371  -0.71605  -0.70544
 Alpha  occ. eigenvalues --   -0.70096  -0.69764  -0.69419  -0.69174  -0.68135
 Alpha  occ. eigenvalues --   -0.67475  -0.67213  -0.66399  -0.64862  -0.64053
 Alpha  occ. eigenvalues --   -0.63393  -0.62240  -0.61513  -0.60716  -0.60100
 Alpha  occ. eigenvalues --   -0.59764  -0.59690  -0.59211  -0.59094  -0.57968
 Alpha  occ. eigenvalues --   -0.57865  -0.57714  -0.56781  -0.56422  -0.54580
 Alpha  occ. eigenvalues --   -0.54144  -0.53801  -0.53721  -0.52931  -0.52820
 Alpha  occ. eigenvalues --   -0.51932  -0.51699  -0.50829  -0.50564  -0.49879
 Alpha  occ. eigenvalues --   -0.49657  -0.49307  -0.49150  -0.49011  -0.48779
 Alpha  occ. eigenvalues --   -0.48411  -0.48046  -0.47642  -0.47565  -0.47448
 Alpha  occ. eigenvalues --   -0.47172  -0.46885  -0.46817  -0.46682  -0.46647
 Alpha  occ. eigenvalues --   -0.46122  -0.45748  -0.45532  -0.45306  -0.45064
 Alpha  occ. eigenvalues --   -0.44830  -0.44727  -0.44531  -0.44360  -0.44020
 Alpha  occ. eigenvalues --   -0.43911  -0.43730  -0.43622  -0.43471  -0.43421
 Alpha  occ. eigenvalues --   -0.43261  -0.43246  -0.42889  -0.42733  -0.42577
 Alpha  occ. eigenvalues --   -0.42351  -0.42215  -0.41712  -0.41583  -0.41210
 Alpha  occ. eigenvalues --   -0.40944  -0.40796  -0.40699  -0.40685  -0.40607
 Alpha  occ. eigenvalues --   -0.40395  -0.40289  -0.40045  -0.40006  -0.39792
 Alpha  occ. eigenvalues --   -0.39388  -0.39297  -0.39173  -0.39020  -0.38885
 Alpha  occ. eigenvalues --   -0.38417  -0.38334  -0.38237  -0.37978  -0.37869
 Alpha  occ. eigenvalues --   -0.37707  -0.37488  -0.37388  -0.37164  -0.36982
 Alpha  occ. eigenvalues --   -0.36963  -0.36746  -0.36532  -0.35795  -0.35479
 Alpha  occ. eigenvalues --   -0.35453  -0.35369  -0.35303  -0.34908  -0.34693
 Alpha  occ. eigenvalues --   -0.34633  -0.34175  -0.33968  -0.33862  -0.33808
 Alpha  occ. eigenvalues --   -0.33656  -0.33142  -0.32857  -0.32745  -0.32357
 Alpha  occ. eigenvalues --   -0.32314  -0.31858  -0.31772  -0.31288  -0.31223
 Alpha  occ. eigenvalues --   -0.31093  -0.30958  -0.30035  -0.29216  -0.29088
 Alpha  occ. eigenvalues --   -0.28532  -0.28447  -0.27924  -0.26945  -0.25940
 Alpha  occ. eigenvalues --   -0.25563  -0.25374  -0.25262  -0.25094  -0.20927
 Alpha  occ. eigenvalues --   -0.18758
 Alpha virt. eigenvalues --   -0.11213  -0.04994  -0.03836  -0.01905  -0.00756
 Alpha virt. eigenvalues --   -0.00056   0.00082   0.01019   0.01654   0.03278
 Alpha virt. eigenvalues --    0.04167   0.04996   0.05202   0.05669   0.05800

 Mulliken charges:
               1
     1  Mg   0.963083
     2  C   -0.102598
     3  C   -0.084289
     4  C   -0.033438
     5  C   -0.078645
     6  N   -0.398284
     7  C    0.020380
     8  C   -0.097776
     9  C   -0.127177
    10  C    0.081813
    11  C    0.039434
    12  C   -0.023954
    13  C   -0.008016
    14  C    0.213880
    15  O   -0.289485
    16  O   -0.363005
    17  N   -0.471405
    18  C    0.139415
    19  C   -0.206119
    20  C   -0.068164
    21  C    0.149118
    22  C    0.056881
    23  C    0.049764
    24  O   -0.241010
    25  C   -0.033743
    26  N   -0.405573
    27  C    0.037470
    28  C   -0.074457
    29  C   -0.084619
    30  C    0.071770
    31  C   -0.000009
    32  C   -0.050693
    33  C   -0.083409
    34  N   -0.485289
    35  C    0.163751
    36  C   -0.190350
    37  C   -0.051717
    38  C    0.231481
    39  C    0.065721
    40  C    0.159332
    41  O   -0.212886
    42  C   -0.053441
    43  C    0.284887
    44  O   -0.270806
    45  O   -0.366689
    46  C    0.113341
    47  C    0.216521
    48  C   -0.150610
    49  C   -0.205815
    50  C    0.039775
    51  C   -0.006118
    52  C   -0.076862
    53  C   -0.010131
    54  C   -0.238015
    55  C   -0.016100
    56  C    0.013967
    57  C   -0.041734
    58  C   -0.035286
    59  C   -0.214524
    60  C   -0.003048
    61  C    0.002772
    62  C   -0.060271
    63  C    0.025969
    64  C   -0.239651
    65  C   -0.007562
    66  C   -0.025432
    67  H    0.012379
    68  H    0.024839
    69  H    0.006283
    70  H    0.050621
    71  H    0.055782
    72  H    0.051479
    73  H    0.047112
    74  H    0.049908
    75  H    0.048614
    76  H    0.078724
    77  H    0.057227
    78  H    0.072752
    79  H    0.068328
    80  H    0.045424
    81  H    0.067920
    82  H    0.060444
    83  H    0.051654
    84  H    0.057842
    85  H    0.054780
    86  H    0.039428
    87  H    0.051807
    88  H    0.052101
    89  H    0.052107
    90  H    0.043825
    91  H    0.039283
    92  H    0.042137
    93  H    0.063182
    94  H    0.034798
    95  H    0.029181
    96  H    0.071957
    97  H    0.053645
    98  H    0.081702
    99  H    0.058884
   100  H    0.084391
   101  H    0.048793
   102  H    0.076531
   103  H    0.072443
   104  H    0.040549
   105  H    0.048834
   106  H    0.060235
   107  H    0.025975
   108  H    0.051352
   109  H    0.034043
   110  H    0.047968
   111  H    0.037567
   112  H    0.032416
   113  H    0.035433
   114  H    0.041448
   115  H    0.033492
   116  H    0.035384
   117  H    0.024559
   118  H    0.029591
   119  H    0.032461
   120  H    0.037935
   121  H    0.033700
   122  H    0.015824
   123  H    0.027348
   124  H    0.027520
   125  H    0.021119
   126  H    0.027118
   127  H    0.028234
   128  H    0.015439
   129  H    0.023096
   130  H    0.033970
   131  H    0.025966
   132  H    0.020879
   133  H    0.016283
   134  H    0.037073
   135  H    0.021411
   136  H    0.035255
   137  H    0.028949
   138  H    0.033191
   139  H    0.030334
   140  H    0.037417
 Sum of Mulliken charges =  -0.00000

 Dipole moment (field-independent basis, Debye):
    X=             -3.2962    Y=              3.5176    Z=             -0.3640  Tot=              4.8343
 Quadrupole moment (field-independent basis, Debye-Ang):
   XX=           -370.6041   YY=           -421.2840   ZZ=           -404.2815
   XY=             13.8833   XZ=             25.9723   YZ=              2.3603

 Normal termination of Gaussian 16 at Wed Apr 27 22:59:06 2022.
