 Gaussian 16, Revision A.03,
 Gaussian 16:  ES64L-G16RevA.03 25-Dec-2016

 --------------------------------
 #p wB97XD/Def2SVP td=(nstates=5)
 --------------------------------

 -----------------------------------------------------
 step_1351_chromophore_16 TDDFT with wB97XD functional
 -----------------------------------------------------
 Symbolic Z-matrix:
 Charge =  0 Multiplicity = 1

                         Standard orientation:
 ---------------------------------------------------------------------
 Center     Atomic      Atomic             Coordinates (Angstroms)
 Number     Number       Type             X           Y           Z
 ---------------------------------------------------------------------
      1         12           0        6.406429    0.646559    0.215296
      2          6           0        4.238638   -2.197000    0.240094
      3          6           0        3.742510    2.475935   -1.108155
      4          6           0        8.427555    3.118801   -0.054961
      5          6           0        9.066587   -1.514955    1.088973
      6          7           0        4.220076    0.181672   -0.379342
      7          6           0        3.580083   -1.084813   -0.230708
      8          6           0        2.121591   -0.892934   -0.654983
      9          6           0        1.895569    0.615965   -0.949579
     10          6           0        3.377216    1.148274   -0.909331
     11          6           0        1.052504    0.923180   -2.175037
     12          6           0        1.098363   -1.564785    0.389755
     13          6           0       -0.342370   -0.987631    0.468344
     14          6           0       -1.506597   -1.996841    0.636495
     15          8           0       -1.526423   -2.949060    1.443862
     16          8           0       -2.580074   -1.619196   -0.120765
     17          7           0        6.079416    2.618418   -0.429319
     18          6           0        4.972645    3.180836   -0.975319
     19          6           0        5.183187    4.612180   -1.182285
     20          6           0        6.566868    4.827706   -0.790652
     21          6           0        7.100431    3.515651   -0.420946
     22          6           0        4.178603    5.547392   -1.762328
     23          6           0        7.370630    6.107912   -0.631252
     24          8           0        8.569740    6.043444   -0.398020
     25          6           0        6.687084    7.539399   -0.886829
     26          7           0        8.462484    0.781471    0.563082
     27          6           0        9.081118    1.977378    0.384674
     28          6           0       10.561189    1.912703    0.683987
     29          6           0       10.702132    0.472505    1.263671
     30          6           0        9.339597   -0.142578    0.985904
     31          6           0       11.660454    2.299513   -0.400800
     32          6           0       11.190878    0.340569    2.740112
     33          6           0       10.177018    0.751251    3.824173
     34          7           0        6.661264   -1.406278    0.499774
     35          6           0        7.793252   -2.072074    0.898386
     36          6           0        7.389981   -3.453327    1.123661
     37          6           0        6.046434   -3.532138    0.826126
     38          6           0        5.580849   -2.235161    0.517686
     39          6           0        8.287264   -4.598756    1.480917
     40          6           0        4.988708   -4.490422    0.731670
     41          8           0        4.970365   -5.709226    0.837753
     42          6           0        3.734802   -3.658604    0.374924
     43          6           0        3.146000   -4.160232   -0.800162
     44          8           0        3.692597   -4.203495   -1.913494
     45          8           0        1.957398   -4.729202   -0.405939
     46          6           0        1.205238   -5.374607   -1.502546
     47          6           0       -3.574840   -2.731287   -0.187390
     48          6           0       -4.682649   -2.197198   -1.135218
     49          6           0       -5.923613   -2.753870   -1.264511
     50          6           0       -6.506312   -3.901342   -0.520926
     51          6           0       -6.909036   -2.163254   -2.271233
     52          6           0       -8.323564   -1.813704   -1.733325
     53          6           0       -8.727322   -0.432945   -2.373245
     54          6           0      -10.222725   -0.403376   -2.814317
     55          6           0      -10.392419   -0.630005   -4.335284
     56          6           0      -11.026155    0.869234   -2.359571
     57          6           0      -11.777375    0.527652   -1.013755
     58          6           0      -11.443018    1.555644    0.114340
     59          6           0      -12.579033    2.388171    0.695227
     60          6           0      -12.215213    3.660575    1.412124
     61          6           0      -13.467365    1.517739    1.538060
     62          6           0      -14.998402    1.803477    1.244600
     63          6           0      -15.827214    2.225865    2.457006
     64          6           0      -17.081490    1.316667    2.545314
     65          6           0      -17.057545    0.362831    3.740365
     66          6           0      -18.330038    2.186018    2.589123
     67          1           0        2.922069    3.193036   -1.173241
     68          1           0        9.199561    3.865366   -0.254603
     69          1           0        9.882430   -2.195393    1.337655
     70          1           0        2.133540   -1.458583   -1.585259
     71          1           0        1.512319    0.946287    0.015876
     72          1           0        1.664709    1.424786   -2.924137
     73          1           0        0.227112    1.556992   -1.850257
     74          1           0        0.626592    0.018707   -2.609669
     75          1           0        1.613360   -1.436996    1.341874
     76          1           0        0.968132   -2.613142    0.119613
     77          1           0       -0.657339   -0.448756   -0.424670
     78          1           0       -0.330461   -0.423757    1.401566
     79          1           0        3.878619    6.094135   -0.868644
     80          1           0        3.335101    4.972949   -2.144889
     81          1           0        4.614687    6.148059   -2.561128
     82          1           0        7.348811    8.370853   -0.644885
     83          1           0        5.692863    7.571013   -0.439468
     84          1           0        6.550903    7.559604   -1.967923
     85          1           0       10.754351    2.614452    1.495487
     86          1           0       11.435276   -0.120579    0.718232
     87          1           0       11.268580    2.354008   -1.416024
     88          1           0       12.541009    1.656795   -0.380240
     89          1           0       11.897245    3.330712   -0.137340
     90          1           0       12.070230    0.959204    2.922749
     91          1           0       11.415292   -0.696838    2.989615
     92          1           0       10.262246    0.015521    4.624044
     93          1           0        9.177249    0.912528    3.419849
     94          1           0       10.508425    1.684788    4.280946
     95          1           0        9.329546   -4.286746    1.414251
     96          1           0        7.946425   -5.421059    0.850466
     97          1           0        8.220191   -5.006760    2.489311
     98          1           0        2.998880   -3.587512    1.176302
     99          1           0        0.902456   -6.372309   -1.183453
    100          1           0        1.786549   -5.484816   -2.417944
    101          1           0        0.263645   -4.829820   -1.561680
    102          1           0       -3.985525   -2.863754    0.813422
    103          1           0       -3.193467   -3.670909   -0.587761
    104          1           0       -4.446733   -1.250346   -1.619315
    105          1           0       -6.687864   -4.757748   -1.169957
    106          1           0       -7.436867   -3.640067   -0.016295
    107          1           0       -5.770146   -4.232960    0.210542
    108          1           0       -7.000797   -2.791395   -3.156920
    109          1           0       -6.468247   -1.215345   -2.580097
    110          1           0       -8.498292   -1.666930   -0.667561
    111          1           0       -8.995989   -2.596844   -2.084943
    112          1           0       -8.104888   -0.270217   -3.254240
    113          1           0       -8.464756    0.350295   -1.661626
    114          1           0      -10.763342   -1.264523   -2.422744
    115          1           0      -10.630090    0.325147   -4.804351
    116          1           0      -11.183690   -1.342304   -4.569397
    117          1           0       -9.478361   -1.029136   -4.774759
    118          1           0      -11.736057    1.220287   -3.108053
    119          1           0      -10.307558    1.671523   -2.195216
    120          1           0      -11.472885   -0.393007   -0.515458
    121          1           0      -12.860180    0.545894   -1.134531
    122          1           0      -10.842047    2.340145   -0.346135
    123          1           0      -10.951852    1.021685    0.927614
    124          1           0      -13.134833    2.765721   -0.162729
    125          1           0      -11.968593    3.528894    2.465842
    126          1           0      -13.012514    4.398577    1.510016
    127          1           0      -11.367164    4.148370    0.932559
    128          1           0      -13.364202    1.782559    2.589824
    129          1           0      -13.196372    0.463851    1.481475
    130          1           0      -15.397135    0.955049    0.689128
    131          1           0      -14.972197    2.617265    0.520120
    132          1           0      -15.975017    3.305122    2.432457
    133          1           0      -15.247918    2.177066    3.378088
    134          1           0      -17.233988    0.652023    1.694677
    135          1           0      -17.974134    0.350415    4.330917
    136          1           0      -16.238847    0.604433    4.417976
    137          1           0      -17.060050   -0.679439    3.422205
    138          1           0      -19.127272    1.462641    2.414966
    139          1           0      -18.396991    2.938131    1.803203
    140          1           0      -18.306519    2.738188    3.528191
 ---------------------------------------------------------------------

 SCF Done:  E(RwB97XD) =  -3007.86430414     A.U. after   19 cycles

 Excitation energies and oscillator strengths:

 Excited State   1:      Singlet-A      1.6327 eV  759.37 nm  f=0.3905  <S**2>=0.000
     245 -> 248       -0.18296
     246 -> 247        0.68438
     245 <- 248       -0.11817
 This state for optimization and/or second-order correction.
 Total Energy, E(TD-HF/TD-DFT) =  -3007.80430287
 Copying the excited state density for this state as the 1-particle RhoCI density.

 Excited State   2:      Singlet-A      2.1599 eV  574.02 nm  f=0.1179  <S**2>=0.000
     245 -> 247        0.64355
     246 -> 248        0.27980

 Excited State   3:      Singlet-A      3.3823 eV  366.57 nm  f=0.0054  <S**2>=0.000
     242 -> 247       -0.34516
     244 -> 247        0.58539
     246 -> 248       -0.10357

 Excited State   4:      Singlet-A      3.4909 eV  355.16 nm  f=0.0605  <S**2>=0.000
     241 -> 247        0.18074
     242 -> 247        0.50580
     244 -> 247        0.25187
     246 -> 248       -0.33210

 Excited State   5:      Singlet-A      3.5900 eV  345.36 nm  f=0.0507  <S**2>=0.000
     239 -> 247        0.15312
     239 -> 249       -0.12625
     240 -> 247        0.52312
     240 -> 249       -0.30763
     240 -> 250       -0.16025
     246 -> 248       -0.15989

 The electronic state is 1-A.
 Alpha  occ. eigenvalues --  -46.94988 -19.31365 -19.30853 -19.24932 -19.24781
 Alpha  occ. eigenvalues --  -19.24195 -19.23667 -14.46495 -14.46490 -14.43849
 Alpha  occ. eigenvalues --  -14.43846 -10.43688 -10.42836 -10.39351 -10.38902
 Alpha  occ. eigenvalues --  -10.36707 -10.35436 -10.35229 -10.34974 -10.34865
 Alpha  occ. eigenvalues --  -10.34452 -10.34025 -10.34014 -10.33440 -10.32848
 Alpha  occ. eigenvalues --  -10.32578 -10.32275 -10.32205 -10.32145 -10.31922
 Alpha  occ. eigenvalues --  -10.31885 -10.31767 -10.31588 -10.31455 -10.31310
 Alpha  occ. eigenvalues --  -10.31241 -10.31162 -10.31089 -10.31059 -10.30642
 Alpha  occ. eigenvalues --  -10.30441 -10.30396 -10.30389 -10.30283 -10.30030
 Alpha  occ. eigenvalues --  -10.29843 -10.29803 -10.29764 -10.29750 -10.29719
 Alpha  occ. eigenvalues --  -10.29622 -10.29309 -10.29252 -10.29158 -10.29018
 Alpha  occ. eigenvalues --  -10.28858 -10.28554 -10.28435 -10.28364 -10.28226
 Alpha  occ. eigenvalues --  -10.28201 -10.28083 -10.28024 -10.27882 -10.27837
 Alpha  occ. eigenvalues --  -10.27799  -3.20899  -1.94505  -1.94029  -1.93852
 Alpha  occ. eigenvalues --   -1.18655  -1.18189  -1.12124  -1.11873  -1.09617
 Alpha  occ. eigenvalues --   -1.09143  -1.06703  -1.05550  -1.04902  -1.03014
 Alpha  occ. eigenvalues --   -0.95454  -0.92338  -0.91936  -0.90991  -0.90668
 Alpha  occ. eigenvalues --   -0.90380  -0.90140  -0.89645  -0.89304  -0.88919
 Alpha  occ. eigenvalues --   -0.88046  -0.87372  -0.86472  -0.85971  -0.85052
 Alpha  occ. eigenvalues --   -0.84349  -0.83816  -0.83020  -0.82792  -0.81983
 Alpha  occ. eigenvalues --   -0.81851  -0.80314  -0.79946  -0.79216  -0.78238
 Alpha  occ. eigenvalues --   -0.77781  -0.77301  -0.77111  -0.76856  -0.75788
 Alpha  occ. eigenvalues --   -0.75078  -0.74819  -0.73922  -0.72480  -0.71619
 Alpha  occ. eigenvalues --   -0.70979  -0.69870  -0.68983  -0.68343  -0.67755
 Alpha  occ. eigenvalues --   -0.67274  -0.67120  -0.66646  -0.66589  -0.65623
 Alpha  occ. eigenvalues --   -0.65358  -0.65355  -0.64433  -0.63911  -0.62029
 Alpha  occ. eigenvalues --   -0.61520  -0.61328  -0.61198  -0.60542  -0.60199
 Alpha  occ. eigenvalues --   -0.59379  -0.59114  -0.58289  -0.58011  -0.57254
 Alpha  occ. eigenvalues --   -0.57115  -0.56735  -0.56577  -0.56478  -0.56098
 Alpha  occ. eigenvalues --   -0.55820  -0.55473  -0.55014  -0.54950  -0.54826
 Alpha  occ. eigenvalues --   -0.54555  -0.54248  -0.54221  -0.54025  -0.53938
 Alpha  occ. eigenvalues --   -0.53559  -0.53119  -0.52919  -0.52642  -0.52415
 Alpha  occ. eigenvalues --   -0.52165  -0.52078  -0.51858  -0.51653  -0.51433
 Alpha  occ. eigenvalues --   -0.51210  -0.51052  -0.50939  -0.50871  -0.50750
 Alpha  occ. eigenvalues --   -0.50543  -0.50518  -0.50125  -0.49988  -0.49881
 Alpha  occ. eigenvalues --   -0.49621  -0.49471  -0.48926  -0.48834  -0.48401
 Alpha  occ. eigenvalues --   -0.48260  -0.48011  -0.47966  -0.47855  -0.47790
 Alpha  occ. eigenvalues --   -0.47655  -0.47515  -0.47386  -0.47264  -0.46986
 Alpha  occ. eigenvalues --   -0.46648  -0.46350  -0.46300  -0.46117  -0.46073
 Alpha  occ. eigenvalues --   -0.45536  -0.45453  -0.45347  -0.45126  -0.45056
 Alpha  occ. eigenvalues --   -0.44900  -0.44526  -0.44514  -0.44292  -0.44098
 Alpha  occ. eigenvalues --   -0.44074  -0.43893  -0.43615  -0.42819  -0.42557
 Alpha  occ. eigenvalues --   -0.42526  -0.42449  -0.42266  -0.41876  -0.41699
 Alpha  occ. eigenvalues --   -0.41672  -0.41248  -0.40961  -0.40919  -0.40762
 Alpha  occ. eigenvalues --   -0.40750  -0.40222  -0.39907  -0.39661  -0.39410
 Alpha  occ. eigenvalues --   -0.39379  -0.38854  -0.38853  -0.38393  -0.38250
 Alpha  occ. eigenvalues --   -0.38041  -0.37876  -0.36927  -0.36483  -0.36000
 Alpha  occ. eigenvalues --   -0.35555  -0.35072  -0.34791  -0.33575  -0.33143
 Alpha  occ. eigenvalues --   -0.32380  -0.32166  -0.32022  -0.31551  -0.25915
 Alpha  occ. eigenvalues --   -0.22909
 Alpha virt. eigenvalues --   -0.07103   0.00464   0.02436   0.04610   0.05910
 Alpha virt. eigenvalues --    0.06101   0.06684   0.07732   0.08317   0.09586
 Alpha virt. eigenvalues --    0.10800   0.11843   0.11970   0.12441   0.12615

 Mulliken charges:
               1
     1  Mg   0.952520
     2  C   -0.106709
     3  C   -0.096177
     4  C   -0.039764
     5  C   -0.101373
     6  N   -0.368230
     7  C   -0.010887
     8  C   -0.081199
     9  C   -0.091257
    10  C    0.063244
    11  C    0.047221
    12  C   -0.002846
    13  C    0.011345
    14  C    0.204549
    15  O   -0.287963
    16  O   -0.362589
    17  N   -0.439188
    18  C    0.126770
    19  C   -0.191700
    20  C   -0.066319
    21  C    0.137568
    22  C    0.069658
    23  C    0.041929
    24  O   -0.237247
    25  C   -0.018836
    26  N   -0.369601
    27  C    0.020543
    28  C   -0.052180
    29  C   -0.057758
    30  C    0.056027
    31  C    0.010748
    32  C   -0.037005
    33  C   -0.066416
    34  N   -0.446039
    35  C    0.159222
    36  C   -0.186065
    37  C   -0.044394
    38  C    0.215346
    39  C    0.075454
    40  C    0.142456
    41  O   -0.200624
    42  C   -0.012725
    43  C    0.258970
    44  O   -0.264226
    45  O   -0.364461
    46  C    0.129140
    47  C    0.228398
    48  C   -0.156243
    49  C   -0.195042
    50  C    0.053424
    51  C    0.017551
    52  C   -0.065318
    53  C    0.006149
    54  C   -0.206497
    55  C   -0.003410
    56  C    0.028465
    57  C   -0.027938
    58  C   -0.013298
    59  C   -0.178875
    60  C    0.006141
    61  C    0.015660
    62  C   -0.043102
    63  C    0.037623
    64  C   -0.206910
    65  C    0.000697
    66  C   -0.011370
    67  H    0.003967
    68  H    0.018328
    69  H    0.001760
    70  H    0.038358
    71  H    0.041544
    72  H    0.046654
    73  H    0.042355
    74  H    0.044537
    75  H    0.040143
    76  H    0.060853
    77  H    0.047833
    78  H    0.067716
    79  H    0.061713
    80  H    0.040367
    81  H    0.062555
    82  H    0.059147
    83  H    0.045316
    84  H    0.051334
    85  H    0.043466
    86  H    0.029084
    87  H    0.046047
    88  H    0.046775
    89  H    0.046701
    90  H    0.036635
    91  H    0.031279
    92  H    0.037173
    93  H    0.052719
    94  H    0.029300
    95  H    0.023887
    96  H    0.068339
    97  H    0.050448
    98  H    0.075338
    99  H    0.054990
   100  H    0.081274
   101  H    0.044980
   102  H    0.070740
   103  H    0.067531
   104  H    0.038571
   105  H    0.043903
   106  H    0.054506
   107  H    0.019550
   108  H    0.044632
   109  H    0.021698
   110  H    0.040299
   111  H    0.028284
   112  H    0.020788
   113  H    0.027441
   114  H    0.025952
   115  H    0.026652
   116  H    0.030522
   117  H    0.017424
   118  H    0.023075
   119  H    0.022125
   120  H    0.028515
   121  H    0.024488
   122  H    0.001977
   123  H    0.018612
   124  H    0.012087
   125  H    0.014344
   126  H    0.021433
   127  H    0.022903
   128  H    0.002261
   129  H    0.015587
   130  H    0.025267
   131  H    0.015408
   132  H    0.014140
   133  H    0.005574
   134  H    0.025529
   135  H    0.015517
   136  H    0.029241
   137  H    0.023917
   138  H    0.027111
   139  H    0.024082
   140  H    0.030359
 Sum of Mulliken charges =  -0.00000

 Dipole moment (field-independent basis, Debye):
    X=             -3.3814    Y=              3.2286    Z=             -0.3108  Tot=              4.6855
 Quadrupole moment (field-independent basis, Debye-Ang):
   XX=           -371.4939   YY=           -419.6845   ZZ=           -403.8789
   XY=             12.1177   XZ=             26.3485   YZ=              2.3905

 Normal termination of Gaussian 16 at Wed Apr 27 23:39:39 2022.
