 Gaussian 16, Revision A.03,
 Gaussian 16:  ES64L-G16RevA.03 25-Dec-2016

 --------------------
 #p ZINDO=(nstates=5)
 --------------------

 ------------------------------
 step_1351_chromophore_16 ZINDO
 ------------------------------
 Symbolic Z-matrix:
 Charge =  0 Multiplicity = 1

                         Standard orientation:
 ---------------------------------------------------------------------
 Center     Atomic      Atomic             Coordinates (Angstroms)
 Number     Number       Type             X           Y           Z
 ---------------------------------------------------------------------
      1         12           0        6.406429    0.646559    0.215296
      2          6           0        4.238638   -2.197000    0.240094
      3          6           0        3.742510    2.475935   -1.108155
      4          6           0        8.427555    3.118801   -0.054961
      5          6           0        9.066587   -1.514955    1.088973
      6          7           0        4.220076    0.181672   -0.379342
      7          6           0        3.580083   -1.084813   -0.230708
      8          6           0        2.121591   -0.892934   -0.654983
      9          6           0        1.895569    0.615965   -0.949579
     10          6           0        3.377216    1.148274   -0.909331
     11          6           0        1.052504    0.923180   -2.175037
     12          6           0        1.098363   -1.564785    0.389755
     13          6           0       -0.342370   -0.987631    0.468344
     14          6           0       -1.506597   -1.996841    0.636495
     15          8           0       -1.526423   -2.949060    1.443862
     16          8           0       -2.580074   -1.619196   -0.120765
     17          7           0        6.079416    2.618418   -0.429319
     18          6           0        4.972645    3.180836   -0.975319
     19          6           0        5.183187    4.612180   -1.182285
     20          6           0        6.566868    4.827706   -0.790652
     21          6           0        7.100431    3.515651   -0.420946
     22          6           0        4.178603    5.547392   -1.762328
     23          6           0        7.370630    6.107912   -0.631252
     24          8           0        8.569740    6.043444   -0.398020
     25          6           0        6.687084    7.539399   -0.886829
     26          7           0        8.462484    0.781471    0.563082
     27          6           0        9.081118    1.977378    0.384674
     28          6           0       10.561189    1.912703    0.683987
     29          6           0       10.702132    0.472505    1.263671
     30          6           0        9.339597   -0.142578    0.985904
     31          6           0       11.660454    2.299513   -0.400800
     32          6           0       11.190878    0.340569    2.740112
     33          6           0       10.177018    0.751251    3.824173
     34          7           0        6.661264   -1.406278    0.499774
     35          6           0        7.793252   -2.072074    0.898386
     36          6           0        7.389981   -3.453327    1.123661
     37          6           0        6.046434   -3.532138    0.826126
     38          6           0        5.580849   -2.235161    0.517686
     39          6           0        8.287264   -4.598756    1.480917
     40          6           0        4.988708   -4.490422    0.731670
     41          8           0        4.970365   -5.709226    0.837753
     42          6           0        3.734802   -3.658604    0.374924
     43          6           0        3.146000   -4.160232   -0.800162
     44          8           0        3.692597   -4.203495   -1.913494
     45          8           0        1.957398   -4.729202   -0.405939
     46          6           0        1.205238   -5.374607   -1.502546
     47          6           0       -3.574840   -2.731287   -0.187390
     48          6           0       -4.682649   -2.197198   -1.135218
     49          6           0       -5.923613   -2.753870   -1.264511
     50          6           0       -6.506312   -3.901342   -0.520926
     51          6           0       -6.909036   -2.163254   -2.271233
     52          6           0       -8.323564   -1.813704   -1.733325
     53          6           0       -8.727322   -0.432945   -2.373245
     54          6           0      -10.222725   -0.403376   -2.814317
     55          6           0      -10.392419   -0.630005   -4.335284
     56          6           0      -11.026155    0.869234   -2.359571
     57          6           0      -11.777375    0.527652   -1.013755
     58          6           0      -11.443018    1.555644    0.114340
     59          6           0      -12.579033    2.388171    0.695227
     60          6           0      -12.215213    3.660575    1.412124
     61          6           0      -13.467365    1.517739    1.538060
     62          6           0      -14.998402    1.803477    1.244600
     63          6           0      -15.827214    2.225865    2.457006
     64          6           0      -17.081490    1.316667    2.545314
     65          6           0      -17.057545    0.362831    3.740365
     66          6           0      -18.330038    2.186018    2.589123
     67          1           0        2.922069    3.193036   -1.173241
     68          1           0        9.199561    3.865366   -0.254603
     69          1           0        9.882430   -2.195393    1.337655
     70          1           0        2.133540   -1.458583   -1.585259
     71          1           0        1.512319    0.946287    0.015876
     72          1           0        1.664709    1.424786   -2.924137
     73          1           0        0.227112    1.556992   -1.850257
     74          1           0        0.626592    0.018707   -2.609669
     75          1           0        1.613360   -1.436996    1.341874
     76          1           0        0.968132   -2.613142    0.119613
     77          1           0       -0.657339   -0.448756   -0.424670
     78          1           0       -0.330461   -0.423757    1.401566
     79          1           0        3.878619    6.094135   -0.868644
     80          1           0        3.335101    4.972949   -2.144889
     81          1           0        4.614687    6.148059   -2.561128
     82          1           0        7.348811    8.370853   -0.644885
     83          1           0        5.692863    7.571013   -0.439468
     84          1           0        6.550903    7.559604   -1.967923
     85          1           0       10.754351    2.614452    1.495487
     86          1           0       11.435276   -0.120579    0.718232
     87          1           0       11.268580    2.354008   -1.416024
     88          1           0       12.541009    1.656795   -0.380240
     89          1           0       11.897245    3.330712   -0.137340
     90          1           0       12.070230    0.959204    2.922749
     91          1           0       11.415292   -0.696838    2.989615
     92          1           0       10.262246    0.015521    4.624044
     93          1           0        9.177249    0.912528    3.419849
     94          1           0       10.508425    1.684788    4.280946
     95          1           0        9.329546   -4.286746    1.414251
     96          1           0        7.946425   -5.421059    0.850466
     97          1           0        8.220191   -5.006760    2.489311
     98          1           0        2.998880   -3.587512    1.176302
     99          1           0        0.902456   -6.372309   -1.183453
    100          1           0        1.786549   -5.484816   -2.417944
    101          1           0        0.263645   -4.829820   -1.561680
    102          1           0       -3.985525   -2.863754    0.813422
    103          1           0       -3.193467   -3.670909   -0.587761
    104          1           0       -4.446733   -1.250346   -1.619315
    105          1           0       -6.687864   -4.757748   -1.169957
    106          1           0       -7.436867   -3.640067   -0.016295
    107          1           0       -5.770146   -4.232960    0.210542
    108          1           0       -7.000797   -2.791395   -3.156920
    109          1           0       -6.468247   -1.215345   -2.580097
    110          1           0       -8.498292   -1.666930   -0.667561
    111          1           0       -8.995989   -2.596844   -2.084943
    112          1           0       -8.104888   -0.270217   -3.254240
    113          1           0       -8.464756    0.350295   -1.661626
    114          1           0      -10.763342   -1.264523   -2.422744
    115          1           0      -10.630090    0.325147   -4.804351
    116          1           0      -11.183690   -1.342304   -4.569397
    117          1           0       -9.478361   -1.029136   -4.774759
    118          1           0      -11.736057    1.220287   -3.108053
    119          1           0      -10.307558    1.671523   -2.195216
    120          1           0      -11.472885   -0.393007   -0.515458
    121          1           0      -12.860180    0.545894   -1.134531
    122          1           0      -10.842047    2.340145   -0.346135
    123          1           0      -10.951852    1.021685    0.927614
    124          1           0      -13.134833    2.765721   -0.162729
    125          1           0      -11.968593    3.528894    2.465842
    126          1           0      -13.012514    4.398577    1.510016
    127          1           0      -11.367164    4.148370    0.932559
    128          1           0      -13.364202    1.782559    2.589824
    129          1           0      -13.196372    0.463851    1.481475
    130          1           0      -15.397135    0.955049    0.689128
    131          1           0      -14.972197    2.617265    0.520120
    132          1           0      -15.975017    3.305122    2.432457
    133          1           0      -15.247918    2.177066    3.378088
    134          1           0      -17.233988    0.652023    1.694677
    135          1           0      -17.974134    0.350415    4.330917
    136          1           0      -16.238847    0.604433    4.417976
    137          1           0      -17.060050   -0.679439    3.422205
    138          1           0      -19.127272    1.462641    2.414966
    139          1           0      -18.396991    2.938131    1.803203
    140          1           0      -18.306519    2.738188    3.528191
 ---------------------------------------------------------------------

 SCF Done:  E(RZINDO/S) =  -474.287095089     A.U. after   20 cycles

 Excitation energies and oscillator strengths:

 Excited State   1:      Singlet-A      1.2597 eV  984.27 nm  f=0.6134  <S**2>=0.000
     175 ->178         0.18048
     176 ->177         0.66523
 This state for optimization and/or second-order correction.
 Total Energy, E(CIS/TDA) =  -474.240803495
 Copying the excited state density for this state as the 1-particle RhoCI density.

 Excited State   2:      Singlet-A      1.9371 eV  640.06 nm  f=0.0464  <S**2>=0.000
     175 ->177         0.55132
     176 ->178        -0.41048

 Excited State   3:      Singlet-A      2.9400 eV  421.71 nm  f=0.0017  <S**2>=0.000
     167 ->179         0.13330
     168 ->177         0.34486
     168 ->178        -0.17601
     168 ->179        -0.40090
     168 ->181         0.14832
     168 ->182         0.15179
     168 ->186        -0.17326
     168 ->187        -0.10514
     171 ->177         0.10006

 Excited State   4:      Singlet-A      3.0343 eV  408.61 nm  f=0.7336  <S**2>=0.000
     169 ->181         0.11868
     175 ->177         0.31006
     176 ->178         0.48095
     176 ->179         0.31050

 Excited State   5:      Singlet-A      3.0651 eV  404.50 nm  f=0.0851  <S**2>=0.000
     169 ->177         0.21555
     169 ->179         0.24724
     169 ->181         0.35049
     169 ->182         0.14590
     169 ->186         0.19160
     169 ->187        -0.13975
     170 ->177         0.11180
     170 ->181         0.16053
     174 ->177        -0.12039
     175 ->177        -0.10786
     176 ->178        -0.15904

 The electronic state is 1-A.
 Alpha  occ. eigenvalues --   -1.85745  -1.81547  -1.78530  -1.73408  -1.72709
 Alpha  occ. eigenvalues --   -1.69952  -1.66349  -1.61232  -1.59400  -1.56534
 Alpha  occ. eigenvalues --   -1.56400  -1.51580  -1.49472  -1.47853  -1.46351
 Alpha  occ. eigenvalues --   -1.44443  -1.42758  -1.40300  -1.38728  -1.38383
 Alpha  occ. eigenvalues --   -1.35262  -1.34309  -1.32987  -1.30604  -1.29293
 Alpha  occ. eigenvalues --   -1.28008  -1.25384  -1.22069  -1.20701  -1.19141
 Alpha  occ. eigenvalues --   -1.18227  -1.15726  -1.15205  -1.14198  -1.13784
 Alpha  occ. eigenvalues --   -1.13176  -1.09699  -1.09525  -1.05068  -1.03510
 Alpha  occ. eigenvalues --   -1.02529  -1.01342  -0.98445  -0.97808  -0.96827
 Alpha  occ. eigenvalues --   -0.96529  -0.95047  -0.93757  -0.92458  -0.91705
 Alpha  occ. eigenvalues --   -0.90628  -0.90127  -0.88804  -0.88076  -0.87350
 Alpha  occ. eigenvalues --   -0.85161  -0.84437  -0.83955  -0.81420  -0.79794
 Alpha  occ. eigenvalues --   -0.79053  -0.78552  -0.77705  -0.76700  -0.76490
 Alpha  occ. eigenvalues --   -0.75765  -0.75716  -0.75463  -0.74660  -0.73921
 Alpha  occ. eigenvalues --   -0.73640  -0.72979  -0.72017  -0.70791  -0.70433
 Alpha  occ. eigenvalues --   -0.70008  -0.69075  -0.68665  -0.67988  -0.67878
 Alpha  occ. eigenvalues --   -0.67254  -0.67082  -0.66701  -0.66116  -0.65726
 Alpha  occ. eigenvalues --   -0.65668  -0.64998  -0.64088  -0.63795  -0.63406
 Alpha  occ. eigenvalues --   -0.62974  -0.62670  -0.62057  -0.61873  -0.61730
 Alpha  occ. eigenvalues --   -0.61204  -0.60814  -0.60688  -0.60494  -0.60093
 Alpha  occ. eigenvalues --   -0.59713  -0.59140  -0.59073  -0.58738  -0.58606
 Alpha  occ. eigenvalues --   -0.57933  -0.57453  -0.56918  -0.56691  -0.56474
 Alpha  occ. eigenvalues --   -0.55751  -0.55551  -0.55439  -0.55362  -0.54877
 Alpha  occ. eigenvalues --   -0.54863  -0.54643  -0.54068  -0.53863  -0.53321
 Alpha  occ. eigenvalues --   -0.52898  -0.52770  -0.52621  -0.52085  -0.51918
 Alpha  occ. eigenvalues --   -0.51392  -0.51048  -0.50573  -0.50380  -0.50216
 Alpha  occ. eigenvalues --   -0.49879  -0.49326  -0.49106  -0.48952  -0.48805
 Alpha  occ. eigenvalues --   -0.48220  -0.48204  -0.47976  -0.47853  -0.47748
 Alpha  occ. eigenvalues --   -0.47423  -0.47063  -0.47035  -0.46634  -0.46450
 Alpha  occ. eigenvalues --   -0.46108  -0.46058  -0.45878  -0.45465  -0.45410
 Alpha  occ. eigenvalues --   -0.44935  -0.44779  -0.44490  -0.44378  -0.44225
 Alpha  occ. eigenvalues --   -0.43595  -0.43217  -0.43100  -0.42492  -0.42293
 Alpha  occ. eigenvalues --   -0.41585  -0.41368  -0.40100  -0.38997  -0.38940
 Alpha  occ. eigenvalues --   -0.38309  -0.36638  -0.35538  -0.34603  -0.34416
 Alpha  occ. eigenvalues --   -0.33568  -0.32609  -0.32345  -0.31526  -0.26706
 Alpha  occ. eigenvalues --   -0.21720
 Alpha virt. eigenvalues --   -0.08523  -0.01890  -0.00516   0.01220   0.01491
 Alpha virt. eigenvalues --    0.02270   0.02591   0.03121   0.04372   0.05057
 Alpha virt. eigenvalues --    0.06435   0.06861   0.07736   0.07848   0.08225

 Mulliken charges:
               1
     1  Mg   0.425113
     2  C   -0.040564
     3  C   -0.077145
     4  C   -0.053027
     5  C   -0.070017
     6  N   -0.319105
     7  C    0.140796
     8  C   -0.001624
     9  C    0.003980
    10  C    0.102719
    11  C   -0.043465
    12  C   -0.031704
    13  C    0.000332
    14  C    0.458150
    15  O   -0.528478
    16  O   -0.264967
    17  N   -0.305916
    18  C    0.086463
    19  C   -0.010514
    20  C   -0.063146
    21  C    0.126042
    22  C   -0.039179
    23  C    0.315324
    24  O   -0.525559
    25  C   -0.035753
    26  N   -0.259148
    27  C    0.116191
    28  C    0.005817
    29  C    0.004066
    30  C    0.154121
    31  C   -0.052071
    32  C   -0.029123
    33  C   -0.060757
    34  N   -0.328575
    35  C    0.117943
    36  C    0.051560
    37  C   -0.044893
    38  C    0.134668
    39  C   -0.044063
    40  C    0.344506
    41  O   -0.511590
    42  C    0.058499
    43  C    0.503165
    44  O   -0.537193
    45  O   -0.263885
    46  C    0.066658
    47  C    0.101637
    48  C   -0.102582
    49  C   -0.009278
    50  C   -0.038466
    51  C   -0.024686
    52  C   -0.037321
    53  C   -0.036540
    54  C   -0.018346
    55  C   -0.060600
    56  C   -0.033942
    57  C   -0.044953
    58  C   -0.042955
    59  C   -0.000634
    60  C   -0.052957
    61  C   -0.039511
    62  C   -0.044565
    63  C   -0.028822
    64  C   -0.007050
    65  C   -0.059262
    66  C   -0.058120
    67  H    0.016222
    68  H    0.034879
    69  H    0.035018
    70  H    0.035952
    71  H    0.031674
    72  H    0.029642
    73  H    0.018619
    74  H    0.023149
    75  H    0.030394
    76  H    0.035990
    77  H    0.041637
    78  H    0.051289
    79  H    0.036475
    80  H    0.025253
    81  H    0.034323
    82  H    0.043684
    83  H    0.033887
    84  H    0.032241
    85  H    0.029773
    86  H    0.021385
    87  H    0.027026
    88  H    0.027381
    89  H    0.023410
    90  H    0.022025
    91  H    0.017922
    92  H    0.019740
    93  H    0.031599
    94  H    0.014074
    95  H    0.024153
    96  H    0.045039
    97  H    0.035129
    98  H    0.053106
    99  H    0.033570
   100  H    0.061893
   101  H    0.035190
   102  H    0.056563
   103  H    0.058514
   104  H    0.040877
   105  H    0.028752
   106  H    0.034490
   107  H    0.014964
   108  H    0.032392
   109  H    0.015456
   110  H    0.030118
   111  H    0.018467
   112  H    0.020239
   113  H    0.020081
   114  H    0.018310
   115  H    0.017641
   116  H    0.016934
   117  H    0.014446
   118  H    0.024297
   119  H    0.022805
   120  H    0.024674
   121  H    0.023200
   122  H    0.012439
   123  H    0.020596
   124  H    0.013979
   125  H    0.012267
   126  H    0.015672
   127  H    0.011911
   128  H    0.013925
   129  H    0.019332
   130  H    0.020194
   131  H    0.014702
   132  H    0.020747
   133  H    0.017209
   134  H    0.022419
   135  H    0.012546
   136  H    0.022519
   137  H    0.015149
   138  H    0.017779
   139  H    0.011395
   140  H    0.023560
 Sum of Mulliken charges =  -0.00000

 Dipole moment (field-independent basis, Debye):
    X=             -4.2169    Y=              3.5237    Z=              0.7678  Tot=              5.5487
 N-N= 4.154396200814D+03 E-N= 0.000000000000D+00  KE=-8.983144218985D+03
 Leave Link  601 at Wed Apr 27 23:58:02 2022, MaxMem=  6710886400 cpu:               0.8 elap:               0.0
 (Enter /sw/apps/gaussian-16.0/g16/l9999.exe)
 1\1\GINC-BP1-COMPUTE183\SP\RZINDO CIS\STO-3G\C55H74Mg1N4O6\OF15641\27-
 Apr-2022\0\\#p ZINDO=(nstates=5)\\step_1351_chromophore_16 ZINDO\\0,1\
 Mg,0,40.463,41.583,26.886\C,0,39.327,43.935,29.328\C,0,41.222,39.433,2
 9.531\C,0,41.725,39.592,24.715\C,0,40.071,44.106,24.438\N,0,40.298,41.
 681,29.191\C,0,39.759,42.776,29.93\C,0,39.758,42.355,31.402\C,0,40.218
 ,40.873,31.484\C,0,40.707,40.635,30.006\C,0,41.172,40.547,32.62\C,0,38
 .361,42.697,32.124\C,0,37.956,41.848,33.361\C,0,37.286,42.589,34.546\O

 Normal termination of Gaussian 16 at Wed Apr 27 23:58:02 2022.
