 Gaussian 16, Revision A.03,
 Gaussian 16:  ES64L-G16RevA.03 25-Dec-2016

 ------------------------------
 #p blyp/Def2SVP td=(nstates=5)
 ------------------------------

 --------------------------------------------------
 step_651_chromophore_23 TDDFT with blyp functional
 --------------------------------------------------
 Symbolic Z-matrix:
 Charge =  0 Multiplicity = 1

                         Standard orientation:
 ---------------------------------------------------------------------
 Center     Atomic      Atomic             Coordinates (Angstroms)
 Number     Number       Type             X           Y           Z
 ---------------------------------------------------------------------
      1         12           0       -4.953829   -0.142309   -0.335030
      2          6           0       -2.886928    2.654323   -0.100964
      3          6           0       -2.890649   -1.347921   -2.933524
      4          6           0       -6.403304   -3.106032   -0.083828
      5          6           0       -6.510418    1.014898    2.470316
      6          7           0       -2.981380    0.493609   -1.318073
      7          6           0       -2.319807    1.677504   -1.006231
      8          6           0       -1.007038    1.796143   -1.809151
      9          6           0       -1.106271    0.538779   -2.760558
     10          6           0       -2.427641   -0.128139   -2.347838
     11          6           0       -1.163265    0.908980   -4.257883
     12          6           0        0.391739    1.903840   -1.009849
     13          6           0        1.130362    3.244199   -1.042731
     14          6           0        2.476107    3.426152   -1.689089
     15          8           0        2.668293    3.812511   -2.798825
     16          8           0        3.472357    3.168915   -0.732321
     17          7           0       -4.797964   -1.914751   -1.470674
     18          6           0       -3.933004   -2.174701   -2.490740
     19          6           0       -4.108078   -3.579694   -2.938248
     20          6           0       -5.099430   -4.085302   -2.079840
     21          6           0       -5.510774   -3.020297   -1.186429
     22          6           0       -3.174114   -4.268314   -3.984941
     23          6           0       -5.469456   -5.617077   -2.040312
     24          8           0       -5.114779   -6.422605   -2.921496
     25          6           0       -6.323142   -6.230540   -1.113937
     26          7           0       -6.335212   -0.894596    0.982376
     27          6           0       -6.854522   -2.213173    0.853553
     28          6           0       -7.899855   -2.482518    1.935829
     29          6           0       -7.821433   -1.221191    2.860700
     30          6           0       -6.757069   -0.303674    2.104888
     31          6           0       -9.272702   -2.640025    1.261413
     32          6           0       -7.333529   -1.797669    4.209192
     33          6           0       -8.442631   -2.188472    5.232188
     34          7           0       -4.864365    1.584560    0.888971
     35          6           0       -5.554863    1.945963    1.944803
     36          6           0       -5.184793    3.189134    2.521968
     37          6           0       -4.086000    3.527313    1.710950
     38          6           0       -3.947383    2.513160    0.786317
     39          6           0       -5.873959    3.874204    3.606692
     40          6           0       -3.082790    4.475163    1.378559
     41          8           0       -2.906869    5.602648    1.838498
     42          6           0       -2.296559    3.979116    0.251471
     43          6           0       -2.565289    4.952562   -0.810115
     44          8           0       -3.614445    5.006254   -1.442810
     45          8           0       -1.509564    5.837189   -0.993970
     46          6           0       -1.692730    6.724311   -2.195207
     47          6           0        4.813709    3.607298   -1.075942
     48          6           0        5.810069    2.776315   -0.306713
     49          6           0        6.665111    1.787182   -0.711191
     50          6           0        6.765091    0.981575   -1.967432
     51          6           0        7.615773    1.252616    0.358555
     52          6           0        9.079818    1.659961    0.236540
     53          6           0       10.025783    1.086193    1.318209
     54          6           0       10.847117   -0.128110    0.730712
     55          6           0       12.253277    0.268581    0.342474
     56          6           0       10.923972   -1.291221    1.825906
     57          6           0        9.746579   -2.258639    1.492243
     58          6           0        9.255634   -3.016478    2.759422
     59          6           0        7.892145   -2.445813    3.196828
     60          6           0        7.849237   -2.082686    4.699304
     61          6           0        6.714201   -3.400628    2.698160
     62          6           0        6.140864   -2.984974    1.322264
     63          6           0        6.280491   -3.978658    0.169114
     64          6           0        6.817320   -3.308061   -1.168218
     65          6           0        5.888362   -3.640990   -2.398418
     66          6           0        8.164185   -3.692288   -1.533282
     67          1           0       -2.268161   -1.684947   -3.765923
     68          1           0       -6.785793   -4.090675    0.192856
     69          1           0       -6.988726    1.382748    3.380664
     70          1           0       -1.152203    2.724502   -2.360272
     71          1           0       -0.313887   -0.187901   -2.580061
     72          1           0       -0.187600    0.786762   -4.729461
     73          1           0       -1.599035    1.896760   -4.404139
     74          1           0       -1.728623    0.162287   -4.816717
     75          1           0        1.063142    1.188676   -1.484894
     76          1           0        0.267010    1.699897    0.054245
     77          1           0        1.264763    3.463132    0.017536
     78          1           0        0.455210    3.989139   -1.462545
     79          1           0       -2.487215   -4.911190   -3.435873
     80          1           0       -2.534345   -3.512864   -4.441216
     81          1           0       -3.766969   -4.741751   -4.768453
     82          1           0       -7.296089   -5.750676   -1.221855
     83          1           0       -6.080695   -6.073157   -0.063186
     84          1           0       -6.325801   -7.315968   -1.212642
     85          1           0       -7.670913   -3.409495    2.461170
     86          1           0       -8.838667   -0.832491    2.848745
     87          1           0       -9.772451   -3.424299    1.830202
     88          1           0       -9.165313   -2.974336    0.230040
     89          1           0       -9.847790   -1.713404    1.266128
     90          1           0       -6.867614   -0.951054    4.713102
     91          1           0       -6.578159   -2.579680    4.129972
     92          1           0       -8.219493   -1.719985    6.190781
     93          1           0       -8.394491   -3.269128    5.363912
     94          1           0       -9.473550   -1.971075    4.952488
     95          1           0       -5.944406    3.281040    4.519147
     96          1           0       -6.877616    4.195490    3.329224
     97          1           0       -5.387949    4.845087    3.703349
     98          1           0       -1.215016    4.021534    0.377524
     99          1           0       -2.555124    7.389680   -2.221080
    100          1           0       -1.634504    6.013061   -3.018723
    101          1           0       -0.717122    7.209597   -2.233895
    102          1           0        4.940082    4.640595   -0.755888
    103          1           0        5.093807    3.527255   -2.126119
    104          1           0        5.981907    3.040975    0.736898
    105          1           0        6.239764    0.037557   -1.825708
    106          1           0        7.833013    0.903587   -2.169295
    107          1           0        6.200029    1.517174   -2.730125
    108          1           0        7.651975    0.165927    0.432114
    109          1           0        7.234439    1.476569    1.355149
    110          1           0        9.129543    2.748863    0.260374
    111          1           0        9.472436    1.458934   -0.760244
    112          1           0        9.492621    0.829300    2.233882
    113          1           0       10.757991    1.838844    1.610956
    114          1           0       10.395769   -0.497165   -0.189877
    115          1           0       12.304878    1.285186   -0.046921
    116          1           0       12.616506   -0.344109   -0.483048
    117          1           0       13.000678    0.118281    1.121737
    118          1           0       10.852171   -0.787863    2.789942
    119          1           0       11.791140   -1.950824    1.794291
    120          1           0       10.127644   -3.001332    0.792388
    121          1           0        9.021041   -1.667305    0.934204
    122          1           0        9.985728   -2.845985    3.550452
    123          1           0        9.221160   -4.096459    2.612507
    124          1           0        7.768390   -1.475731    2.715075
    125          1           0        8.070984   -1.018463    4.778350
    126          1           0        8.667973   -2.630302    5.167902
    127          1           0        6.914182   -2.278547    5.223510
    128          1           0        5.889560   -3.153701    3.367243
    129          1           0        6.923470   -4.468928    2.759358
    130          1           0        6.654259   -2.088248    0.975496
    131          1           0        5.131267   -2.582644    1.408781
    132          1           0        5.297592   -4.398383   -0.046399
    133          1           0        6.920296   -4.762787    0.571380
    134          1           0        6.742625   -2.227926   -1.039557
    135          1           0        6.222786   -4.339604   -3.165790
    136          1           0        5.542693   -2.768122   -2.954398
    137          1           0        4.939260   -4.045223   -2.046590
    138          1           0        8.706225   -4.058367   -0.661878
    139          1           0        8.710932   -2.785189   -1.789458
    140          1           0        8.231703   -4.457600   -2.307039
 ---------------------------------------------------------------------

 SCF Done:  E(RB-LYP) =  -3007.34475390     A.U. after   22 cycles

 Excitation energies and oscillator strengths:

 Excited State   1:      Singlet-A      1.7883 eV  693.29 nm  f=0.0040  <S**2>=0.000
     244 -> 247        0.70320
 This state for optimization and/or second-order correction.
 Total Energy, E(TD-HF/TD-DFT) =  -3007.27903333
 Copying the excited state density for this state as the 1-particle RhoCI density.

 Excited State   2:      Singlet-A      1.8491 eV  670.52 nm  f=0.2292  <S**2>=0.000
     243 -> 247        0.26178
     245 -> 247       -0.10918
     245 -> 248       -0.18533
     246 -> 247        0.62649
     246 <- 247       -0.13177

 Excited State   3:      Singlet-A      1.9090 eV  649.47 nm  f=0.0888  <S**2>=0.000
     243 -> 247        0.55936
     245 -> 247       -0.31652
     246 -> 247       -0.26991

 Excited State   4:      Singlet-A      2.0775 eV  596.81 nm  f=0.0698  <S**2>=0.000
     243 -> 247        0.33470
     245 -> 247        0.56116
     246 -> 248        0.24848

 Excited State   5:      Singlet-A      2.5328 eV  489.52 nm  f=0.0002  <S**2>=0.000
     241 -> 247       -0.10268
     242 -> 247        0.69931

 The electronic state is 1-A.
 Alpha  occ. eigenvalues --  -46.27830 -18.82127 -18.81496 -18.77509 -18.76604
 Alpha  occ. eigenvalues --  -18.74978 -18.74788 -14.03738 -14.03157 -14.01527
 Alpha  occ. eigenvalues --  -14.00533 -10.04069 -10.03678  -9.99563  -9.98757
 Alpha  occ. eigenvalues --   -9.97817  -9.97682  -9.97323  -9.96720  -9.96673
 Alpha  occ. eigenvalues --   -9.96625  -9.96441  -9.95856  -9.95084  -9.94713
 Alpha  occ. eigenvalues --   -9.94532  -9.94292  -9.94165  -9.93975  -9.93879
 Alpha  occ. eigenvalues --   -9.93872  -9.93789  -9.93559  -9.93379  -9.93371
 Alpha  occ. eigenvalues --   -9.93187  -9.93045  -9.92990  -9.92910  -9.92788
 Alpha  occ. eigenvalues --   -9.92689  -9.92571  -9.92555  -9.92486  -9.92265
 Alpha  occ. eigenvalues --   -9.92248  -9.92226  -9.92187  -9.92080  -9.91967
 Alpha  occ. eigenvalues --   -9.91903  -9.91877  -9.91868  -9.91755  -9.91672
 Alpha  occ. eigenvalues --   -9.91332  -9.91181  -9.91050  -9.90939  -9.90864
 Alpha  occ. eigenvalues --   -9.90726  -9.90720  -9.90692  -9.90663  -9.90641
 Alpha  occ. eigenvalues --   -9.90271  -2.92407  -1.72841  -1.72272  -1.72133
 Alpha  occ. eigenvalues --   -0.97854  -0.96991  -0.91003  -0.90990  -0.90591
 Alpha  occ. eigenvalues --   -0.89244  -0.88991  -0.86640  -0.85956  -0.85061
 Alpha  occ. eigenvalues --   -0.77494  -0.73893  -0.72952  -0.72842  -0.72725
 Alpha  occ. eigenvalues --   -0.72178  -0.72098  -0.71310  -0.70943  -0.70664
 Alpha  occ. eigenvalues --   -0.69666  -0.69288  -0.68270  -0.68034  -0.67678
 Alpha  occ. eigenvalues --   -0.66772  -0.66675  -0.65848  -0.65356  -0.65019
 Alpha  occ. eigenvalues --   -0.64482  -0.63030  -0.62075  -0.61804  -0.61124
 Alpha  occ. eigenvalues --   -0.60764  -0.60269  -0.60246  -0.59379  -0.58953
 Alpha  occ. eigenvalues --   -0.58571  -0.58059  -0.56935  -0.55968  -0.54888
 Alpha  occ. eigenvalues --   -0.54254  -0.53233  -0.52669  -0.52043  -0.51905
 Alpha  occ. eigenvalues --   -0.51416  -0.51088  -0.50971  -0.50770  -0.50221
 Alpha  occ. eigenvalues --   -0.49893  -0.49603  -0.48858  -0.48246  -0.46844
 Alpha  occ. eigenvalues --   -0.46472  -0.46264  -0.46157  -0.45651  -0.45191
 Alpha  occ. eigenvalues --   -0.44668  -0.43719  -0.43702  -0.43354  -0.42862
 Alpha  occ. eigenvalues --   -0.42798  -0.41887  -0.41526  -0.41329  -0.41197
 Alpha  occ. eigenvalues --   -0.40952  -0.40635  -0.40507  -0.40260  -0.40075
 Alpha  occ. eigenvalues --   -0.39976  -0.39875  -0.39779  -0.39712  -0.39473
 Alpha  occ. eigenvalues --   -0.39409  -0.39168  -0.38895  -0.38799  -0.38339
 Alpha  occ. eigenvalues --   -0.38278  -0.38043  -0.37785  -0.37672  -0.37574
 Alpha  occ. eigenvalues --   -0.37193  -0.37052  -0.36775  -0.36514  -0.36442
 Alpha  occ. eigenvalues --   -0.36232  -0.36149  -0.36012  -0.35892  -0.35646
 Alpha  occ. eigenvalues --   -0.35507  -0.35299  -0.35172  -0.34931  -0.34706
 Alpha  occ. eigenvalues --   -0.34546  -0.34363  -0.34308  -0.34034  -0.33949
 Alpha  occ. eigenvalues --   -0.33839  -0.33726  -0.33519  -0.33421  -0.33253
 Alpha  occ. eigenvalues --   -0.33078  -0.32915  -0.32881  -0.32796  -0.32609
 Alpha  occ. eigenvalues --   -0.32479  -0.32291  -0.32206  -0.31944  -0.31826
 Alpha  occ. eigenvalues --   -0.31517  -0.31407  -0.31209  -0.30960  -0.30769
 Alpha  occ. eigenvalues --   -0.30657  -0.30328  -0.30236  -0.29920  -0.29771
 Alpha  occ. eigenvalues --   -0.29569  -0.29513  -0.29313  -0.29093  -0.29008
 Alpha  occ. eigenvalues --   -0.28916  -0.28795  -0.28687  -0.28123  -0.27978
 Alpha  occ. eigenvalues --   -0.27448  -0.27057  -0.26988  -0.26862  -0.26815
 Alpha  occ. eigenvalues --   -0.26567  -0.26405  -0.25739  -0.25570  -0.25212
 Alpha  occ. eigenvalues --   -0.25171  -0.24928  -0.24790  -0.24130  -0.23771
 Alpha  occ. eigenvalues --   -0.23093  -0.22734  -0.22364  -0.21756  -0.21177
 Alpha  occ. eigenvalues --   -0.20918  -0.20851  -0.18478  -0.18068  -0.17357
 Alpha  occ. eigenvalues --   -0.15980
 Alpha virt. eigenvalues --   -0.11547  -0.06959  -0.06247  -0.04632  -0.03234
 Alpha virt. eigenvalues --   -0.03027  -0.02491  -0.02233  -0.01388  -0.00193
 Alpha virt. eigenvalues --    0.00828   0.00966   0.01037   0.02483   0.02591

 Mulliken charges:
               1
     1  Mg   0.712755
     2  C    0.025801
     3  C   -0.065788
     4  C   -0.047783
     5  C   -0.082719
     6  N   -0.172544
     7  C   -0.115064
     8  C    0.068841
     9  C   -0.015763
    10  C   -0.017183
    11  C    0.125605
    12  C    0.131607
    13  C    0.086768
    14  C    0.069265
    15  O   -0.147639
    16  O   -0.293193
    17  N   -0.252923
    18  C    0.138688
    19  C   -0.166836
    20  C    0.024565
    21  C    0.148439
    22  C    0.206515
    23  C   -0.061705
    24  O   -0.195920
    25  C    0.168401
    26  N   -0.284204
    27  C   -0.013497
    28  C   -0.013641
    29  C    0.048191
    30  C    0.077716
    31  C    0.133001
    32  C    0.075748
    33  C    0.063718
    34  N   -0.156004
    35  C    0.060338
    36  C   -0.197707
    37  C    0.168409
    38  C    0.035273
    39  C    0.183257
    40  C   -0.127432
    41  O   -0.144888
    42  C    0.146961
    43  C    0.068154
    44  O   -0.192095
    45  O   -0.284432
    46  C    0.234985
    47  C    0.348638
    48  C   -0.103376
    49  C   -0.152912
    50  C    0.180724
    51  C    0.090190
    52  C    0.067952
    53  C    0.131424
    54  C   -0.098865
    55  C    0.113736
    56  C    0.094590
    57  C    0.003031
    58  C    0.146524
    59  C   -0.102189
    60  C    0.107752
    61  C    0.133004
    62  C    0.041672
    63  C    0.127447
    64  C   -0.101413
    65  C    0.073513
    66  C    0.142086
    67  H   -0.058581
    68  H   -0.091821
    69  H   -0.073690
    70  H   -0.016359
    71  H   -0.012869
    72  H   -0.011176
    73  H    0.003057
    74  H   -0.018157
    75  H   -0.013526
    76  H   -0.006707
    77  H   -0.000985
    78  H    0.004453
    79  H    0.012618
    80  H   -0.038057
    81  H    0.020776
    82  H    0.012936
    83  H   -0.003990
    84  H   -0.003061
    85  H   -0.019027
    86  H   -0.022836
    87  H   -0.009326
    88  H   -0.009532
    89  H   -0.006853
    90  H   -0.033737
    91  H   -0.010471
    92  H   -0.001861
    93  H   -0.013990
    94  H   -0.007784
    95  H    0.008086
    96  H   -0.006428
    97  H    0.000123
    98  H   -0.024940
    99  H    0.044738
   100  H    0.003674
   101  H    0.009828
   102  H   -0.014308
   103  H   -0.008874
   104  H   -0.038992
   105  H    0.024892
   106  H    0.001041
   107  H   -0.021752
   108  H   -0.034690
   109  H   -0.035827
   110  H   -0.046895
   111  H   -0.031389
   112  H   -0.029208
   113  H   -0.036296
   114  H   -0.025932
   115  H   -0.027120
   116  H   -0.028208
   117  H   -0.015096
   118  H   -0.024451
   119  H   -0.029191
   120  H   -0.023343
   121  H   -0.006917
   122  H   -0.039679
   123  H   -0.039332
   124  H   -0.033338
   125  H   -0.018468
   126  H   -0.020477
   127  H   -0.017167
   128  H   -0.049547
   129  H   -0.022912
   130  H   -0.044887
   131  H   -0.038248
   132  H   -0.036904
   133  H   -0.035766
   134  H   -0.023080
   135  H   -0.012280
   136  H   -0.024225
   137  H   -0.034214
   138  H   -0.025432
   139  H   -0.021478
   140  H   -0.012106
 Sum of Mulliken charges =  -0.00000

 Dipole moment (field-independent basis, Debye):
    X=              0.5193    Y=             -2.0812    Z=              1.8498  Tot=              2.8325
 Quadrupole moment (field-independent basis, Debye-Ang):
   XX=           -366.7569   YY=           -444.2848   ZZ=           -407.1225
   XY=              8.8594   XZ=            -22.2162   YZ=            -24.3451

 Normal termination of Gaussian 16 at Thu May  5 06:01:47 2022.
