 Gaussian 16, Revision A.03,
 Gaussian 16:  ES64L-G16RevA.03 25-Dec-2016

 -----------------------------------
 #p cam-b3lyp/Def2SVP td=(nstates=5)
 -----------------------------------

 -------------------------------------------------------
 step_651_chromophore_23 TDDFT with cam-b3lyp functional
 -------------------------------------------------------
 Symbolic Z-matrix:
 Charge =  0 Multiplicity = 1

                         Standard orientation:
 ---------------------------------------------------------------------
 Center     Atomic      Atomic             Coordinates (Angstroms)
 Number     Number       Type             X           Y           Z
 ---------------------------------------------------------------------
      1         12           0       -4.953829   -0.142309   -0.335030
      2          6           0       -2.886928    2.654323   -0.100964
      3          6           0       -2.890649   -1.347921   -2.933524
      4          6           0       -6.403304   -3.106032   -0.083828
      5          6           0       -6.510418    1.014898    2.470316
      6          7           0       -2.981380    0.493609   -1.318073
      7          6           0       -2.319807    1.677504   -1.006231
      8          6           0       -1.007038    1.796143   -1.809151
      9          6           0       -1.106271    0.538779   -2.760558
     10          6           0       -2.427641   -0.128139   -2.347838
     11          6           0       -1.163265    0.908980   -4.257883
     12          6           0        0.391739    1.903840   -1.009849
     13          6           0        1.130362    3.244199   -1.042731
     14          6           0        2.476107    3.426152   -1.689089
     15          8           0        2.668293    3.812511   -2.798825
     16          8           0        3.472357    3.168915   -0.732321
     17          7           0       -4.797964   -1.914751   -1.470674
     18          6           0       -3.933004   -2.174701   -2.490740
     19          6           0       -4.108078   -3.579694   -2.938248
     20          6           0       -5.099430   -4.085302   -2.079840
     21          6           0       -5.510774   -3.020297   -1.186429
     22          6           0       -3.174114   -4.268314   -3.984941
     23          6           0       -5.469456   -5.617077   -2.040312
     24          8           0       -5.114779   -6.422605   -2.921496
     25          6           0       -6.323142   -6.230540   -1.113937
     26          7           0       -6.335212   -0.894596    0.982376
     27          6           0       -6.854522   -2.213173    0.853553
     28          6           0       -7.899855   -2.482518    1.935829
     29          6           0       -7.821433   -1.221191    2.860700
     30          6           0       -6.757069   -0.303674    2.104888
     31          6           0       -9.272702   -2.640025    1.261413
     32          6           0       -7.333529   -1.797669    4.209192
     33          6           0       -8.442631   -2.188472    5.232188
     34          7           0       -4.864365    1.584560    0.888971
     35          6           0       -5.554863    1.945963    1.944803
     36          6           0       -5.184793    3.189134    2.521968
     37          6           0       -4.086000    3.527313    1.710950
     38          6           0       -3.947383    2.513160    0.786317
     39          6           0       -5.873959    3.874204    3.606692
     40          6           0       -3.082790    4.475163    1.378559
     41          8           0       -2.906869    5.602648    1.838498
     42          6           0       -2.296559    3.979116    0.251471
     43          6           0       -2.565289    4.952562   -0.810115
     44          8           0       -3.614445    5.006254   -1.442810
     45          8           0       -1.509564    5.837189   -0.993970
     46          6           0       -1.692730    6.724311   -2.195207
     47          6           0        4.813709    3.607298   -1.075942
     48          6           0        5.810069    2.776315   -0.306713
     49          6           0        6.665111    1.787182   -0.711191
     50          6           0        6.765091    0.981575   -1.967432
     51          6           0        7.615773    1.252616    0.358555
     52          6           0        9.079818    1.659961    0.236540
     53          6           0       10.025783    1.086193    1.318209
     54          6           0       10.847117   -0.128110    0.730712
     55          6           0       12.253277    0.268581    0.342474
     56          6           0       10.923972   -1.291221    1.825906
     57          6           0        9.746579   -2.258639    1.492243
     58          6           0        9.255634   -3.016478    2.759422
     59          6           0        7.892145   -2.445813    3.196828
     60          6           0        7.849237   -2.082686    4.699304
     61          6           0        6.714201   -3.400628    2.698160
     62          6           0        6.140864   -2.984974    1.322264
     63          6           0        6.280491   -3.978658    0.169114
     64          6           0        6.817320   -3.308061   -1.168218
     65          6           0        5.888362   -3.640990   -2.398418
     66          6           0        8.164185   -3.692288   -1.533282
     67          1           0       -2.268161   -1.684947   -3.765923
     68          1           0       -6.785793   -4.090675    0.192856
     69          1           0       -6.988726    1.382748    3.380664
     70          1           0       -1.152203    2.724502   -2.360272
     71          1           0       -0.313887   -0.187901   -2.580061
     72          1           0       -0.187600    0.786762   -4.729461
     73          1           0       -1.599035    1.896760   -4.404139
     74          1           0       -1.728623    0.162287   -4.816717
     75          1           0        1.063142    1.188676   -1.484894
     76          1           0        0.267010    1.699897    0.054245
     77          1           0        1.264763    3.463132    0.017536
     78          1           0        0.455210    3.989139   -1.462545
     79          1           0       -2.487215   -4.911190   -3.435873
     80          1           0       -2.534345   -3.512864   -4.441216
     81          1           0       -3.766969   -4.741751   -4.768453
     82          1           0       -7.296089   -5.750676   -1.221855
     83          1           0       -6.080695   -6.073157   -0.063186
     84          1           0       -6.325801   -7.315968   -1.212642
     85          1           0       -7.670913   -3.409495    2.461170
     86          1           0       -8.838667   -0.832491    2.848745
     87          1           0       -9.772451   -3.424299    1.830202
     88          1           0       -9.165313   -2.974336    0.230040
     89          1           0       -9.847790   -1.713404    1.266128
     90          1           0       -6.867614   -0.951054    4.713102
     91          1           0       -6.578159   -2.579680    4.129972
     92          1           0       -8.219493   -1.719985    6.190781
     93          1           0       -8.394491   -3.269128    5.363912
     94          1           0       -9.473550   -1.971075    4.952488
     95          1           0       -5.944406    3.281040    4.519147
     96          1           0       -6.877616    4.195490    3.329224
     97          1           0       -5.387949    4.845087    3.703349
     98          1           0       -1.215016    4.021534    0.377524
     99          1           0       -2.555124    7.389680   -2.221080
    100          1           0       -1.634504    6.013061   -3.018723
    101          1           0       -0.717122    7.209597   -2.233895
    102          1           0        4.940082    4.640595   -0.755888
    103          1           0        5.093807    3.527255   -2.126119
    104          1           0        5.981907    3.040975    0.736898
    105          1           0        6.239764    0.037557   -1.825708
    106          1           0        7.833013    0.903587   -2.169295
    107          1           0        6.200029    1.517174   -2.730125
    108          1           0        7.651975    0.165927    0.432114
    109          1           0        7.234439    1.476569    1.355149
    110          1           0        9.129543    2.748863    0.260374
    111          1           0        9.472436    1.458934   -0.760244
    112          1           0        9.492621    0.829300    2.233882
    113          1           0       10.757991    1.838844    1.610956
    114          1           0       10.395769   -0.497165   -0.189877
    115          1           0       12.304878    1.285186   -0.046921
    116          1           0       12.616506   -0.344109   -0.483048
    117          1           0       13.000678    0.118281    1.121737
    118          1           0       10.852171   -0.787863    2.789942
    119          1           0       11.791140   -1.950824    1.794291
    120          1           0       10.127644   -3.001332    0.792388
    121          1           0        9.021041   -1.667305    0.934204
    122          1           0        9.985728   -2.845985    3.550452
    123          1           0        9.221160   -4.096459    2.612507
    124          1           0        7.768390   -1.475731    2.715075
    125          1           0        8.070984   -1.018463    4.778350
    126          1           0        8.667973   -2.630302    5.167902
    127          1           0        6.914182   -2.278547    5.223510
    128          1           0        5.889560   -3.153701    3.367243
    129          1           0        6.923470   -4.468928    2.759358
    130          1           0        6.654259   -2.088248    0.975496
    131          1           0        5.131267   -2.582644    1.408781
    132          1           0        5.297592   -4.398383   -0.046399
    133          1           0        6.920296   -4.762787    0.571380
    134          1           0        6.742625   -2.227926   -1.039557
    135          1           0        6.222786   -4.339604   -3.165790
    136          1           0        5.542693   -2.768122   -2.954398
    137          1           0        4.939260   -4.045223   -2.046590
    138          1           0        8.706225   -4.058367   -0.661878
    139          1           0        8.710932   -2.785189   -1.789458
    140          1           0        8.231703   -4.457600   -2.307039
 ---------------------------------------------------------------------

 SCF Done:  E(RCAM-B3LYP) =  -3007.14876457     A.U. after   17 cycles

 Excitation energies and oscillator strengths:

 Excited State   1:      Singlet-A      1.7707 eV  700.19 nm  f=0.3836  <S**2>=0.000
     245 -> 248       -0.17882
     246 -> 247        0.68334
     245 <- 248       -0.10425
 This state for optimization and/or second-order correction.
 Total Energy, E(TD-HF/TD-DFT) =  -3007.08369157
 Copying the excited state density for this state as the 1-particle RhoCI density.

 Excited State   2:      Singlet-A      2.2759 eV  544.77 nm  f=0.1063  <S**2>=0.000
     245 -> 247        0.63442
     246 -> 248        0.29711

 Excited State   3:      Singlet-A      3.4883 eV  355.43 nm  f=0.1065  <S**2>=0.000
     240 -> 247        0.26302
     240 -> 249        0.16211
     241 -> 247        0.37612
     241 -> 249        0.20093
     241 -> 250        0.11358
     242 -> 247        0.22104
     242 -> 249        0.11300
     245 -> 247       -0.11895
     246 -> 248        0.27075

 Excited State   4:      Singlet-A      3.5681 eV  347.48 nm  f=0.3809  <S**2>=0.000
     240 -> 247       -0.13256
     244 -> 247        0.39825
     245 -> 247       -0.21714
     246 -> 248        0.47557

 Excited State   5:      Singlet-A      3.5875 eV  345.60 nm  f=0.0596  <S**2>=0.000
     240 -> 247       -0.18891
     241 -> 249        0.12269
     242 -> 247        0.51279
     242 -> 249       -0.15518
     244 -> 247        0.27043
     246 -> 248       -0.18779

 The electronic state is 1-A.
 Alpha  occ. eigenvalues --  -46.89435 -19.25033 -19.24370 -19.20599 -19.19678
 Alpha  occ. eigenvalues --  -19.18276 -19.17891 -14.42912 -14.41759 -14.40240
 Alpha  occ. eigenvalues --  -14.38791 -10.39403 -10.39082 -10.34858 -10.33865
 Alpha  occ. eigenvalues --  -10.31832 -10.31753 -10.31710 -10.31472 -10.31319
 Alpha  occ. eigenvalues --  -10.31276 -10.30899 -10.30514 -10.29214 -10.29016
 Alpha  occ. eigenvalues --  -10.28637 -10.28605 -10.28359 -10.28255 -10.28087
 Alpha  occ. eigenvalues --  -10.27966 -10.27827 -10.27721 -10.27713 -10.27693
 Alpha  occ. eigenvalues --  -10.27601 -10.27195 -10.26997 -10.26814 -10.26687
 Alpha  occ. eigenvalues --  -10.26582 -10.26384 -10.26330 -10.26187 -10.25988
 Alpha  occ. eigenvalues --  -10.25919 -10.25898 -10.25874 -10.25789 -10.25696
 Alpha  occ. eigenvalues --  -10.25664 -10.25600 -10.25596 -10.25527 -10.25510
 Alpha  occ. eigenvalues --  -10.25040 -10.24869 -10.24760 -10.24616 -10.24613
 Alpha  occ. eigenvalues --  -10.24543 -10.24365 -10.24333 -10.24242 -10.24233
 Alpha  occ. eigenvalues --  -10.23804  -3.17913  -1.92823  -1.92352  -1.92226
 Alpha  occ. eigenvalues --   -1.16421  -1.15509  -1.09295  -1.09076  -1.08903
 Alpha  occ. eigenvalues --   -1.07112  -1.06567  -1.04579  -1.03758  -1.02566
 Alpha  occ. eigenvalues --   -0.94727  -0.90783  -0.89759  -0.89517  -0.89507
 Alpha  occ. eigenvalues --   -0.88973  -0.88796  -0.87809  -0.87520  -0.87201
 Alpha  occ. eigenvalues --   -0.86194  -0.86128  -0.84559  -0.84244  -0.83969
 Alpha  occ. eigenvalues --   -0.82993  -0.82817  -0.81824  -0.81186  -0.80830
 Alpha  occ. eigenvalues --   -0.80320  -0.78663  -0.77726  -0.77391  -0.76544
 Alpha  occ. eigenvalues --   -0.76117  -0.75652  -0.75593  -0.74675  -0.74194
 Alpha  occ. eigenvalues --   -0.73651  -0.73082  -0.71882  -0.70826  -0.69428
 Alpha  occ. eigenvalues --   -0.68815  -0.67726  -0.67219  -0.66402  -0.66024
 Alpha  occ. eigenvalues --   -0.65739  -0.65201  -0.65132  -0.64828  -0.64278
 Alpha  occ. eigenvalues --   -0.63920  -0.63366  -0.62780  -0.62019  -0.60562
 Alpha  occ. eigenvalues --   -0.60133  -0.59905  -0.59699  -0.59081  -0.58814
 Alpha  occ. eigenvalues --   -0.58178  -0.57165  -0.56957  -0.56573  -0.56073
 Alpha  occ. eigenvalues --   -0.56018  -0.54756  -0.54578  -0.54457  -0.53874
 Alpha  occ. eigenvalues --   -0.53727  -0.53467  -0.53371  -0.53033  -0.52951
 Alpha  occ. eigenvalues --   -0.52651  -0.52512  -0.52413  -0.52300  -0.52180
 Alpha  occ. eigenvalues --   -0.52089  -0.51991  -0.51299  -0.51173  -0.50751
 Alpha  occ. eigenvalues --   -0.50556  -0.50519  -0.50149  -0.49937  -0.49760
 Alpha  occ. eigenvalues --   -0.49486  -0.49312  -0.49153  -0.48992  -0.48715
 Alpha  occ. eigenvalues --   -0.48478  -0.48285  -0.48217  -0.48164  -0.48088
 Alpha  occ. eigenvalues --   -0.47656  -0.47461  -0.47374  -0.46966  -0.46882
 Alpha  occ. eigenvalues --   -0.46501  -0.46258  -0.46139  -0.45898  -0.45783
 Alpha  occ. eigenvalues --   -0.45712  -0.45363  -0.45331  -0.45154  -0.45075
 Alpha  occ. eigenvalues --   -0.44854  -0.44713  -0.44458  -0.44420  -0.44347
 Alpha  occ. eigenvalues --   -0.44135  -0.44017  -0.43772  -0.43659  -0.43337
 Alpha  occ. eigenvalues --   -0.42933  -0.42790  -0.42716  -0.42645  -0.42471
 Alpha  occ. eigenvalues --   -0.42085  -0.41992  -0.41543  -0.41305  -0.41020
 Alpha  occ. eigenvalues --   -0.40917  -0.40750  -0.40471  -0.40404  -0.40201
 Alpha  occ. eigenvalues --   -0.40115  -0.39903  -0.39752  -0.39094  -0.38889
 Alpha  occ. eigenvalues --   -0.38479  -0.38287  -0.37761  -0.37681  -0.37605
 Alpha  occ. eigenvalues --   -0.37316  -0.37242  -0.36695  -0.36525  -0.36417
 Alpha  occ. eigenvalues --   -0.36255  -0.35762  -0.35341  -0.34995  -0.34571
 Alpha  occ. eigenvalues --   -0.34152  -0.33423  -0.33376  -0.31667  -0.30891
 Alpha  occ. eigenvalues --   -0.30734  -0.30621  -0.30530  -0.30133  -0.24220
 Alpha  occ. eigenvalues --   -0.21323
 Alpha virt. eigenvalues --   -0.08635  -0.01831   0.00334   0.02273   0.02772
 Alpha virt. eigenvalues --    0.04242   0.04444   0.05047   0.05435   0.06602
 Alpha virt. eigenvalues --    0.06943   0.07575   0.08433   0.08723   0.08737

 Mulliken charges:
               1
     1  Mg   0.845425
     2  C    0.005047
     3  C   -0.073713
     4  C   -0.079939
     5  C   -0.089978
     6  N   -0.237941
     7  C   -0.068574
     8  C    0.018838
     9  C   -0.071135
    10  C    0.004022
    11  C    0.066958
    12  C    0.081361
    13  C    0.013580
    14  C    0.155385
    15  O   -0.187937
    16  O   -0.358037
    17  N   -0.342400
    18  C    0.145554
    19  C   -0.167494
    20  C   -0.045889
    21  C    0.184764
    22  C    0.157022
    23  C    0.020806
    24  O   -0.234672
    25  C    0.073615
    26  N   -0.363614
    27  C    0.016259
    28  C   -0.065869
    29  C   -0.007072
    30  C    0.095444
    31  C    0.074699
    32  C    0.017716
    33  C    0.005642
    34  N   -0.247758
    35  C    0.064752
    36  C   -0.186951
    37  C    0.087234
    38  C    0.060585
    39  C    0.124941
    40  C   -0.030316
    41  O   -0.183800
    42  C    0.058967
    43  C    0.163783
    44  O   -0.227883
    45  O   -0.348960
    46  C    0.194138
    47  C    0.314726
    48  C   -0.125673
    49  C   -0.172130
    50  C    0.124760
    51  C    0.035610
    52  C    0.018142
    53  C    0.073891
    54  C   -0.154417
    55  C    0.055618
    56  C    0.047973
    57  C   -0.039877
    58  C    0.089577
    59  C   -0.152366
    60  C    0.052097
    61  C    0.072181
    62  C   -0.003508
    63  C    0.073651
    64  C   -0.158259
    65  C    0.019114
    66  C    0.082727
    67  H   -0.022879
    68  H   -0.056694
    69  H   -0.039605
    70  H    0.014666
    71  H    0.021602
    72  H    0.015520
    73  H    0.028514
    74  H    0.006535
    75  H    0.016075
    76  H    0.024773
    77  H    0.033381
    78  H    0.032348
    79  H    0.040168
    80  H   -0.011572
    81  H    0.049616
    82  H    0.039372
    83  H    0.025405
    84  H    0.034500
    85  H    0.014121
    86  H    0.011760
    87  H    0.015123
    88  H    0.016255
    89  H    0.018434
    90  H   -0.003159
    91  H    0.017343
    92  H    0.021970
    93  H    0.008083
    94  H    0.014832
    95  H    0.031220
    96  H    0.020690
    97  H    0.028215
    98  H    0.020604
    99  H    0.068062
   100  H    0.025405
   101  H    0.034580
   102  H    0.013844
   103  H    0.021550
   104  H   -0.005728
   105  H    0.046103
   106  H    0.022193
   107  H    0.003310
   108  H   -0.015199
   109  H   -0.005400
   110  H   -0.016152
   111  H   -0.006350
   112  H   -0.002453
   113  H   -0.004079
   114  H    0.002691
   115  H   -0.002615
   116  H   -0.002691
   117  H    0.008972
   118  H    0.001713
   119  H    0.000062
   120  H    0.003746
   121  H    0.007730
   122  H   -0.009786
   123  H   -0.010159
   124  H   -0.005341
   125  H    0.004221
   126  H    0.002759
   127  H    0.008015
   128  H   -0.017331
   129  H    0.004563
   130  H   -0.022506
   131  H   -0.008284
   132  H   -0.007091
   133  H   -0.008280
   134  H    0.002397
   135  H    0.011179
   136  H   -0.001062
   137  H   -0.009928
   138  H   -0.004441
   139  H    0.001258
   140  H    0.012867
 Sum of Mulliken charges =  -0.00000

 Dipole moment (field-independent basis, Debye):
    X=              0.6041    Y=             -2.7733    Z=              1.4806  Tot=              3.2013
 Quadrupole moment (field-independent basis, Debye-Ang):
   XX=           -365.7300   YY=           -442.7594   ZZ=           -405.5526
   XY=             13.0996   XZ=            -21.7587   YZ=            -24.7344

 Normal termination of Gaussian 16 at Thu May  5 04:53:36 2022.
