 Gaussian 16, Revision A.03,
 Gaussian 16:  ES64L-G16RevA.03 25-Dec-2016

 ---------------------------------
 #p PBE1PBE/Def2SVP td=(nstates=5)
 ---------------------------------

 -----------------------------------------------------
 step_651_chromophore_23 TDDFT with PBE1PBE functional
 -----------------------------------------------------
 Symbolic Z-matrix:
 Charge =  0 Multiplicity = 1

                         Standard orientation:
 ---------------------------------------------------------------------
 Center     Atomic      Atomic             Coordinates (Angstroms)
 Number     Number       Type             X           Y           Z
 ---------------------------------------------------------------------
      1         12           0       -4.953829   -0.142309   -0.335030
      2          6           0       -2.886928    2.654323   -0.100964
      3          6           0       -2.890649   -1.347921   -2.933524
      4          6           0       -6.403304   -3.106032   -0.083828
      5          6           0       -6.510418    1.014898    2.470316
      6          7           0       -2.981380    0.493609   -1.318073
      7          6           0       -2.319807    1.677504   -1.006231
      8          6           0       -1.007038    1.796143   -1.809151
      9          6           0       -1.106271    0.538779   -2.760558
     10          6           0       -2.427641   -0.128139   -2.347838
     11          6           0       -1.163265    0.908980   -4.257883
     12          6           0        0.391739    1.903840   -1.009849
     13          6           0        1.130362    3.244199   -1.042731
     14          6           0        2.476107    3.426152   -1.689089
     15          8           0        2.668293    3.812511   -2.798825
     16          8           0        3.472357    3.168915   -0.732321
     17          7           0       -4.797964   -1.914751   -1.470674
     18          6           0       -3.933004   -2.174701   -2.490740
     19          6           0       -4.108078   -3.579694   -2.938248
     20          6           0       -5.099430   -4.085302   -2.079840
     21          6           0       -5.510774   -3.020297   -1.186429
     22          6           0       -3.174114   -4.268314   -3.984941
     23          6           0       -5.469456   -5.617077   -2.040312
     24          8           0       -5.114779   -6.422605   -2.921496
     25          6           0       -6.323142   -6.230540   -1.113937
     26          7           0       -6.335212   -0.894596    0.982376
     27          6           0       -6.854522   -2.213173    0.853553
     28          6           0       -7.899855   -2.482518    1.935829
     29          6           0       -7.821433   -1.221191    2.860700
     30          6           0       -6.757069   -0.303674    2.104888
     31          6           0       -9.272702   -2.640025    1.261413
     32          6           0       -7.333529   -1.797669    4.209192
     33          6           0       -8.442631   -2.188472    5.232188
     34          7           0       -4.864365    1.584560    0.888971
     35          6           0       -5.554863    1.945963    1.944803
     36          6           0       -5.184793    3.189134    2.521968
     37          6           0       -4.086000    3.527313    1.710950
     38          6           0       -3.947383    2.513160    0.786317
     39          6           0       -5.873959    3.874204    3.606692
     40          6           0       -3.082790    4.475163    1.378559
     41          8           0       -2.906869    5.602648    1.838498
     42          6           0       -2.296559    3.979116    0.251471
     43          6           0       -2.565289    4.952562   -0.810115
     44          8           0       -3.614445    5.006254   -1.442810
     45          8           0       -1.509564    5.837189   -0.993970
     46          6           0       -1.692730    6.724311   -2.195207
     47          6           0        4.813709    3.607298   -1.075942
     48          6           0        5.810069    2.776315   -0.306713
     49          6           0        6.665111    1.787182   -0.711191
     50          6           0        6.765091    0.981575   -1.967432
     51          6           0        7.615773    1.252616    0.358555
     52          6           0        9.079818    1.659961    0.236540
     53          6           0       10.025783    1.086193    1.318209
     54          6           0       10.847117   -0.128110    0.730712
     55          6           0       12.253277    0.268581    0.342474
     56          6           0       10.923972   -1.291221    1.825906
     57          6           0        9.746579   -2.258639    1.492243
     58          6           0        9.255634   -3.016478    2.759422
     59          6           0        7.892145   -2.445813    3.196828
     60          6           0        7.849237   -2.082686    4.699304
     61          6           0        6.714201   -3.400628    2.698160
     62          6           0        6.140864   -2.984974    1.322264
     63          6           0        6.280491   -3.978658    0.169114
     64          6           0        6.817320   -3.308061   -1.168218
     65          6           0        5.888362   -3.640990   -2.398418
     66          6           0        8.164185   -3.692288   -1.533282
     67          1           0       -2.268161   -1.684947   -3.765923
     68          1           0       -6.785793   -4.090675    0.192856
     69          1           0       -6.988726    1.382748    3.380664
     70          1           0       -1.152203    2.724502   -2.360272
     71          1           0       -0.313887   -0.187901   -2.580061
     72          1           0       -0.187600    0.786762   -4.729461
     73          1           0       -1.599035    1.896760   -4.404139
     74          1           0       -1.728623    0.162287   -4.816717
     75          1           0        1.063142    1.188676   -1.484894
     76          1           0        0.267010    1.699897    0.054245
     77          1           0        1.264763    3.463132    0.017536
     78          1           0        0.455210    3.989139   -1.462545
     79          1           0       -2.487215   -4.911190   -3.435873
     80          1           0       -2.534345   -3.512864   -4.441216
     81          1           0       -3.766969   -4.741751   -4.768453
     82          1           0       -7.296089   -5.750676   -1.221855
     83          1           0       -6.080695   -6.073157   -0.063186
     84          1           0       -6.325801   -7.315968   -1.212642
     85          1           0       -7.670913   -3.409495    2.461170
     86          1           0       -8.838667   -0.832491    2.848745
     87          1           0       -9.772451   -3.424299    1.830202
     88          1           0       -9.165313   -2.974336    0.230040
     89          1           0       -9.847790   -1.713404    1.266128
     90          1           0       -6.867614   -0.951054    4.713102
     91          1           0       -6.578159   -2.579680    4.129972
     92          1           0       -8.219493   -1.719985    6.190781
     93          1           0       -8.394491   -3.269128    5.363912
     94          1           0       -9.473550   -1.971075    4.952488
     95          1           0       -5.944406    3.281040    4.519147
     96          1           0       -6.877616    4.195490    3.329224
     97          1           0       -5.387949    4.845087    3.703349
     98          1           0       -1.215016    4.021534    0.377524
     99          1           0       -2.555124    7.389680   -2.221080
    100          1           0       -1.634504    6.013061   -3.018723
    101          1           0       -0.717122    7.209597   -2.233895
    102          1           0        4.940082    4.640595   -0.755888
    103          1           0        5.093807    3.527255   -2.126119
    104          1           0        5.981907    3.040975    0.736898
    105          1           0        6.239764    0.037557   -1.825708
    106          1           0        7.833013    0.903587   -2.169295
    107          1           0        6.200029    1.517174   -2.730125
    108          1           0        7.651975    0.165927    0.432114
    109          1           0        7.234439    1.476569    1.355149
    110          1           0        9.129543    2.748863    0.260374
    111          1           0        9.472436    1.458934   -0.760244
    112          1           0        9.492621    0.829300    2.233882
    113          1           0       10.757991    1.838844    1.610956
    114          1           0       10.395769   -0.497165   -0.189877
    115          1           0       12.304878    1.285186   -0.046921
    116          1           0       12.616506   -0.344109   -0.483048
    117          1           0       13.000678    0.118281    1.121737
    118          1           0       10.852171   -0.787863    2.789942
    119          1           0       11.791140   -1.950824    1.794291
    120          1           0       10.127644   -3.001332    0.792388
    121          1           0        9.021041   -1.667305    0.934204
    122          1           0        9.985728   -2.845985    3.550452
    123          1           0        9.221160   -4.096459    2.612507
    124          1           0        7.768390   -1.475731    2.715075
    125          1           0        8.070984   -1.018463    4.778350
    126          1           0        8.667973   -2.630302    5.167902
    127          1           0        6.914182   -2.278547    5.223510
    128          1           0        5.889560   -3.153701    3.367243
    129          1           0        6.923470   -4.468928    2.759358
    130          1           0        6.654259   -2.088248    0.975496
    131          1           0        5.131267   -2.582644    1.408781
    132          1           0        5.297592   -4.398383   -0.046399
    133          1           0        6.920296   -4.762787    0.571380
    134          1           0        6.742625   -2.227926   -1.039557
    135          1           0        6.222786   -4.339604   -3.165790
    136          1           0        5.542693   -2.768122   -2.954398
    137          1           0        4.939260   -4.045223   -2.046590
    138          1           0        8.706225   -4.058367   -0.661878
    139          1           0        8.710932   -2.785189   -1.789458
    140          1           0        8.231703   -4.457600   -2.307039
 ---------------------------------------------------------------------

 SCF Done:  E(RPBE1PBE) =  -3005.33783883     A.U. after   15 cycles

 Excitation energies and oscillator strengths:

 Excited State   1:      Singlet-A      1.9125 eV  648.28 nm  f=0.3669  <S**2>=0.000
     245 -> 248        0.17920
     246 -> 247        0.69034
     246 <- 247       -0.10565
 This state for optimization and/or second-order correction.
 Total Energy, E(TD-HF/TD-DFT) =  -3005.26755514
 Copying the excited state density for this state as the 1-particle RhoCI density.

 Excited State   2:      Singlet-A      2.2727 eV  545.54 nm  f=0.1084  <S**2>=0.000
     245 -> 247        0.64856
     246 -> 248       -0.27021

 Excited State   3:      Singlet-A      2.9930 eV  414.24 nm  f=0.0021  <S**2>=0.000
     241 -> 247       -0.15712
     243 -> 247        0.63993
     243 -> 249        0.16891

 Excited State   4:      Singlet-A      3.0471 eV  406.90 nm  f=0.0000  <S**2>=0.000
     244 -> 247        0.67124
     244 -> 249       -0.16685
     244 -> 250       -0.11621

 Excited State   5:      Singlet-A      3.2429 eV  382.32 nm  f=0.0134  <S**2>=0.000
     240 -> 247        0.23020
     241 -> 247        0.62473
     243 -> 247        0.14182
     246 -> 248       -0.14021

 The electronic state is 1-A.
 Alpha  occ. eigenvalues --  -46.92817 -19.25713 -19.25098 -19.20842 -19.19921
 Alpha  occ. eigenvalues --  -19.18417 -19.18213 -14.42237 -14.41464 -14.39721
 Alpha  occ. eigenvalues --  -14.38453 -10.36427 -10.36134 -10.31891 -10.31063
 Alpha  occ. eigenvalues --  -10.29634 -10.29130 -10.29078 -10.29062 -10.28860
 Alpha  occ. eigenvalues --  -10.28764 -10.28676 -10.27988 -10.27059 -10.26474
 Alpha  occ. eigenvalues --  -10.26441 -10.26374 -10.26052 -10.25990 -10.25900
 Alpha  occ. eigenvalues --  -10.25643 -10.25543 -10.25400 -10.25353 -10.25216
 Alpha  occ. eigenvalues --  -10.25197 -10.25117 -10.24520 -10.24510 -10.24272
 Alpha  occ. eigenvalues --  -10.23946 -10.23803 -10.23763 -10.23735 -10.23708
 Alpha  occ. eigenvalues --  -10.23671 -10.23496 -10.23443 -10.23339 -10.23283
 Alpha  occ. eigenvalues --  -10.23226 -10.23200 -10.23175 -10.23098 -10.22896
 Alpha  occ. eigenvalues --  -10.22635 -10.22450 -10.22443 -10.22320 -10.22176
 Alpha  occ. eigenvalues --  -10.22090 -10.21862 -10.21776 -10.21639 -10.21618
 Alpha  occ. eigenvalues --  -10.21134  -3.14876  -1.87727  -1.87235  -1.87109
 Alpha  occ. eigenvalues --   -1.11229  -1.10258  -1.04096  -1.03805  -1.03697
 Alpha  occ. eigenvalues --   -1.01944  -1.01466  -0.99069  -0.98293  -0.97215
 Alpha  occ. eigenvalues --   -0.89181  -0.84904  -0.83878  -0.83841  -0.83670
 Alpha  occ. eigenvalues --   -0.83226  -0.82907  -0.82246  -0.81649  -0.81517
 Alpha  occ. eigenvalues --   -0.80369  -0.80315  -0.78844  -0.78495  -0.78142
 Alpha  occ. eigenvalues --   -0.77148  -0.77007  -0.76103  -0.75472  -0.75195
 Alpha  occ. eigenvalues --   -0.74466  -0.73014  -0.71949  -0.71656  -0.70844
 Alpha  occ. eigenvalues --   -0.70332  -0.69902  -0.69722  -0.68816  -0.68370
 Alpha  occ. eigenvalues --   -0.68075  -0.67430  -0.66317  -0.65138  -0.64010
 Alpha  occ. eigenvalues --   -0.63169  -0.61956  -0.61529  -0.60599  -0.60456
 Alpha  occ. eigenvalues --   -0.60109  -0.59670  -0.59395  -0.59344  -0.58413
 Alpha  occ. eigenvalues --   -0.58079  -0.57884  -0.56974  -0.56612  -0.55072
 Alpha  occ. eigenvalues --   -0.54671  -0.54489  -0.54139  -0.53573  -0.53290
 Alpha  occ. eigenvalues --   -0.52746  -0.51649  -0.51486  -0.50918  -0.50655
 Alpha  occ. eigenvalues --   -0.50557  -0.49306  -0.49159  -0.49028  -0.48351
 Alpha  occ. eigenvalues --   -0.48238  -0.47947  -0.47882  -0.47564  -0.47392
 Alpha  occ. eigenvalues --   -0.47158  -0.47039  -0.46979  -0.46767  -0.46686
 Alpha  occ. eigenvalues --   -0.46596  -0.46456  -0.45908  -0.45767  -0.45321
 Alpha  occ. eigenvalues --   -0.45033  -0.45016  -0.44773  -0.44525  -0.44331
 Alpha  occ. eigenvalues --   -0.44101  -0.43894  -0.43764  -0.43548  -0.43347
 Alpha  occ. eigenvalues --   -0.43118  -0.42891  -0.42813  -0.42787  -0.42713
 Alpha  occ. eigenvalues --   -0.42324  -0.42204  -0.42000  -0.41614  -0.41548
 Alpha  occ. eigenvalues --   -0.41145  -0.40995  -0.40723  -0.40677  -0.40520
 Alpha  occ. eigenvalues --   -0.40362  -0.40069  -0.40034  -0.39905  -0.39837
 Alpha  occ. eigenvalues --   -0.39647  -0.39290  -0.39289  -0.39226  -0.39072
 Alpha  occ. eigenvalues --   -0.38917  -0.38797  -0.38552  -0.38361  -0.38082
 Alpha  occ. eigenvalues --   -0.37767  -0.37584  -0.37538  -0.37362  -0.37246
 Alpha  occ. eigenvalues --   -0.36915  -0.36855  -0.36328  -0.36230  -0.35848
 Alpha  occ. eigenvalues --   -0.35671  -0.35635  -0.35235  -0.35224  -0.35046
 Alpha  occ. eigenvalues --   -0.34948  -0.34860  -0.34527  -0.33819  -0.33649
 Alpha  occ. eigenvalues --   -0.33421  -0.33051  -0.32693  -0.32619  -0.32465
 Alpha  occ. eigenvalues --   -0.32277  -0.32123  -0.31643  -0.31488  -0.31411
 Alpha  occ. eigenvalues --   -0.31152  -0.30687  -0.30238  -0.30121  -0.29488
 Alpha  occ. eigenvalues --   -0.29068  -0.28855  -0.28366  -0.27253  -0.26255
 Alpha  occ. eigenvalues --   -0.25945  -0.25883  -0.25530  -0.25271  -0.21104
 Alpha  occ. eigenvalues --   -0.18934
 Alpha virt. eigenvalues --   -0.11129  -0.05325  -0.03910  -0.02052  -0.00312
 Alpha virt. eigenvalues --   -0.00125   0.00214   0.00763   0.01287   0.02681
 Alpha virt. eigenvalues --    0.03551   0.03662   0.04137   0.05310   0.05422

 Mulliken charges:
               1
     1  Mg   0.989877
     2  C   -0.004629
     3  C   -0.068848
     4  C   -0.077139
     5  C   -0.075464
     6  N   -0.344736
     7  C    0.019705
     8  C   -0.050158
     9  C   -0.155863
    10  C    0.053418
    11  C    0.011571
    12  C    0.030866
    13  C   -0.069445
    14  C    0.228177
    15  O   -0.223486
    16  O   -0.387551
    17  N   -0.463320
    18  C    0.169182
    19  C   -0.185183
    20  C   -0.096556
    21  C    0.212312
    22  C    0.094321
    23  C    0.072935
    24  O   -0.268124
    25  C   -0.003321
    26  N   -0.464855
    27  C    0.048989
    28  C   -0.138725
    29  C   -0.085232
    30  C    0.136821
    31  C    0.019553
    32  C   -0.047237
    33  C   -0.059944
    34  N   -0.381393
    35  C    0.082830
    36  C   -0.189707
    37  C    0.035907
    38  C    0.099877
    39  C    0.069183
    40  C    0.069169
    41  O   -0.229732
    42  C   -0.071538
    43  C    0.263216
    44  O   -0.259954
    45  O   -0.381200
    46  C    0.136237
    47  C    0.271497
    48  C   -0.138322
    49  C   -0.207362
    50  C    0.052271
    51  C   -0.047799
    52  C   -0.042088
    53  C    0.021265
    54  C   -0.247167
    55  C   -0.002082
    56  C    0.000866
    57  C   -0.114200
    58  C    0.039336
    59  C   -0.242084
    60  C   -0.007992
    61  C    0.014095
    62  C   -0.070958
    63  C    0.023877
    64  C   -0.269158
    65  C   -0.037281
    66  C    0.022954
    67  H    0.007004
    68  H   -0.021232
    69  H   -0.006064
    70  H    0.055774
    71  H    0.057384
    72  H    0.043365
    73  H    0.054716
    74  H    0.034973
    75  H    0.049942
    76  H    0.056133
    77  H    0.065105
    78  H    0.067195
    79  H    0.066724
    80  H    0.016702
    81  H    0.075235
    82  H    0.066026
    83  H    0.051240
    84  H    0.061673
    85  H    0.049228
    86  H    0.046479
    87  H    0.043008
    88  H    0.045088
    89  H    0.044771
    90  H    0.031716
    91  H    0.049079
    92  H    0.048874
    93  H    0.036078
    94  H    0.041423
    95  H    0.058104
    96  H    0.050127
    97  H    0.057866
    98  H    0.062605
    99  H    0.088959
   100  H    0.048320
   101  H    0.056421
   102  H    0.041670
   103  H    0.048139
   104  H    0.023702
   105  H    0.076950
   106  H    0.049953
   107  H    0.033139
   108  H    0.031725
   109  H    0.026449
   110  H    0.018316
   111  H    0.025977
   112  H    0.029378
   113  H    0.029054
   114  H    0.040081
   115  H    0.025247
   116  H    0.026098
   117  H    0.036353
   118  H    0.033581
   119  H    0.032429
   120  H    0.038000
   121  H    0.047014
   122  H    0.022516
   123  H    0.021298
   124  H    0.036505
   125  H    0.031748
   126  H    0.030271
   127  H    0.034569
   128  H    0.017770
   129  H    0.034813
   130  H    0.018136
   131  H    0.024209
   132  H    0.025993
   133  H    0.023654
   134  H    0.048943
   135  H    0.037391
   136  H    0.026777
   137  H    0.017488
   138  H    0.025351
   139  H    0.029205
   140  H    0.039590
 Sum of Mulliken charges =  -0.00000

 Dipole moment (field-independent basis, Debye):
    X=              0.5274    Y=             -2.5124    Z=              1.8464  Tot=              3.1622
 Quadrupole moment (field-independent basis, Debye-Ang):
   XX=           -359.9223   YY=           -440.1405   ZZ=           -401.9961
   XY=             12.0166   XZ=            -24.4661   YZ=            -24.8586

 Normal termination of Gaussian 16 at Thu May  5 05:14:30 2022.
