 Gaussian 16, Revision A.03,
 Gaussian 16:  ES64L-G16RevA.03 25-Dec-2016

 --------------------------------
 #p wB97XD/Def2SVP td=(nstates=5)
 --------------------------------

 ----------------------------------------------------
 step_651_chromophore_23 TDDFT with wB97XD functional
 ----------------------------------------------------
 Symbolic Z-matrix:
 Charge =  0 Multiplicity = 1

                         Standard orientation:
 ---------------------------------------------------------------------
 Center     Atomic      Atomic             Coordinates (Angstroms)
 Number     Number       Type             X           Y           Z
 ---------------------------------------------------------------------
      1         12           0       -4.953829   -0.142309   -0.335030
      2          6           0       -2.886928    2.654323   -0.100964
      3          6           0       -2.890649   -1.347921   -2.933524
      4          6           0       -6.403304   -3.106032   -0.083828
      5          6           0       -6.510418    1.014898    2.470316
      6          7           0       -2.981380    0.493609   -1.318073
      7          6           0       -2.319807    1.677504   -1.006231
      8          6           0       -1.007038    1.796143   -1.809151
      9          6           0       -1.106271    0.538779   -2.760558
     10          6           0       -2.427641   -0.128139   -2.347838
     11          6           0       -1.163265    0.908980   -4.257883
     12          6           0        0.391739    1.903840   -1.009849
     13          6           0        1.130362    3.244199   -1.042731
     14          6           0        2.476107    3.426152   -1.689089
     15          8           0        2.668293    3.812511   -2.798825
     16          8           0        3.472357    3.168915   -0.732321
     17          7           0       -4.797964   -1.914751   -1.470674
     18          6           0       -3.933004   -2.174701   -2.490740
     19          6           0       -4.108078   -3.579694   -2.938248
     20          6           0       -5.099430   -4.085302   -2.079840
     21          6           0       -5.510774   -3.020297   -1.186429
     22          6           0       -3.174114   -4.268314   -3.984941
     23          6           0       -5.469456   -5.617077   -2.040312
     24          8           0       -5.114779   -6.422605   -2.921496
     25          6           0       -6.323142   -6.230540   -1.113937
     26          7           0       -6.335212   -0.894596    0.982376
     27          6           0       -6.854522   -2.213173    0.853553
     28          6           0       -7.899855   -2.482518    1.935829
     29          6           0       -7.821433   -1.221191    2.860700
     30          6           0       -6.757069   -0.303674    2.104888
     31          6           0       -9.272702   -2.640025    1.261413
     32          6           0       -7.333529   -1.797669    4.209192
     33          6           0       -8.442631   -2.188472    5.232188
     34          7           0       -4.864365    1.584560    0.888971
     35          6           0       -5.554863    1.945963    1.944803
     36          6           0       -5.184793    3.189134    2.521968
     37          6           0       -4.086000    3.527313    1.710950
     38          6           0       -3.947383    2.513160    0.786317
     39          6           0       -5.873959    3.874204    3.606692
     40          6           0       -3.082790    4.475163    1.378559
     41          8           0       -2.906869    5.602648    1.838498
     42          6           0       -2.296559    3.979116    0.251471
     43          6           0       -2.565289    4.952562   -0.810115
     44          8           0       -3.614445    5.006254   -1.442810
     45          8           0       -1.509564    5.837189   -0.993970
     46          6           0       -1.692730    6.724311   -2.195207
     47          6           0        4.813709    3.607298   -1.075942
     48          6           0        5.810069    2.776315   -0.306713
     49          6           0        6.665111    1.787182   -0.711191
     50          6           0        6.765091    0.981575   -1.967432
     51          6           0        7.615773    1.252616    0.358555
     52          6           0        9.079818    1.659961    0.236540
     53          6           0       10.025783    1.086193    1.318209
     54          6           0       10.847117   -0.128110    0.730712
     55          6           0       12.253277    0.268581    0.342474
     56          6           0       10.923972   -1.291221    1.825906
     57          6           0        9.746579   -2.258639    1.492243
     58          6           0        9.255634   -3.016478    2.759422
     59          6           0        7.892145   -2.445813    3.196828
     60          6           0        7.849237   -2.082686    4.699304
     61          6           0        6.714201   -3.400628    2.698160
     62          6           0        6.140864   -2.984974    1.322264
     63          6           0        6.280491   -3.978658    0.169114
     64          6           0        6.817320   -3.308061   -1.168218
     65          6           0        5.888362   -3.640990   -2.398418
     66          6           0        8.164185   -3.692288   -1.533282
     67          1           0       -2.268161   -1.684947   -3.765923
     68          1           0       -6.785793   -4.090675    0.192856
     69          1           0       -6.988726    1.382748    3.380664
     70          1           0       -1.152203    2.724502   -2.360272
     71          1           0       -0.313887   -0.187901   -2.580061
     72          1           0       -0.187600    0.786762   -4.729461
     73          1           0       -1.599035    1.896760   -4.404139
     74          1           0       -1.728623    0.162287   -4.816717
     75          1           0        1.063142    1.188676   -1.484894
     76          1           0        0.267010    1.699897    0.054245
     77          1           0        1.264763    3.463132    0.017536
     78          1           0        0.455210    3.989139   -1.462545
     79          1           0       -2.487215   -4.911190   -3.435873
     80          1           0       -2.534345   -3.512864   -4.441216
     81          1           0       -3.766969   -4.741751   -4.768453
     82          1           0       -7.296089   -5.750676   -1.221855
     83          1           0       -6.080695   -6.073157   -0.063186
     84          1           0       -6.325801   -7.315968   -1.212642
     85          1           0       -7.670913   -3.409495    2.461170
     86          1           0       -8.838667   -0.832491    2.848745
     87          1           0       -9.772451   -3.424299    1.830202
     88          1           0       -9.165313   -2.974336    0.230040
     89          1           0       -9.847790   -1.713404    1.266128
     90          1           0       -6.867614   -0.951054    4.713102
     91          1           0       -6.578159   -2.579680    4.129972
     92          1           0       -8.219493   -1.719985    6.190781
     93          1           0       -8.394491   -3.269128    5.363912
     94          1           0       -9.473550   -1.971075    4.952488
     95          1           0       -5.944406    3.281040    4.519147
     96          1           0       -6.877616    4.195490    3.329224
     97          1           0       -5.387949    4.845087    3.703349
     98          1           0       -1.215016    4.021534    0.377524
     99          1           0       -2.555124    7.389680   -2.221080
    100          1           0       -1.634504    6.013061   -3.018723
    101          1           0       -0.717122    7.209597   -2.233895
    102          1           0        4.940082    4.640595   -0.755888
    103          1           0        5.093807    3.527255   -2.126119
    104          1           0        5.981907    3.040975    0.736898
    105          1           0        6.239764    0.037557   -1.825708
    106          1           0        7.833013    0.903587   -2.169295
    107          1           0        6.200029    1.517174   -2.730125
    108          1           0        7.651975    0.165927    0.432114
    109          1           0        7.234439    1.476569    1.355149
    110          1           0        9.129543    2.748863    0.260374
    111          1           0        9.472436    1.458934   -0.760244
    112          1           0        9.492621    0.829300    2.233882
    113          1           0       10.757991    1.838844    1.610956
    114          1           0       10.395769   -0.497165   -0.189877
    115          1           0       12.304878    1.285186   -0.046921
    116          1           0       12.616506   -0.344109   -0.483048
    117          1           0       13.000678    0.118281    1.121737
    118          1           0       10.852171   -0.787863    2.789942
    119          1           0       11.791140   -1.950824    1.794291
    120          1           0       10.127644   -3.001332    0.792388
    121          1           0        9.021041   -1.667305    0.934204
    122          1           0        9.985728   -2.845985    3.550452
    123          1           0        9.221160   -4.096459    2.612507
    124          1           0        7.768390   -1.475731    2.715075
    125          1           0        8.070984   -1.018463    4.778350
    126          1           0        8.667973   -2.630302    5.167902
    127          1           0        6.914182   -2.278547    5.223510
    128          1           0        5.889560   -3.153701    3.367243
    129          1           0        6.923470   -4.468928    2.759358
    130          1           0        6.654259   -2.088248    0.975496
    131          1           0        5.131267   -2.582644    1.408781
    132          1           0        5.297592   -4.398383   -0.046399
    133          1           0        6.920296   -4.762787    0.571380
    134          1           0        6.742625   -2.227926   -1.039557
    135          1           0        6.222786   -4.339604   -3.165790
    136          1           0        5.542693   -2.768122   -2.954398
    137          1           0        4.939260   -4.045223   -2.046590
    138          1           0        8.706225   -4.058367   -0.661878
    139          1           0        8.710932   -2.785189   -1.789458
    140          1           0        8.231703   -4.457600   -2.307039
 ---------------------------------------------------------------------

 SCF Done:  E(RwB97XD) =  -3007.85039815     A.U. after   19 cycles

 Excitation energies and oscillator strengths:

 Excited State   1:      Singlet-A      1.7206 eV  720.59 nm  f=0.3833  <S**2>=0.000
     245 -> 248       -0.18277
     246 -> 247        0.68097
     245 <- 248       -0.11234
 This state for optimization and/or second-order correction.
 Total Energy, E(TD-HF/TD-DFT) =  -3007.78716750
 Copying the excited state density for this state as the 1-particle RhoCI density.

 Excited State   2:      Singlet-A      2.2280 eV  556.48 nm  f=0.1033  <S**2>=0.000
     245 -> 247        0.63212
     246 -> 248        0.29926

 Excited State   3:      Singlet-A      3.5147 eV  352.76 nm  f=0.1359  <S**2>=0.000
     240 -> 247       -0.10471
     241 -> 247        0.45149
     241 -> 249        0.26635
     241 -> 250       -0.16787
     242 -> 247        0.12258
     245 -> 247       -0.13405
     246 -> 248        0.29863

 Excited State   4:      Singlet-A      3.5929 eV  345.09 nm  f=0.4361  <S**2>=0.000
     241 -> 247       -0.13014
     241 -> 249       -0.14823
     242 -> 247       -0.21163
     242 -> 250        0.10005
     244 -> 247        0.26019
     245 -> 247       -0.22044
     246 -> 248        0.49626

 Excited State   5:      Singlet-A      3.6055 eV  343.87 nm  f=0.0082  <S**2>=0.000
     240 -> 247        0.29581
     242 -> 247        0.39296
     242 -> 249       -0.24655
     242 -> 250       -0.16266
     244 -> 247        0.35044

 The electronic state is 1-A.
 Alpha  occ. eigenvalues --  -46.95769 -19.30255 -19.29656 -19.25540 -19.24610
 Alpha  occ. eigenvalues --  -19.23330 -19.22921 -14.47521 -14.46325 -14.44858
 Alpha  occ. eigenvalues --  -14.43333 -10.43226 -10.42930 -10.38839 -10.37832
 Alpha  occ. eigenvalues --  -10.35728 -10.35646 -10.35580 -10.35561 -10.35421
 Alpha  occ. eigenvalues --  -10.35314 -10.34878 -10.34612 -10.33288 -10.33229
 Alpha  occ. eigenvalues --  -10.32687 -10.32543 -10.32511 -10.32227 -10.32132
 Alpha  occ. eigenvalues --  -10.32100 -10.31866 -10.31829 -10.31736 -10.31632
 Alpha  occ. eigenvalues --  -10.31623 -10.31239 -10.30930 -10.30844 -10.30646
 Alpha  occ. eigenvalues --  -10.30509 -10.30261 -10.30154 -10.30059 -10.29992
 Alpha  occ. eigenvalues --  -10.29876 -10.29868 -10.29731 -10.29682 -10.29549
 Alpha  occ. eigenvalues --  -10.29546 -10.29531 -10.29528 -10.29487 -10.29466
 Alpha  occ. eigenvalues --  -10.29002 -10.28803 -10.28711 -10.28615 -10.28544
 Alpha  occ. eigenvalues --  -10.28459 -10.28227 -10.28198 -10.28058 -10.28055
 Alpha  occ. eigenvalues --  -10.27596  -3.21697  -1.95293  -1.94803  -1.94677
 Alpha  occ. eigenvalues --   -1.18604  -1.17654  -1.11484  -1.11305  -1.11143
 Alpha  occ. eigenvalues --   -1.09299  -1.08604  -1.06637  -1.05790  -1.04554
 Alpha  occ. eigenvalues --   -0.96734  -0.92576  -0.91544  -0.91404  -0.91327
 Alpha  occ. eigenvalues --   -0.90884  -0.90571  -0.89715  -0.89303  -0.89114
 Alpha  occ. eigenvalues --   -0.88206  -0.88028  -0.86473  -0.86116  -0.85837
 Alpha  occ. eigenvalues --   -0.84897  -0.84662  -0.83729  -0.83081  -0.82788
 Alpha  occ. eigenvalues --   -0.82137  -0.80585  -0.79683  -0.79304  -0.78455
 Alpha  occ. eigenvalues --   -0.77977  -0.77530  -0.77427  -0.76495  -0.76035
 Alpha  occ. eigenvalues --   -0.75618  -0.75022  -0.73864  -0.72752  -0.71424
 Alpha  occ. eigenvalues --   -0.70717  -0.69595  -0.69205  -0.68250  -0.67960
 Alpha  occ. eigenvalues --   -0.67695  -0.67137  -0.67025  -0.66819  -0.66081
 Alpha  occ. eigenvalues --   -0.65740  -0.65359  -0.64610  -0.64019  -0.62572
 Alpha  occ. eigenvalues --   -0.62119  -0.61868  -0.61628  -0.61029  -0.60768
 Alpha  occ. eigenvalues --   -0.60172  -0.59145  -0.58908  -0.58435  -0.58047
 Alpha  occ. eigenvalues --   -0.57930  -0.56706  -0.56528  -0.56377  -0.55708
 Alpha  occ. eigenvalues --   -0.55657  -0.55336  -0.55297  -0.54988  -0.54850
 Alpha  occ. eigenvalues --   -0.54573  -0.54394  -0.54302  -0.54190  -0.54069
 Alpha  occ. eigenvalues --   -0.53982  -0.53924  -0.53194  -0.53073  -0.52687
 Alpha  occ. eigenvalues --   -0.52489  -0.52381  -0.52056  -0.51828  -0.51646
 Alpha  occ. eigenvalues --   -0.51388  -0.51253  -0.51098  -0.50907  -0.50649
 Alpha  occ. eigenvalues --   -0.50388  -0.50223  -0.50094  -0.50063  -0.50013
 Alpha  occ. eigenvalues --   -0.49611  -0.49404  -0.49284  -0.48903  -0.48781
 Alpha  occ. eigenvalues --   -0.48370  -0.48212  -0.47983  -0.47813  -0.47698
 Alpha  occ. eigenvalues --   -0.47574  -0.47279  -0.47225  -0.47109  -0.47000
 Alpha  occ. eigenvalues --   -0.46783  -0.46548  -0.46374  -0.46308  -0.46235
 Alpha  occ. eigenvalues --   -0.46071  -0.45943  -0.45676  -0.45545  -0.45203
 Alpha  occ. eigenvalues --   -0.44883  -0.44728  -0.44601  -0.44524  -0.44396
 Alpha  occ. eigenvalues --   -0.44045  -0.43917  -0.43423  -0.43203  -0.42873
 Alpha  occ. eigenvalues --   -0.42768  -0.42695  -0.42447  -0.42330  -0.42057
 Alpha  occ. eigenvalues --   -0.42010  -0.41822  -0.41608  -0.40912  -0.40731
 Alpha  occ. eigenvalues --   -0.40402  -0.40121  -0.39740  -0.39611  -0.39459
 Alpha  occ. eigenvalues --   -0.39243  -0.39156  -0.38712  -0.38495  -0.38336
 Alpha  occ. eigenvalues --   -0.38141  -0.37588  -0.37189  -0.36966  -0.36524
 Alpha  occ. eigenvalues --   -0.36066  -0.35633  -0.35263  -0.33885  -0.33041
 Alpha  occ. eigenvalues --   -0.32702  -0.32617  -0.32573  -0.32269  -0.26152
 Alpha  occ. eigenvalues --   -0.23137
 Alpha virt. eigenvalues --   -0.06971   0.00086   0.02405   0.04439   0.05879
 Alpha virt. eigenvalues --    0.06488   0.06782   0.07560   0.07828   0.09173
 Alpha virt. eigenvalues --    0.10005   0.10165   0.11048   0.11985   0.12022

 Mulliken charges:
               1
     1  Mg   0.981630
     2  C    0.000335
     3  C   -0.081779
     4  C   -0.096161
     5  C   -0.095113
     6  N   -0.306245
     7  C   -0.024310
     8  C   -0.021351
     9  C   -0.127939
    10  C    0.035968
    11  C    0.021142
    12  C    0.040672
    13  C   -0.047808
    14  C    0.218280
    15  O   -0.221360
    16  O   -0.387111
    17  N   -0.428194
    18  C    0.160852
    19  C   -0.179398
    20  C   -0.092148
    21  C    0.212625
    22  C    0.108595
    23  C    0.070179
    24  O   -0.263169
    25  C    0.007324
    26  N   -0.437768
    27  C    0.045479
    28  C   -0.115498
    29  C   -0.057260
    30  C    0.119844
    31  C    0.029319
    32  C   -0.030172
    33  C   -0.047140
    34  N   -0.339807
    35  C    0.075018
    36  C   -0.190616
    37  C    0.039605
    38  C    0.082988
    39  C    0.076803
    40  C    0.048516
    41  O   -0.220526
    42  C   -0.021959
    43  C    0.237355
    44  O   -0.256056
    45  O   -0.379646
    46  C    0.151125
    47  C    0.285381
    48  C   -0.146854
    49  C   -0.199095
    50  C    0.072699
    51  C   -0.004177
    52  C   -0.024923
    53  C    0.032546
    54  C   -0.209405
    55  C    0.007900
    56  C    0.010601
    57  C   -0.073470
    58  C    0.050061
    59  C   -0.202551
    60  C    0.005540
    61  C    0.025442
    62  C   -0.038219
    63  C    0.034509
    64  C   -0.221563
    65  C   -0.024057
    66  C    0.037667
    67  H   -0.000999
    68  H   -0.034702
    69  H   -0.013354
    70  H    0.038268
    71  H    0.048458
    72  H    0.038812
    73  H    0.050620
    74  H    0.027020
    75  H    0.041141
    76  H    0.050235
    77  H    0.060105
    78  H    0.054701
    79  H    0.063559
    80  H    0.011936
    81  H    0.073350
    82  H    0.060233
    83  H    0.046985
    84  H    0.061580
    85  H    0.038849
    86  H    0.036046
    87  H    0.037830
    88  H    0.037504
    89  H    0.039958
    90  H    0.021841
    91  H    0.041564
    92  H    0.043937
    93  H    0.029272
    94  H    0.035405
    95  H    0.052924
    96  H    0.044225
    97  H    0.053543
    98  H    0.050789
    99  H    0.086448
   100  H    0.043046
   101  H    0.053492
   102  H    0.037911
   103  H    0.042143
   104  H    0.020170
   105  H    0.069847
   106  H    0.042612
   107  H    0.026721
   108  H    0.002786
   109  H    0.017850
   110  H    0.009856
   111  H    0.013988
   112  H    0.019251
   113  H    0.021820
   114  H    0.024821
   115  H    0.018892
   116  H    0.020407
   117  H    0.030375
   118  H    0.023120
   119  H    0.025342
   120  H    0.027305
   121  H    0.014797
   122  H    0.011872
   123  H    0.014052
   124  H    0.016046
   125  H    0.025870
   126  H    0.023089
   127  H    0.029642
   128  H    0.008673
   129  H    0.027224
   130  H   -0.008651
   131  H    0.018268
   132  H    0.017314
   133  H    0.012976
   134  H    0.023856
   135  H    0.031228
   136  H    0.020802
   137  H    0.009864
   138  H    0.012448
   139  H    0.023276
   140  H    0.034363
 Sum of Mulliken charges =  -0.00000

 Dipole moment (field-independent basis, Debye):
    X=              0.6262    Y=             -2.8985    Z=              1.4469  Tot=              3.2995
 Quadrupole moment (field-independent basis, Debye-Ang):
   XX=           -360.9768   YY=           -438.7932   ZZ=           -401.6117
   XY=             14.0092   XZ=            -22.2812   YZ=            -24.5528

 Normal termination of Gaussian 16 at Thu May  5 05:47:43 2022.
