 Gaussian 16, Revision A.03,
 Gaussian 16:  ES64L-G16RevA.03 25-Dec-2016

 --------------------
 #p ZINDO=(nstates=5)
 --------------------

 -----------------------------
 step_651_chromophore_23 ZINDO
 -----------------------------
 Symbolic Z-matrix:
 Charge =  0 Multiplicity = 1

                         Standard orientation:
 ---------------------------------------------------------------------
 Center     Atomic      Atomic             Coordinates (Angstroms)
 Number     Number       Type             X           Y           Z
 ---------------------------------------------------------------------
      1         12           0       -4.953829   -0.142309   -0.335030
      2          6           0       -2.886928    2.654323   -0.100964
      3          6           0       -2.890649   -1.347921   -2.933524
      4          6           0       -6.403304   -3.106032   -0.083828
      5          6           0       -6.510418    1.014898    2.470316
      6          7           0       -2.981380    0.493609   -1.318073
      7          6           0       -2.319807    1.677504   -1.006231
      8          6           0       -1.007038    1.796143   -1.809151
      9          6           0       -1.106271    0.538779   -2.760558
     10          6           0       -2.427641   -0.128139   -2.347838
     11          6           0       -1.163265    0.908980   -4.257883
     12          6           0        0.391739    1.903840   -1.009849
     13          6           0        1.130362    3.244199   -1.042731
     14          6           0        2.476107    3.426152   -1.689089
     15          8           0        2.668293    3.812511   -2.798825
     16          8           0        3.472357    3.168915   -0.732321
     17          7           0       -4.797964   -1.914751   -1.470674
     18          6           0       -3.933004   -2.174701   -2.490740
     19          6           0       -4.108078   -3.579694   -2.938248
     20          6           0       -5.099430   -4.085302   -2.079840
     21          6           0       -5.510774   -3.020297   -1.186429
     22          6           0       -3.174114   -4.268314   -3.984941
     23          6           0       -5.469456   -5.617077   -2.040312
     24          8           0       -5.114779   -6.422605   -2.921496
     25          6           0       -6.323142   -6.230540   -1.113937
     26          7           0       -6.335212   -0.894596    0.982376
     27          6           0       -6.854522   -2.213173    0.853553
     28          6           0       -7.899855   -2.482518    1.935829
     29          6           0       -7.821433   -1.221191    2.860700
     30          6           0       -6.757069   -0.303674    2.104888
     31          6           0       -9.272702   -2.640025    1.261413
     32          6           0       -7.333529   -1.797669    4.209192
     33          6           0       -8.442631   -2.188472    5.232188
     34          7           0       -4.864365    1.584560    0.888971
     35          6           0       -5.554863    1.945963    1.944803
     36          6           0       -5.184793    3.189134    2.521968
     37          6           0       -4.086000    3.527313    1.710950
     38          6           0       -3.947383    2.513160    0.786317
     39          6           0       -5.873959    3.874204    3.606692
     40          6           0       -3.082790    4.475163    1.378559
     41          8           0       -2.906869    5.602648    1.838498
     42          6           0       -2.296559    3.979116    0.251471
     43          6           0       -2.565289    4.952562   -0.810115
     44          8           0       -3.614445    5.006254   -1.442810
     45          8           0       -1.509564    5.837189   -0.993970
     46          6           0       -1.692730    6.724311   -2.195207
     47          6           0        4.813709    3.607298   -1.075942
     48          6           0        5.810069    2.776315   -0.306713
     49          6           0        6.665111    1.787182   -0.711191
     50          6           0        6.765091    0.981575   -1.967432
     51          6           0        7.615773    1.252616    0.358555
     52          6           0        9.079818    1.659961    0.236540
     53          6           0       10.025783    1.086193    1.318209
     54          6           0       10.847117   -0.128110    0.730712
     55          6           0       12.253277    0.268581    0.342474
     56          6           0       10.923972   -1.291221    1.825906
     57          6           0        9.746579   -2.258639    1.492243
     58          6           0        9.255634   -3.016478    2.759422
     59          6           0        7.892145   -2.445813    3.196828
     60          6           0        7.849237   -2.082686    4.699304
     61          6           0        6.714201   -3.400628    2.698160
     62          6           0        6.140864   -2.984974    1.322264
     63          6           0        6.280491   -3.978658    0.169114
     64          6           0        6.817320   -3.308061   -1.168218
     65          6           0        5.888362   -3.640990   -2.398418
     66          6           0        8.164185   -3.692288   -1.533282
     67          1           0       -2.268161   -1.684947   -3.765923
     68          1           0       -6.785793   -4.090675    0.192856
     69          1           0       -6.988726    1.382748    3.380664
     70          1           0       -1.152203    2.724502   -2.360272
     71          1           0       -0.313887   -0.187901   -2.580061
     72          1           0       -0.187600    0.786762   -4.729461
     73          1           0       -1.599035    1.896760   -4.404139
     74          1           0       -1.728623    0.162287   -4.816717
     75          1           0        1.063142    1.188676   -1.484894
     76          1           0        0.267010    1.699897    0.054245
     77          1           0        1.264763    3.463132    0.017536
     78          1           0        0.455210    3.989139   -1.462545
     79          1           0       -2.487215   -4.911190   -3.435873
     80          1           0       -2.534345   -3.512864   -4.441216
     81          1           0       -3.766969   -4.741751   -4.768453
     82          1           0       -7.296089   -5.750676   -1.221855
     83          1           0       -6.080695   -6.073157   -0.063186
     84          1           0       -6.325801   -7.315968   -1.212642
     85          1           0       -7.670913   -3.409495    2.461170
     86          1           0       -8.838667   -0.832491    2.848745
     87          1           0       -9.772451   -3.424299    1.830202
     88          1           0       -9.165313   -2.974336    0.230040
     89          1           0       -9.847790   -1.713404    1.266128
     90          1           0       -6.867614   -0.951054    4.713102
     91          1           0       -6.578159   -2.579680    4.129972
     92          1           0       -8.219493   -1.719985    6.190781
     93          1           0       -8.394491   -3.269128    5.363912
     94          1           0       -9.473550   -1.971075    4.952488
     95          1           0       -5.944406    3.281040    4.519147
     96          1           0       -6.877616    4.195490    3.329224
     97          1           0       -5.387949    4.845087    3.703349
     98          1           0       -1.215016    4.021534    0.377524
     99          1           0       -2.555124    7.389680   -2.221080
    100          1           0       -1.634504    6.013061   -3.018723
    101          1           0       -0.717122    7.209597   -2.233895
    102          1           0        4.940082    4.640595   -0.755888
    103          1           0        5.093807    3.527255   -2.126119
    104          1           0        5.981907    3.040975    0.736898
    105          1           0        6.239764    0.037557   -1.825708
    106          1           0        7.833013    0.903587   -2.169295
    107          1           0        6.200029    1.517174   -2.730125
    108          1           0        7.651975    0.165927    0.432114
    109          1           0        7.234439    1.476569    1.355149
    110          1           0        9.129543    2.748863    0.260374
    111          1           0        9.472436    1.458934   -0.760244
    112          1           0        9.492621    0.829300    2.233882
    113          1           0       10.757991    1.838844    1.610956
    114          1           0       10.395769   -0.497165   -0.189877
    115          1           0       12.304878    1.285186   -0.046921
    116          1           0       12.616506   -0.344109   -0.483048
    117          1           0       13.000678    0.118281    1.121737
    118          1           0       10.852171   -0.787863    2.789942
    119          1           0       11.791140   -1.950824    1.794291
    120          1           0       10.127644   -3.001332    0.792388
    121          1           0        9.021041   -1.667305    0.934204
    122          1           0        9.985728   -2.845985    3.550452
    123          1           0        9.221160   -4.096459    2.612507
    124          1           0        7.768390   -1.475731    2.715075
    125          1           0        8.070984   -1.018463    4.778350
    126          1           0        8.667973   -2.630302    5.167902
    127          1           0        6.914182   -2.278547    5.223510
    128          1           0        5.889560   -3.153701    3.367243
    129          1           0        6.923470   -4.468928    2.759358
    130          1           0        6.654259   -2.088248    0.975496
    131          1           0        5.131267   -2.582644    1.408781
    132          1           0        5.297592   -4.398383   -0.046399
    133          1           0        6.920296   -4.762787    0.571380
    134          1           0        6.742625   -2.227926   -1.039557
    135          1           0        6.222786   -4.339604   -3.165790
    136          1           0        5.542693   -2.768122   -2.954398
    137          1           0        4.939260   -4.045223   -2.046590
    138          1           0        8.706225   -4.058367   -0.661878
    139          1           0        8.710932   -2.785189   -1.789458
    140          1           0        8.231703   -4.457600   -2.307039
 ---------------------------------------------------------------------

 SCF Done:  E(RZINDO/S) =  -474.591516518     A.U. after   19 cycles

 Excitation energies and oscillator strengths:

 Excited State   1:      Singlet-A      1.3117 eV  945.23 nm  f=0.5861  <S**2>=0.000
     175 ->178        -0.17204
     176 ->177         0.66630
 This state for optimization and/or second-order correction.
 Total Energy, E(CIS/TDA) =  -474.543313199
 Copying the excited state density for this state as the 1-particle RhoCI density.

 Excited State   2:      Singlet-A      1.9285 eV  642.90 nm  f=0.0293  <S**2>=0.000
     175 ->177         0.53291
     176 ->178         0.43176

 Excited State   3:      Singlet-A      2.8795 eV  430.58 nm  f=0.0006  <S**2>=0.000
     168 ->177         0.23875
     168 ->178         0.11357
     168 ->179        -0.43466
     168 ->180        -0.33585
     168 ->184         0.17759
     168 ->186        -0.21032
     168 ->187        -0.11478

 Excited State   4:      Singlet-A      2.8911 eV  428.85 nm  f=0.0079  <S**2>=0.000
     171 ->177         0.31133
     171 ->178         0.22235
     171 ->179         0.32115
     171 ->180        -0.31649
     171 ->186         0.15779
     171 ->188        -0.11098
     171 ->189         0.13231
     171 ->203        -0.13424

 Excited State   5:      Singlet-A      2.9146 eV  425.39 nm  f=0.5930  <S**2>=0.000
     175 ->177        -0.32141
     176 ->178         0.43927
     176 ->179         0.36549
     176 ->180        -0.17068

 The electronic state is 1-A.
 Alpha  occ. eigenvalues --   -1.89693  -1.82044  -1.79654  -1.73945  -1.72873
 Alpha  occ. eigenvalues --   -1.71435  -1.66586  -1.61414  -1.60809  -1.60349
 Alpha  occ. eigenvalues --   -1.55419  -1.51778  -1.48965  -1.48724  -1.47487
 Alpha  occ. eigenvalues --   -1.45280  -1.42838  -1.40748  -1.38738  -1.38518
 Alpha  occ. eigenvalues --   -1.36162  -1.35211  -1.32921  -1.31721  -1.28860
 Alpha  occ. eigenvalues --   -1.28432  -1.27259  -1.23396  -1.22008  -1.18430
 Alpha  occ. eigenvalues --   -1.17307  -1.16416  -1.15873  -1.13497  -1.12754
 Alpha  occ. eigenvalues --   -1.12665  -1.11581  -1.10167  -1.05593  -1.03936
 Alpha  occ. eigenvalues --   -1.02930  -1.02323  -0.98848  -0.97507  -0.96462
 Alpha  occ. eigenvalues --   -0.95007  -0.94616  -0.94429  -0.93613  -0.93446
 Alpha  occ. eigenvalues --   -0.92050  -0.90949  -0.88894  -0.88529  -0.87327
 Alpha  occ. eigenvalues --   -0.86582  -0.84121  -0.83683  -0.82507  -0.80700
 Alpha  occ. eigenvalues --   -0.79588  -0.78719  -0.77180  -0.76883  -0.76711
 Alpha  occ. eigenvalues --   -0.76244  -0.75540  -0.75153  -0.74406  -0.73800
 Alpha  occ. eigenvalues --   -0.72824  -0.72540  -0.72061  -0.71862  -0.71309
 Alpha  occ. eigenvalues --   -0.70624  -0.69746  -0.69416  -0.69047  -0.68302
 Alpha  occ. eigenvalues --   -0.67952  -0.66845  -0.66294  -0.65918  -0.65632
 Alpha  occ. eigenvalues --   -0.65106  -0.65056  -0.64554  -0.64079  -0.63611
 Alpha  occ. eigenvalues --   -0.63396  -0.63090  -0.62921  -0.62824  -0.62168
 Alpha  occ. eigenvalues --   -0.61898  -0.61505  -0.61083  -0.60704  -0.60405
 Alpha  occ. eigenvalues --   -0.59973  -0.59000  -0.58825  -0.58460  -0.58215
 Alpha  occ. eigenvalues --   -0.57858  -0.57377  -0.56859  -0.56818  -0.56572
 Alpha  occ. eigenvalues --   -0.56198  -0.55373  -0.55244  -0.55161  -0.54786
 Alpha  occ. eigenvalues --   -0.54530  -0.54263  -0.53755  -0.53614  -0.53216
 Alpha  occ. eigenvalues --   -0.53120  -0.52692  -0.52085  -0.51835  -0.51502
 Alpha  occ. eigenvalues --   -0.51473  -0.51092  -0.50850  -0.50616  -0.50466
 Alpha  occ. eigenvalues --   -0.50273  -0.49787  -0.49121  -0.49036  -0.48683
 Alpha  occ. eigenvalues --   -0.48385  -0.48261  -0.48226  -0.47847  -0.47589
 Alpha  occ. eigenvalues --   -0.47344  -0.47170  -0.46972  -0.46751  -0.46686
 Alpha  occ. eigenvalues --   -0.46599  -0.46192  -0.45551  -0.45538  -0.44939
 Alpha  occ. eigenvalues --   -0.44711  -0.44671  -0.44361  -0.44276  -0.43987
 Alpha  occ. eigenvalues --   -0.43554  -0.43189  -0.43071  -0.42584  -0.42465
 Alpha  occ. eigenvalues --   -0.41873  -0.41035  -0.40990  -0.39449  -0.39186
 Alpha  occ. eigenvalues --   -0.37737  -0.37341  -0.35449  -0.34796  -0.34486
 Alpha  occ. eigenvalues --   -0.34102  -0.32797  -0.32567  -0.32106  -0.26847
 Alpha  occ. eigenvalues --   -0.21951
 Alpha virt. eigenvalues --   -0.08395  -0.02381  -0.00691   0.01079   0.01756
 Alpha virt. eigenvalues --    0.01925   0.02962   0.03329   0.04353   0.04678
 Alpha virt. eigenvalues --    0.05711   0.06425   0.06533   0.07168   0.08049

 Mulliken charges:
               1
     1  Mg   0.430388
     2  C   -0.019529
     3  C   -0.066563
     4  C   -0.102967
     5  C   -0.087742
     6  N   -0.258937
     7  C    0.061247
     8  C   -0.000856
     9  C    0.008260
    10  C    0.153438
    11  C   -0.051442
    12  C   -0.020709
    13  C    0.000264
    14  C    0.474899
    15  O   -0.493626
    16  O   -0.277621
    17  N   -0.316712
    18  C    0.120455
    19  C    0.042595
    20  C   -0.048033
    21  C    0.165637
    22  C   -0.031934
    23  C    0.331534
    24  O   -0.538576
    25  C   -0.011263
    26  N   -0.296902
    27  C    0.153073
    28  C    0.000757
    29  C   -0.005011
    30  C    0.105643
    31  C   -0.050998
    32  C   -0.028087
    33  C   -0.059525
    34  N   -0.296418
    35  C    0.098035
    36  C    0.008291
    37  C   -0.053121
    38  C    0.100808
    39  C   -0.034321
    40  C    0.349050
    41  O   -0.547587
    42  C    0.066474
    43  C    0.498002
    44  O   -0.534556
    45  O   -0.279175
    46  C    0.072467
    47  C    0.110974
    48  C   -0.096571
    49  C   -0.003809
    50  C   -0.039513
    51  C   -0.024716
    52  C   -0.027071
    53  C   -0.032752
    54  C   -0.015239
    55  C   -0.055816
    56  C   -0.045037
    57  C   -0.045213
    58  C   -0.033084
    59  C   -0.014282
    60  C   -0.060673
    61  C   -0.036918
    62  C   -0.042045
    63  C   -0.036309
    64  C   -0.000936
    65  C   -0.067496
    66  C   -0.045941
    67  H    0.034606
    68  H    0.016100
    69  H    0.014033
    70  H    0.037913
    71  H    0.036880
    72  H    0.019861
    73  H    0.035164
    74  H    0.016780
    75  H    0.026584
    76  H    0.030874
    77  H    0.031460
    78  H    0.040744
    79  H    0.043676
    80  H    0.018606
    81  H    0.049580
    82  H    0.044175
    83  H    0.023229
    84  H    0.042194
    85  H    0.033542
    86  H    0.044225
    87  H    0.016504
    88  H    0.020710
    89  H    0.028791
    90  H    0.007333
    91  H    0.031734
    92  H    0.021840
    93  H    0.012084
    94  H    0.023936
    95  H    0.033377
    96  H    0.028033
    97  H    0.028255
    98  H    0.050946
    99  H    0.068863
   100  H    0.035563
   101  H    0.028222
   102  H    0.040957
   103  H    0.051282
   104  H    0.026431
   105  H    0.037393
   106  H    0.037289
   107  H    0.020292
   108  H    0.014255
   109  H    0.015342
   110  H    0.008686
   111  H    0.019684
   112  H    0.023826
   113  H    0.017580
   114  H    0.025625
   115  H    0.013074
   116  H    0.007062
   117  H    0.019777
   118  H    0.026658
   119  H    0.022758
   120  H    0.011907
   121  H    0.027929
   122  H    0.016568
   123  H    0.020174
   124  H    0.020501
   125  H    0.015688
   126  H    0.017401
   127  H    0.022853
   128  H    0.008952
   129  H    0.032329
   130  H    0.012073
   131  H    0.016589
   132  H    0.018065
   133  H    0.024254
   134  H    0.023933
   135  H    0.023930
   136  H    0.011324
   137  H    0.007770
   138  H    0.009024
   139  H    0.012728
   140  H    0.024961
 Sum of Mulliken charges =  -0.00000

 Dipole moment (field-independent basis, Debye):
    X=              1.5453    Y=             -6.3105    Z=              1.6376  Tot=              6.7002
 N-N= 4.463335355466D+03 E-N= 0.000000000000D+00  KE=-9.600746333227D+03
 Leave Link  601 at Thu May  5 06:01:53 2022, MaxMem=  6710886400 cpu:               1.1 elap:               0.1
 (Enter /sw/apps/gaussian-16.0/g16/l9999.exe)
 1\1\GINC-BP1-COMPUTE067\SP\RZINDO CIS\STO-3G\C55H74Mg1N4O6\OF15641\05-
 May-2022\0\\#p ZINDO=(nstates=5)\\step_651_chromophore_23 ZINDO\\0,1\M
 g,0,-10.305,40.432,43.096\C,0,-8.845,37.556,41.775\C,0,-7.796,42.338,4
 1.504\C,0,-12.052,43.181,43.678\C,0,-12.85,38.421,44.15\N,0,-8.582,40.
 02,41.639\C,0,-8.219,38.741,41.228\C,0,-7.051,38.803,40.221\C,0,-6.699
 ,40.343,40.243\C,0,-7.724,40.938,41.221\C,0,-5.272,40.636,40.753\C,0,-
 7.264,38.201,38.738\C,0,-6.518,36.914,38.377\C,0,-5.454,36.85,37.316\O

 Normal termination of Gaussian 16 at Thu May  5 06:01:53 2022.
