 Gaussian 16, Revision A.03,
 Gaussian 16:  ES64L-G16RevA.03 25-Dec-2016

 ------------------------------
 #p blyp/Def2SVP td=(nstates=5)
 ------------------------------

 -------------------------------------------------
 step_401_chromophore_6 TDDFT with blyp functional
 -------------------------------------------------
 Symbolic Z-matrix:
 Charge =  0 Multiplicity = 1

                         Standard orientation:
 ---------------------------------------------------------------------
 Center     Atomic      Atomic             Coordinates (Angstroms)
 Number     Number       Type             X           Y           Z
 ---------------------------------------------------------------------
      1         12           0       -5.286639    1.022299   -0.296806
      2          6           0       -4.436740   -2.339135   -0.189251
      3          6           0       -1.998842    1.939876   -0.330671
      4          6           0       -6.318587    4.234302    0.304059
      5          6           0       -8.685935    0.032706   -0.069778
      6          7           0       -3.430864   -0.101520   -0.042046
      7          6           0       -3.296614   -1.454478   -0.109581
      8          6           0       -1.765879   -1.855207   -0.356407
      9          6           0       -0.990999   -0.464732   -0.203563
     10          6           0       -2.181611    0.541523   -0.204952
     11          6           0        0.002826   -0.372896    1.041947
     12          6           0       -1.469760   -2.534979   -1.720299
     13          6           0       -0.493328   -3.730347   -1.702887
     14          6           0        0.286978   -4.158642   -0.420949
     15          8           0       -0.014485   -4.956534    0.437170
     16          8           0        1.528064   -3.595089   -0.328035
     17          7           0       -4.347456    2.855697   -0.329051
     18          6           0       -2.990662    2.972368   -0.334107
     19          6           0       -2.766884    4.418269   -0.499583
     20          6           0       -4.006608    5.101762   -0.298928
     21          6           0       -4.964957    4.035354   -0.121493
     22          6           0       -1.360968    4.945052   -0.546669
     23          6           0       -4.228491    6.581427   -0.378062
     24          8           0       -5.339143    7.134331   -0.270552
     25          6           0       -3.126163    7.529426   -0.719461
     26          7           0       -7.157327    1.996533   -0.015377
     27          6           0       -7.294748    3.247947    0.439183
     28          6           0       -8.803261    3.624010    0.593305
     29          6           0       -9.537701    2.287176    0.283051
     30          6           0       -8.403093    1.373399    0.022683
     31          6           0       -9.129159    4.228588    1.909573
     32          6           0      -10.532041    2.466547   -0.870046
     33          6           0      -11.975524    2.747574   -0.507805
     34          7           0       -6.363010   -0.796258   -0.157363
     35          6           0       -7.780345   -0.998749   -0.128667
     36          6           0       -8.006965   -2.401856    0.022023
     37          6           0       -6.694634   -2.994026   -0.099661
     38          6           0       -5.760397   -1.961724   -0.163340
     39          6           0       -9.358200   -3.128744    0.212782
     40          6           0       -5.928470   -4.282565    0.023226
     41          8           0       -6.309372   -5.426409    0.151012
     42          6           0       -4.457883   -3.902010   -0.112014
     43          6           0       -3.773942   -4.371267    1.095462
     44          8           0       -3.699835   -3.763614    2.192713
     45          8           0       -3.267512   -5.687251    0.818160
     46          6           0       -2.623302   -6.336413    2.020573
     47          6           0        2.381470   -4.035924    0.815975
     48          6           0        3.602660   -3.214623    0.666397
     49          6           0        4.834428   -3.601150    0.416836
     50          6           0        5.207777   -5.078686    0.133102
     51          6           0        6.082232   -2.669247    0.435486
     52          6           0        6.488844   -1.960270   -0.933106
     53          6           0        7.923024   -2.205394   -1.379016
     54          6           0        8.621767   -0.843631   -1.592888
     55          6           0        8.177734    0.043586   -2.755516
     56          6           0       10.191959   -1.020719   -1.707545
     57          6           0       10.983391   -0.256251   -0.636144
     58          6           0       12.515918   -0.662223   -0.426488
     59          6           0       13.407178    0.607658   -0.350572
     60          6           0       14.194619    0.749156   -1.640032
     61          6           0       14.275593    0.444180    0.916285
     62          6           0       13.879664    1.561760    1.934590
     63          6           0       14.262164    2.993326    1.448095
     64          6           0       13.200075    4.202963    1.580287
     65          6           0       13.597455    5.388022    2.556172
     66          6           0       12.617435    4.701569    0.178848
     67          1           0       -0.934307    2.179750   -0.374616
     68          1           0       -6.615666    5.269566    0.484235
     69          1           0       -9.720317   -0.315564   -0.060354
     70          1           0       -1.378453   -2.578597    0.359559
     71          1           0       -0.341692   -0.293521   -1.060915
     72          1           0       -0.101801    0.604231    1.513014
     73          1           0        1.077958   -0.485142    0.904767
     74          1           0       -0.287815   -1.195317    1.695385
     75          1           0       -1.071058   -1.868710   -2.485698
     76          1           0       -2.331682   -3.079089   -2.108201
     77          1           0        0.199452   -3.740456   -2.544204
     78          1           0       -1.115902   -4.600874   -1.908379
     79          1           0       -1.174021    5.448679   -1.494950
     80          1           0       -0.731728    4.056353   -0.608901
     81          1           0       -1.075478    5.613257    0.264329
     82          1           0       -2.260579    7.320828   -0.091096
     83          1           0       -3.415651    8.547280   -0.457625
     84          1           0       -2.831102    7.428585   -1.764436
     85          1           0       -8.889572    4.391160   -0.176039
     86          1           0       -9.975017    1.925290    1.213429
     87          1           0       -9.200841    5.316152    1.933620
     88          1           0       -8.356836    3.992156    2.642425
     89          1           0      -10.144666    3.898496    2.127523
     90          1           0      -10.531971    1.585464   -1.511727
     91          1           0      -10.084045    3.225583   -1.511359
     92          1           0      -12.089631    2.482664    0.543108
     93          1           0      -12.578567    2.075208   -1.117835
     94          1           0      -12.250267    3.781487   -0.715043
     95          1           0      -10.182227   -2.597433   -0.262672
     96          1           0       -9.551495   -3.328862    1.267603
     97          1           0       -9.382931   -4.143468   -0.185527
     98          1           0       -4.011046   -4.315307   -1.015335
     99          1           0       -1.627281   -5.909220    2.134737
    100          1           0       -2.508640   -7.386800    1.753578
    101          1           0       -3.269170   -6.323439    2.898564
    102          1           0        2.543163   -5.113500    0.761872
    103          1           0        1.901843   -3.951303    1.791253
    104          1           0        3.385887   -2.164896    0.864001
    105          1           0        4.367073   -5.769152    0.061280
    106          1           0        5.923906   -5.447383    0.867483
    107          1           0        5.776168   -5.147799   -0.794476
    108          1           0        7.006064   -3.130179    0.785353
    109          1           0        5.814335   -1.845578    1.096937
    110          1           0        6.298993   -0.901721   -0.755386
    111          1           0        5.833987   -2.160863   -1.780714
    112          1           0        7.835828   -2.709907   -2.341416
    113          1           0        8.581011   -2.854898   -0.802316
    114          1           0        8.453368   -0.359939   -0.630725
    115          1           0        8.826262   -0.102013   -3.619241
    116          1           0        8.077299    1.104308   -2.520998
    117          1           0        7.180631   -0.197768   -3.123177
    118          1           0       10.664553   -0.927479   -2.685103
    119          1           0       10.439766   -2.070817   -1.556177
    120          1           0       10.418390   -0.264437    0.295726
    121          1           0       10.888730    0.794222   -0.909603
    122          1           0       12.773182   -1.172862   -1.353061
    123          1           0       12.562831   -1.352882    0.415581
    124          1           0       12.727287    1.453634   -0.251704
    125          1           0       14.921815   -0.052290   -1.772979
    126          1           0       14.686185    1.721871   -1.620636
    127          1           0       13.464397    0.802781   -2.447524
    128          1           0       15.346850    0.603707    0.790478
    129          1           0       14.191271   -0.527208    1.403331
    130          1           0       14.360708    1.466490    2.908057
    131          1           0       12.823659    1.357527    2.112711
    132          1           0       14.757650    2.870697    0.485221
    133          1           0       15.081100    3.163919    2.147982
    134          1           0       12.333447    3.834905    2.131265
    135          1           0       14.637446    5.276188    2.863433
    136          1           0       13.027255    5.383593    3.485237
    137          1           0       13.382120    6.325907    2.044443
    138          1           0       11.531092    4.616114    0.171603
    139          1           0       12.881737    4.133878   -0.713469
    140          1           0       12.830303    5.760690    0.036520
 ---------------------------------------------------------------------

 SCF Done:  E(RB-LYP) =  -3007.37310454     A.U. after   21 cycles

 Excitation energies and oscillator strengths:

 Excited State   1:      Singlet-A      1.7500 eV  708.50 nm  f=0.0275  <S**2>=0.000
     244 -> 247        0.66235
     245 -> 247       -0.11772
     246 -> 247       -0.21211
 This state for optimization and/or second-order correction.
 Total Energy, E(TD-HF/TD-DFT) =  -3007.30879454
 Copying the excited state density for this state as the 1-particle RhoCI density.

 Excited State   2:      Singlet-A      1.8099 eV  685.04 nm  f=0.2784  <S**2>=0.000
     244 -> 247        0.21865
     245 -> 248        0.19202
     246 -> 247        0.65386
     246 <- 247       -0.14160

 Excited State   3:      Singlet-A      1.9436 eV  637.90 nm  f=0.0106  <S**2>=0.000
     243 -> 247        0.68117
     245 -> 247        0.16584

 Excited State   4:      Singlet-A      2.0331 eV  609.83 nm  f=0.0643  <S**2>=0.000
     243 -> 247       -0.17697
     244 -> 247        0.10475
     245 -> 247        0.61240
     246 -> 248       -0.25912

 Excited State   5:      Singlet-A      2.4326 eV  509.68 nm  f=0.0044  <S**2>=0.000
     242 -> 247        0.68542

 The electronic state is 1-A.
 Alpha  occ. eigenvalues --  -46.26663 -18.81674 -18.80537 -18.77171 -18.76439
 Alpha  occ. eigenvalues --  -18.75744 -18.74928 -14.04045 -14.03111 -14.01212
 Alpha  occ. eigenvalues --  -14.00164 -10.04447 -10.03266  -9.99753  -9.99451
 Alpha  occ. eigenvalues --   -9.97908  -9.97772  -9.97357  -9.96202  -9.95917
 Alpha  occ. eigenvalues --   -9.95878  -9.95814  -9.95753  -9.95164  -9.95076
 Alpha  occ. eigenvalues --   -9.95020  -9.94273  -9.94157  -9.94033  -9.93934
 Alpha  occ. eigenvalues --   -9.93898  -9.93802  -9.93773  -9.93765  -9.93730
 Alpha  occ. eigenvalues --   -9.93036  -9.93031  -9.92965  -9.92905  -9.92705
 Alpha  occ. eigenvalues --   -9.92667  -9.92655  -9.92471  -9.92446  -9.92387
 Alpha  occ. eigenvalues --   -9.92355  -9.92353  -9.92144  -9.92091  -9.91956
 Alpha  occ. eigenvalues --   -9.91803  -9.91750  -9.91619  -9.91518  -9.91465
 Alpha  occ. eigenvalues --   -9.91439  -9.91291  -9.91259  -9.91250  -9.91218
 Alpha  occ. eigenvalues --   -9.91170  -9.91149  -9.91078  -9.91055  -9.90925
 Alpha  occ. eigenvalues --   -9.90918  -2.91319  -1.71760  -1.71190  -1.71029
 Alpha  occ. eigenvalues --   -0.98468  -0.93801  -0.91677  -0.90107  -0.89549
 Alpha  occ. eigenvalues --   -0.87180  -0.86559  -0.85848  -0.85520  -0.84388
 Alpha  occ. eigenvalues --   -0.75199  -0.73700  -0.73282  -0.73130  -0.72814
 Alpha  occ. eigenvalues --   -0.72110  -0.71742  -0.70922  -0.70187  -0.69806
 Alpha  occ. eigenvalues --   -0.69521  -0.68795  -0.68176  -0.67827  -0.66876
 Alpha  occ. eigenvalues --   -0.66418  -0.65600  -0.65206  -0.64751  -0.64125
 Alpha  occ. eigenvalues --   -0.63944  -0.62556  -0.62226  -0.62061  -0.60884
 Alpha  occ. eigenvalues --   -0.60057  -0.59985  -0.59896  -0.59478  -0.59023
 Alpha  occ. eigenvalues --   -0.58379  -0.57758  -0.56858  -0.55923  -0.54329
 Alpha  occ. eigenvalues --   -0.54001  -0.53473  -0.52665  -0.52109  -0.51738
 Alpha  occ. eigenvalues --   -0.51444  -0.51209  -0.50967  -0.50146  -0.50061
 Alpha  occ. eigenvalues --   -0.49723  -0.49432  -0.48996  -0.47158  -0.47035
 Alpha  occ. eigenvalues --   -0.46607  -0.45982  -0.45475  -0.45330  -0.44270
 Alpha  occ. eigenvalues --   -0.43773  -0.43274  -0.43009  -0.42690  -0.42312
 Alpha  occ. eigenvalues --   -0.41943  -0.41541  -0.41175  -0.41093  -0.40982
 Alpha  occ. eigenvalues --   -0.40579  -0.40414  -0.40336  -0.39984  -0.39840
 Alpha  occ. eigenvalues --   -0.39790  -0.39556  -0.39201  -0.39166  -0.39010
 Alpha  occ. eigenvalues --   -0.38842  -0.38682  -0.38418  -0.38284  -0.38265
 Alpha  occ. eigenvalues --   -0.37994  -0.37731  -0.37668  -0.37512  -0.37057
 Alpha  occ. eigenvalues --   -0.36867  -0.36682  -0.36541  -0.36301  -0.36226
 Alpha  occ. eigenvalues --   -0.36142  -0.36006  -0.35967  -0.35827  -0.35552
 Alpha  occ. eigenvalues --   -0.35402  -0.35291  -0.35150  -0.35089  -0.34579
 Alpha  occ. eigenvalues --   -0.34338  -0.34332  -0.34084  -0.33880  -0.33856
 Alpha  occ. eigenvalues --   -0.33524  -0.33389  -0.33189  -0.32933  -0.32814
 Alpha  occ. eigenvalues --   -0.32635  -0.32500  -0.32469  -0.32207  -0.32142
 Alpha  occ. eigenvalues --   -0.31924  -0.31782  -0.31650  -0.31593  -0.31566
 Alpha  occ. eigenvalues --   -0.31285  -0.31209  -0.30862  -0.30824  -0.30815
 Alpha  occ. eigenvalues --   -0.30568  -0.30276  -0.30123  -0.29873  -0.29655
 Alpha  occ. eigenvalues --   -0.29635  -0.29537  -0.29458  -0.29332  -0.28998
 Alpha  occ. eigenvalues --   -0.28667  -0.28442  -0.28405  -0.28180  -0.27984
 Alpha  occ. eigenvalues --   -0.27691  -0.27419  -0.27384  -0.26620  -0.26599
 Alpha  occ. eigenvalues --   -0.26035  -0.25888  -0.25729  -0.25426  -0.25388
 Alpha  occ. eigenvalues --   -0.25337  -0.24984  -0.24236  -0.23787  -0.23579
 Alpha  occ. eigenvalues --   -0.23223  -0.22714  -0.21878  -0.21197  -0.21027
 Alpha  occ. eigenvalues --   -0.20541  -0.20044  -0.18755  -0.18098  -0.17429
 Alpha  occ. eigenvalues --   -0.15991
 Alpha virt. eigenvalues --   -0.11708  -0.06971  -0.06289  -0.04903  -0.03536
 Alpha virt. eigenvalues --   -0.02680  -0.02183  -0.02146  -0.01341   0.00236
 Alpha virt. eigenvalues --    0.01055   0.01639   0.02348   0.02626   0.02703

 Mulliken charges:
               1
     1  Mg   0.687876
     2  C   -0.031862
     3  C   -0.040932
     4  C   -0.057509
     5  C   -0.093983
     6  N   -0.243002
     7  C   -0.004627
     8  C   -0.007682
     9  C    0.009460
    10  C    0.003893
    11  C    0.092552
    12  C    0.138321
    13  C    0.102088
    14  C    0.053803
    15  O   -0.184514
    16  O   -0.279538
    17  N   -0.287526
    18  C    0.160666
    19  C   -0.158708
    20  C    0.058179
    21  C    0.093103
    22  C    0.179988
    23  C   -0.087017
    24  O   -0.191439
    25  C    0.148557
    26  N   -0.221259
    27  C    0.046733
    28  C   -0.030091
    29  C    0.077470
    30  C    0.038332
    31  C    0.147321
    32  C    0.087626
    33  C    0.100547
    34  N   -0.260174
    35  C    0.127657
    36  C   -0.155818
    37  C    0.041475
    38  C    0.090436
    39  C    0.157509
    40  C   -0.043023
    41  O   -0.109843
    42  C    0.091468
    43  C    0.157259
    44  O   -0.215214
    45  O   -0.312551
    46  C    0.223202
    47  C    0.303660
    48  C   -0.068909
    49  C   -0.093340
    50  C    0.129250
    51  C    0.131034
    52  C    0.061380
    53  C    0.100068
    54  C   -0.073930
    55  C    0.138383
    56  C    0.089402
    57  C    0.017843
    58  C    0.137101
    59  C   -0.087144
    60  C    0.124390
    61  C    0.115206
    62  C    0.014572
    63  C    0.105756
    64  C   -0.057070
    65  C    0.083500
    66  C    0.079990
    67  H   -0.052084
    68  H   -0.039674
    69  H   -0.065631
    70  H    0.009603
    71  H   -0.018507
    72  H   -0.007526
    73  H   -0.001898
    74  H    0.004230
    75  H   -0.012287
    76  H   -0.017593
    77  H   -0.005063
    78  H   -0.005269
    79  H   -0.013278
    80  H   -0.038553
    81  H    0.022939
    82  H   -0.021797
    83  H   -0.007047
    84  H    0.015428
    85  H   -0.010731
    86  H   -0.032979
    87  H   -0.014061
    88  H   -0.004130
    89  H   -0.015062
    90  H   -0.034234
    91  H   -0.031822
    92  H   -0.010140
    93  H   -0.008429
    94  H    0.001334
    95  H   -0.003754
    96  H    0.007089
    97  H   -0.000884
    98  H    0.004025
    99  H    0.027369
   100  H    0.000017
   101  H    0.017285
   102  H   -0.021057
   103  H    0.003992
   104  H   -0.046434
   105  H   -0.009933
   106  H   -0.006582
   107  H   -0.011515
   108  H   -0.024635
   109  H   -0.029486
   110  H   -0.026358
   111  H   -0.021737
   112  H   -0.041162
   113  H   -0.021526
   114  H   -0.037793
   115  H   -0.015103
   116  H   -0.014219
   117  H   -0.035692
   118  H   -0.038355
   119  H   -0.058255
   120  H   -0.036548
   121  H   -0.040250
   122  H   -0.040365
   123  H   -0.023363
   124  H   -0.009695
   125  H   -0.006204
   126  H   -0.019856
   127  H   -0.021590
   128  H   -0.044835
   129  H   -0.036001
   130  H   -0.038648
   131  H   -0.030990
   132  H   -0.026788
   133  H   -0.042155
   134  H   -0.029412
   135  H   -0.012471
   136  H   -0.012816
   137  H   -0.015167
   138  H   -0.020642
   139  H   -0.008481
   140  H   -0.015111
 Sum of Mulliken charges =  -0.00000

 Dipole moment (field-independent basis, Debye):
    X=              3.9397    Y=              1.4454    Z=             -2.3336  Tot=              4.8017
 Quadrupole moment (field-independent basis, Debye-Ang):
   XX=           -380.8549   YY=           -441.8257   ZZ=           -403.4587
   XY=            -17.4638   XZ=              8.4928   YZ=              4.4316

 Normal termination of Gaussian 16 at Fri Apr 29 18:45:52 2022.
