 Gaussian 16, Revision A.03,
 Gaussian 16:  ES64L-G16RevA.03 25-Dec-2016

 -----------------------------------
 #p cam-b3lyp/Def2SVP td=(nstates=5)
 -----------------------------------

 ------------------------------------------------------
 step_401_chromophore_6 TDDFT with cam-b3lyp functional
 ------------------------------------------------------
 Symbolic Z-matrix:
 Charge =  0 Multiplicity = 1

                         Standard orientation:
 ---------------------------------------------------------------------
 Center     Atomic      Atomic             Coordinates (Angstroms)
 Number     Number       Type             X           Y           Z
 ---------------------------------------------------------------------
      1         12           0       -5.286639    1.022299   -0.296806
      2          6           0       -4.436740   -2.339135   -0.189251
      3          6           0       -1.998842    1.939876   -0.330671
      4          6           0       -6.318587    4.234302    0.304059
      5          6           0       -8.685935    0.032706   -0.069778
      6          7           0       -3.430864   -0.101520   -0.042046
      7          6           0       -3.296614   -1.454478   -0.109581
      8          6           0       -1.765879   -1.855207   -0.356407
      9          6           0       -0.990999   -0.464732   -0.203563
     10          6           0       -2.181611    0.541523   -0.204952
     11          6           0        0.002826   -0.372896    1.041947
     12          6           0       -1.469760   -2.534979   -1.720299
     13          6           0       -0.493328   -3.730347   -1.702887
     14          6           0        0.286978   -4.158642   -0.420949
     15          8           0       -0.014485   -4.956534    0.437170
     16          8           0        1.528064   -3.595089   -0.328035
     17          7           0       -4.347456    2.855697   -0.329051
     18          6           0       -2.990662    2.972368   -0.334107
     19          6           0       -2.766884    4.418269   -0.499583
     20          6           0       -4.006608    5.101762   -0.298928
     21          6           0       -4.964957    4.035354   -0.121493
     22          6           0       -1.360968    4.945052   -0.546669
     23          6           0       -4.228491    6.581427   -0.378062
     24          8           0       -5.339143    7.134331   -0.270552
     25          6           0       -3.126163    7.529426   -0.719461
     26          7           0       -7.157327    1.996533   -0.015377
     27          6           0       -7.294748    3.247947    0.439183
     28          6           0       -8.803261    3.624010    0.593305
     29          6           0       -9.537701    2.287176    0.283051
     30          6           0       -8.403093    1.373399    0.022683
     31          6           0       -9.129159    4.228588    1.909573
     32          6           0      -10.532041    2.466547   -0.870046
     33          6           0      -11.975524    2.747574   -0.507805
     34          7           0       -6.363010   -0.796258   -0.157363
     35          6           0       -7.780345   -0.998749   -0.128667
     36          6           0       -8.006965   -2.401856    0.022023
     37          6           0       -6.694634   -2.994026   -0.099661
     38          6           0       -5.760397   -1.961724   -0.163340
     39          6           0       -9.358200   -3.128744    0.212782
     40          6           0       -5.928470   -4.282565    0.023226
     41          8           0       -6.309372   -5.426409    0.151012
     42          6           0       -4.457883   -3.902010   -0.112014
     43          6           0       -3.773942   -4.371267    1.095462
     44          8           0       -3.699835   -3.763614    2.192713
     45          8           0       -3.267512   -5.687251    0.818160
     46          6           0       -2.623302   -6.336413    2.020573
     47          6           0        2.381470   -4.035924    0.815975
     48          6           0        3.602660   -3.214623    0.666397
     49          6           0        4.834428   -3.601150    0.416836
     50          6           0        5.207777   -5.078686    0.133102
     51          6           0        6.082232   -2.669247    0.435486
     52          6           0        6.488844   -1.960270   -0.933106
     53          6           0        7.923024   -2.205394   -1.379016
     54          6           0        8.621767   -0.843631   -1.592888
     55          6           0        8.177734    0.043586   -2.755516
     56          6           0       10.191959   -1.020719   -1.707545
     57          6           0       10.983391   -0.256251   -0.636144
     58          6           0       12.515918   -0.662223   -0.426488
     59          6           0       13.407178    0.607658   -0.350572
     60          6           0       14.194619    0.749156   -1.640032
     61          6           0       14.275593    0.444180    0.916285
     62          6           0       13.879664    1.561760    1.934590
     63          6           0       14.262164    2.993326    1.448095
     64          6           0       13.200075    4.202963    1.580287
     65          6           0       13.597455    5.388022    2.556172
     66          6           0       12.617435    4.701569    0.178848
     67          1           0       -0.934307    2.179750   -0.374616
     68          1           0       -6.615666    5.269566    0.484235
     69          1           0       -9.720317   -0.315564   -0.060354
     70          1           0       -1.378453   -2.578597    0.359559
     71          1           0       -0.341692   -0.293521   -1.060915
     72          1           0       -0.101801    0.604231    1.513014
     73          1           0        1.077958   -0.485142    0.904767
     74          1           0       -0.287815   -1.195317    1.695385
     75          1           0       -1.071058   -1.868710   -2.485698
     76          1           0       -2.331682   -3.079089   -2.108201
     77          1           0        0.199452   -3.740456   -2.544204
     78          1           0       -1.115902   -4.600874   -1.908379
     79          1           0       -1.174021    5.448679   -1.494950
     80          1           0       -0.731728    4.056353   -0.608901
     81          1           0       -1.075478    5.613257    0.264329
     82          1           0       -2.260579    7.320828   -0.091096
     83          1           0       -3.415651    8.547280   -0.457625
     84          1           0       -2.831102    7.428585   -1.764436
     85          1           0       -8.889572    4.391160   -0.176039
     86          1           0       -9.975017    1.925290    1.213429
     87          1           0       -9.200841    5.316152    1.933620
     88          1           0       -8.356836    3.992156    2.642425
     89          1           0      -10.144666    3.898496    2.127523
     90          1           0      -10.531971    1.585464   -1.511727
     91          1           0      -10.084045    3.225583   -1.511359
     92          1           0      -12.089631    2.482664    0.543108
     93          1           0      -12.578567    2.075208   -1.117835
     94          1           0      -12.250267    3.781487   -0.715043
     95          1           0      -10.182227   -2.597433   -0.262672
     96          1           0       -9.551495   -3.328862    1.267603
     97          1           0       -9.382931   -4.143468   -0.185527
     98          1           0       -4.011046   -4.315307   -1.015335
     99          1           0       -1.627281   -5.909220    2.134737
    100          1           0       -2.508640   -7.386800    1.753578
    101          1           0       -3.269170   -6.323439    2.898564
    102          1           0        2.543163   -5.113500    0.761872
    103          1           0        1.901843   -3.951303    1.791253
    104          1           0        3.385887   -2.164896    0.864001
    105          1           0        4.367073   -5.769152    0.061280
    106          1           0        5.923906   -5.447383    0.867483
    107          1           0        5.776168   -5.147799   -0.794476
    108          1           0        7.006064   -3.130179    0.785353
    109          1           0        5.814335   -1.845578    1.096937
    110          1           0        6.298993   -0.901721   -0.755386
    111          1           0        5.833987   -2.160863   -1.780714
    112          1           0        7.835828   -2.709907   -2.341416
    113          1           0        8.581011   -2.854898   -0.802316
    114          1           0        8.453368   -0.359939   -0.630725
    115          1           0        8.826262   -0.102013   -3.619241
    116          1           0        8.077299    1.104308   -2.520998
    117          1           0        7.180631   -0.197768   -3.123177
    118          1           0       10.664553   -0.927479   -2.685103
    119          1           0       10.439766   -2.070817   -1.556177
    120          1           0       10.418390   -0.264437    0.295726
    121          1           0       10.888730    0.794222   -0.909603
    122          1           0       12.773182   -1.172862   -1.353061
    123          1           0       12.562831   -1.352882    0.415581
    124          1           0       12.727287    1.453634   -0.251704
    125          1           0       14.921815   -0.052290   -1.772979
    126          1           0       14.686185    1.721871   -1.620636
    127          1           0       13.464397    0.802781   -2.447524
    128          1           0       15.346850    0.603707    0.790478
    129          1           0       14.191271   -0.527208    1.403331
    130          1           0       14.360708    1.466490    2.908057
    131          1           0       12.823659    1.357527    2.112711
    132          1           0       14.757650    2.870697    0.485221
    133          1           0       15.081100    3.163919    2.147982
    134          1           0       12.333447    3.834905    2.131265
    135          1           0       14.637446    5.276188    2.863433
    136          1           0       13.027255    5.383593    3.485237
    137          1           0       13.382120    6.325907    2.044443
    138          1           0       11.531092    4.616114    0.171603
    139          1           0       12.881737    4.133878   -0.713469
    140          1           0       12.830303    5.760690    0.036520
 ---------------------------------------------------------------------

 SCF Done:  E(RCAM-B3LYP) =  -3007.15535570     A.U. after   16 cycles

 Excitation energies and oscillator strengths:

 Excited State   1:      Singlet-A      1.6833 eV  736.53 nm  f=0.3751  <S**2>=0.000
     245 -> 248       -0.18633
     246 -> 247        0.68474
     245 <- 248       -0.11264
 This state for optimization and/or second-order correction.
 Total Energy, E(TD-HF/TD-DFT) =  -3007.09349377
 Copying the excited state density for this state as the 1-particle RhoCI density.

 Excited State   2:      Singlet-A      2.2139 eV  560.02 nm  f=0.1099  <S**2>=0.000
     245 -> 247        0.63694
     246 -> 248        0.29467

 Excited State   3:      Singlet-A      3.2389 eV  382.80 nm  f=0.0001  <S**2>=0.000
     244 -> 247        0.68317
     246 -> 248       -0.10136

 Excited State   4:      Singlet-A      3.4367 eV  360.77 nm  f=0.0427  <S**2>=0.000
     241 -> 247        0.11002
     243 -> 247        0.62291
     246 -> 248       -0.26268

 Excited State   5:      Singlet-A      3.4968 eV  354.56 nm  f=0.0030  <S**2>=0.000
     240 -> 247        0.19791
     241 -> 247        0.48659
     241 -> 249        0.24499
     241 -> 250       -0.16015
     242 -> 247        0.26087
     243 -> 247       -0.10479

 The electronic state is 1-A.
 Alpha  occ. eigenvalues --  -46.88153 -19.24505 -19.23451 -19.20167 -19.19620
 Alpha  occ. eigenvalues --  -19.19006 -19.18157 -14.42982 -14.41983 -14.39645
 Alpha  occ. eigenvalues --  -14.38466 -10.39728 -10.38980 -10.35105 -10.34686
 Alpha  occ. eigenvalues --  -10.32439 -10.32025 -10.31926 -10.30539 -10.30262
 Alpha  occ. eigenvalues --  -10.30249 -10.30209 -10.29740 -10.29372 -10.29292
 Alpha  occ. eigenvalues --  -10.29107 -10.28519 -10.28386 -10.28336 -10.28238
 Alpha  occ. eigenvalues --  -10.28133 -10.28124 -10.28025 -10.27960 -10.27938
 Alpha  occ. eigenvalues --  -10.26865 -10.26831 -10.26754 -10.26752 -10.26717
 Alpha  occ. eigenvalues --  -10.26641 -10.26413 -10.26405 -10.26384 -10.26224
 Alpha  occ. eigenvalues --  -10.26202 -10.26116 -10.25979 -10.25787 -10.25700
 Alpha  occ. eigenvalues --  -10.25521 -10.25510 -10.25467 -10.25304 -10.25281
 Alpha  occ. eigenvalues --  -10.25207 -10.25095 -10.24977 -10.24893 -10.24886
 Alpha  occ. eigenvalues --  -10.24873 -10.24854 -10.24739 -10.24669 -10.24625
 Alpha  occ. eigenvalues --  -10.24597  -3.16716  -1.91634  -1.91163  -1.91019
 Alpha  occ. eigenvalues --   -1.16958  -1.12318  -1.10129  -1.08494  -1.07344
 Alpha  occ. eigenvalues --   -1.05026  -1.04253  -1.03432  -1.03129  -1.01912
 Alpha  occ. eigenvalues --   -0.92336  -0.90561  -0.89989  -0.89941  -0.89612
 Alpha  occ. eigenvalues --   -0.88811  -0.88391  -0.87493  -0.86906  -0.86305
 Alpha  occ. eigenvalues --   -0.85996  -0.85125  -0.84424  -0.83995  -0.83025
 Alpha  occ. eigenvalues --   -0.82486  -0.81698  -0.81184  -0.80749  -0.79956
 Alpha  occ. eigenvalues --   -0.79734  -0.78254  -0.77842  -0.77616  -0.76256
 Alpha  occ. eigenvalues --   -0.75350  -0.75321  -0.75221  -0.74769  -0.74204
 Alpha  occ. eigenvalues --   -0.73481  -0.72752  -0.71753  -0.70743  -0.68857
 Alpha  occ. eigenvalues --   -0.68585  -0.68088  -0.67156  -0.66490  -0.65861
 Alpha  occ. eigenvalues --   -0.65596  -0.65427  -0.64972  -0.64175  -0.63986
 Alpha  occ. eigenvalues --   -0.63499  -0.63412  -0.62928  -0.60862  -0.60735
 Alpha  occ. eigenvalues --   -0.60190  -0.59501  -0.58962  -0.58675  -0.57637
 Alpha  occ. eigenvalues --   -0.57220  -0.56480  -0.56286  -0.55857  -0.55455
 Alpha  occ. eigenvalues --   -0.54940  -0.54684  -0.54185  -0.53922  -0.53682
 Alpha  occ. eigenvalues --   -0.53273  -0.53164  -0.52979  -0.52738  -0.52648
 Alpha  occ. eigenvalues --   -0.52446  -0.52223  -0.52019  -0.51873  -0.51685
 Alpha  occ. eigenvalues --   -0.51445  -0.51161  -0.51089  -0.50807  -0.50507
 Alpha  occ. eigenvalues --   -0.50439  -0.50421  -0.50043  -0.49843  -0.49365
 Alpha  occ. eigenvalues --   -0.49180  -0.49054  -0.48902  -0.48755  -0.48584
 Alpha  occ. eigenvalues --   -0.48198  -0.48157  -0.48103  -0.47908  -0.47748
 Alpha  occ. eigenvalues --   -0.47503  -0.47341  -0.47233  -0.47072  -0.46585
 Alpha  occ. eigenvalues --   -0.46385  -0.46269  -0.46102  -0.45780  -0.45520
 Alpha  occ. eigenvalues --   -0.45339  -0.45045  -0.44815  -0.44574  -0.44474
 Alpha  occ. eigenvalues --   -0.44385  -0.44214  -0.44070  -0.43906  -0.43668
 Alpha  occ. eigenvalues --   -0.43566  -0.43475  -0.43303  -0.43079  -0.42946
 Alpha  occ. eigenvalues --   -0.42819  -0.42666  -0.42594  -0.42308  -0.41998
 Alpha  occ. eigenvalues --   -0.41892  -0.41776  -0.41614  -0.41164  -0.41034
 Alpha  occ. eigenvalues --   -0.41007  -0.40782  -0.40704  -0.40513  -0.40452
 Alpha  occ. eigenvalues --   -0.39974  -0.39509  -0.39354  -0.39224  -0.38872
 Alpha  occ. eigenvalues --   -0.38569  -0.38401  -0.38150  -0.37373  -0.37242
 Alpha  occ. eigenvalues --   -0.36886  -0.36761  -0.36704  -0.36483  -0.36350
 Alpha  occ. eigenvalues --   -0.36052  -0.35593  -0.35252  -0.34617  -0.34118
 Alpha  occ. eigenvalues --   -0.34062  -0.33753  -0.33480  -0.31112  -0.31014
 Alpha  occ. eigenvalues --   -0.30685  -0.30551  -0.29937  -0.29269  -0.24129
 Alpha  occ. eigenvalues --   -0.21299
 Alpha virt. eigenvalues --   -0.08858  -0.01860   0.00241   0.02083   0.03115
 Alpha virt. eigenvalues --    0.04055   0.04938   0.05369   0.05736   0.06766
 Alpha virt. eigenvalues --    0.07716   0.08410   0.08653   0.08889   0.09275

 Mulliken charges:
               1
     1  Mg   0.820966
     2  C   -0.056518
     3  C   -0.059134
     4  C   -0.070135
     5  C   -0.098403
     6  N   -0.313435
     7  C    0.044497
     8  C   -0.059141
     9  C   -0.038430
    10  C    0.021843
    11  C    0.042079
    12  C    0.084710
    13  C    0.041625
    14  C    0.128103
    15  O   -0.227397
    16  O   -0.342537
    17  N   -0.376767
    18  C    0.165591
    19  C   -0.157242
    20  C   -0.015543
    21  C    0.119575
    22  C    0.116994
    23  C   -0.008316
    24  O   -0.232476
    25  C    0.068635
    26  N   -0.292294
    27  C    0.069297
    28  C   -0.085196
    29  C    0.006645
    30  C    0.058259
    31  C    0.087717
    32  C    0.032629
    33  C    0.038156
    34  N   -0.350741
    35  C    0.129793
    36  C   -0.154264
    37  C   -0.031467
    38  C    0.127047
    39  C    0.107538
    40  C    0.053858
    41  O   -0.147011
    42  C    0.014687
    43  C    0.242750
    44  O   -0.250332
    45  O   -0.376461
    46  C    0.185734
    47  C    0.269507
    48  C   -0.087273
    49  C   -0.120687
    50  C    0.070654
    51  C    0.075131
    52  C    0.006949
    53  C    0.047131
    54  C   -0.131596
    55  C    0.076408
    56  C    0.036841
    57  C   -0.027117
    58  C    0.079228
    59  C   -0.144933
    60  C    0.071037
    61  C    0.057722
    62  C   -0.029099
    63  C    0.046209
    64  C   -0.118295
    65  C    0.029839
    66  C    0.024254
    67  H   -0.018432
    68  H    0.002191
    69  H   -0.029235
    70  H    0.037193
    71  H    0.015889
    72  H    0.017138
    73  H    0.020039
    74  H    0.026774
    75  H    0.018563
    76  H    0.012032
    77  H    0.029317
    78  H    0.026406
    79  H    0.014660
    80  H   -0.009524
    81  H    0.047309
    82  H    0.005630
    83  H    0.028318
    84  H    0.043071
    85  H    0.023860
    86  H    0.004079
    87  H    0.012018
    88  H    0.021896
    89  H    0.008003
    90  H   -0.003279
    91  H   -0.001864
    92  H    0.011311
    93  H    0.015607
    94  H    0.024493
    95  H    0.019047
    96  H    0.033863
    97  H    0.026983
    98  H    0.045479
    99  H    0.048966
   100  H    0.024098
   101  H    0.040509
   102  H    0.008976
   103  H    0.032596
   104  H   -0.014808
   105  H    0.014366
   106  H    0.017572
   107  H    0.011767
   108  H    0.004660
   109  H    0.001088
   110  H    0.002035
   111  H    0.007242
   112  H   -0.011639
   113  H    0.006821
   114  H   -0.006583
   115  H    0.009082
   116  H    0.010946
   117  H   -0.010608
   118  H   -0.010639
   119  H   -0.028535
   120  H   -0.009530
   121  H   -0.014000
   122  H   -0.010595
   123  H    0.005795
   124  H    0.017348
   125  H    0.017442
   126  H    0.002659
   127  H    0.001775
   128  H   -0.015264
   129  H   -0.005426
   130  H   -0.009012
   131  H   -0.006437
   132  H   -0.001249
   133  H   -0.012077
   134  H    0.002769
   135  H    0.010433
   136  H    0.010436
   137  H    0.007563
   138  H    0.002830
   139  H    0.012277
   140  H    0.008115
 Sum of Mulliken charges =  -0.00000

 Dipole moment (field-independent basis, Debye):
    X=              4.2844    Y=              1.7224    Z=             -2.4443  Tot=              5.2247
 Quadrupole moment (field-independent basis, Debye-Ang):
   XX=           -381.5028   YY=           -438.0459   ZZ=           -403.2478
   XY=            -17.8900   XZ=              8.8960   YZ=              4.5234

 Normal termination of Gaussian 16 at Fri Apr 29 17:49:31 2022.
