 Gaussian 16, Revision A.03,
 Gaussian 16:  ES64L-G16RevA.03 25-Dec-2016

 ---------------------------------
 #p PBE1PBE/Def2SVP td=(nstates=5)
 ---------------------------------

 ----------------------------------------------------
 step_401_chromophore_6 TDDFT with PBE1PBE functional
 ----------------------------------------------------
 Symbolic Z-matrix:
 Charge =  0 Multiplicity = 1

                         Standard orientation:
 ---------------------------------------------------------------------
 Center     Atomic      Atomic             Coordinates (Angstroms)
 Number     Number       Type             X           Y           Z
 ---------------------------------------------------------------------
      1         12           0       -5.286639    1.022299   -0.296806
      2          6           0       -4.436740   -2.339135   -0.189251
      3          6           0       -1.998842    1.939876   -0.330671
      4          6           0       -6.318587    4.234302    0.304059
      5          6           0       -8.685935    0.032706   -0.069778
      6          7           0       -3.430864   -0.101520   -0.042046
      7          6           0       -3.296614   -1.454478   -0.109581
      8          6           0       -1.765879   -1.855207   -0.356407
      9          6           0       -0.990999   -0.464732   -0.203563
     10          6           0       -2.181611    0.541523   -0.204952
     11          6           0        0.002826   -0.372896    1.041947
     12          6           0       -1.469760   -2.534979   -1.720299
     13          6           0       -0.493328   -3.730347   -1.702887
     14          6           0        0.286978   -4.158642   -0.420949
     15          8           0       -0.014485   -4.956534    0.437170
     16          8           0        1.528064   -3.595089   -0.328035
     17          7           0       -4.347456    2.855697   -0.329051
     18          6           0       -2.990662    2.972368   -0.334107
     19          6           0       -2.766884    4.418269   -0.499583
     20          6           0       -4.006608    5.101762   -0.298928
     21          6           0       -4.964957    4.035354   -0.121493
     22          6           0       -1.360968    4.945052   -0.546669
     23          6           0       -4.228491    6.581427   -0.378062
     24          8           0       -5.339143    7.134331   -0.270552
     25          6           0       -3.126163    7.529426   -0.719461
     26          7           0       -7.157327    1.996533   -0.015377
     27          6           0       -7.294748    3.247947    0.439183
     28          6           0       -8.803261    3.624010    0.593305
     29          6           0       -9.537701    2.287176    0.283051
     30          6           0       -8.403093    1.373399    0.022683
     31          6           0       -9.129159    4.228588    1.909573
     32          6           0      -10.532041    2.466547   -0.870046
     33          6           0      -11.975524    2.747574   -0.507805
     34          7           0       -6.363010   -0.796258   -0.157363
     35          6           0       -7.780345   -0.998749   -0.128667
     36          6           0       -8.006965   -2.401856    0.022023
     37          6           0       -6.694634   -2.994026   -0.099661
     38          6           0       -5.760397   -1.961724   -0.163340
     39          6           0       -9.358200   -3.128744    0.212782
     40          6           0       -5.928470   -4.282565    0.023226
     41          8           0       -6.309372   -5.426409    0.151012
     42          6           0       -4.457883   -3.902010   -0.112014
     43          6           0       -3.773942   -4.371267    1.095462
     44          8           0       -3.699835   -3.763614    2.192713
     45          8           0       -3.267512   -5.687251    0.818160
     46          6           0       -2.623302   -6.336413    2.020573
     47          6           0        2.381470   -4.035924    0.815975
     48          6           0        3.602660   -3.214623    0.666397
     49          6           0        4.834428   -3.601150    0.416836
     50          6           0        5.207777   -5.078686    0.133102
     51          6           0        6.082232   -2.669247    0.435486
     52          6           0        6.488844   -1.960270   -0.933106
     53          6           0        7.923024   -2.205394   -1.379016
     54          6           0        8.621767   -0.843631   -1.592888
     55          6           0        8.177734    0.043586   -2.755516
     56          6           0       10.191959   -1.020719   -1.707545
     57          6           0       10.983391   -0.256251   -0.636144
     58          6           0       12.515918   -0.662223   -0.426488
     59          6           0       13.407178    0.607658   -0.350572
     60          6           0       14.194619    0.749156   -1.640032
     61          6           0       14.275593    0.444180    0.916285
     62          6           0       13.879664    1.561760    1.934590
     63          6           0       14.262164    2.993326    1.448095
     64          6           0       13.200075    4.202963    1.580287
     65          6           0       13.597455    5.388022    2.556172
     66          6           0       12.617435    4.701569    0.178848
     67          1           0       -0.934307    2.179750   -0.374616
     68          1           0       -6.615666    5.269566    0.484235
     69          1           0       -9.720317   -0.315564   -0.060354
     70          1           0       -1.378453   -2.578597    0.359559
     71          1           0       -0.341692   -0.293521   -1.060915
     72          1           0       -0.101801    0.604231    1.513014
     73          1           0        1.077958   -0.485142    0.904767
     74          1           0       -0.287815   -1.195317    1.695385
     75          1           0       -1.071058   -1.868710   -2.485698
     76          1           0       -2.331682   -3.079089   -2.108201
     77          1           0        0.199452   -3.740456   -2.544204
     78          1           0       -1.115902   -4.600874   -1.908379
     79          1           0       -1.174021    5.448679   -1.494950
     80          1           0       -0.731728    4.056353   -0.608901
     81          1           0       -1.075478    5.613257    0.264329
     82          1           0       -2.260579    7.320828   -0.091096
     83          1           0       -3.415651    8.547280   -0.457625
     84          1           0       -2.831102    7.428585   -1.764436
     85          1           0       -8.889572    4.391160   -0.176039
     86          1           0       -9.975017    1.925290    1.213429
     87          1           0       -9.200841    5.316152    1.933620
     88          1           0       -8.356836    3.992156    2.642425
     89          1           0      -10.144666    3.898496    2.127523
     90          1           0      -10.531971    1.585464   -1.511727
     91          1           0      -10.084045    3.225583   -1.511359
     92          1           0      -12.089631    2.482664    0.543108
     93          1           0      -12.578567    2.075208   -1.117835
     94          1           0      -12.250267    3.781487   -0.715043
     95          1           0      -10.182227   -2.597433   -0.262672
     96          1           0       -9.551495   -3.328862    1.267603
     97          1           0       -9.382931   -4.143468   -0.185527
     98          1           0       -4.011046   -4.315307   -1.015335
     99          1           0       -1.627281   -5.909220    2.134737
    100          1           0       -2.508640   -7.386800    1.753578
    101          1           0       -3.269170   -6.323439    2.898564
    102          1           0        2.543163   -5.113500    0.761872
    103          1           0        1.901843   -3.951303    1.791253
    104          1           0        3.385887   -2.164896    0.864001
    105          1           0        4.367073   -5.769152    0.061280
    106          1           0        5.923906   -5.447383    0.867483
    107          1           0        5.776168   -5.147799   -0.794476
    108          1           0        7.006064   -3.130179    0.785353
    109          1           0        5.814335   -1.845578    1.096937
    110          1           0        6.298993   -0.901721   -0.755386
    111          1           0        5.833987   -2.160863   -1.780714
    112          1           0        7.835828   -2.709907   -2.341416
    113          1           0        8.581011   -2.854898   -0.802316
    114          1           0        8.453368   -0.359939   -0.630725
    115          1           0        8.826262   -0.102013   -3.619241
    116          1           0        8.077299    1.104308   -2.520998
    117          1           0        7.180631   -0.197768   -3.123177
    118          1           0       10.664553   -0.927479   -2.685103
    119          1           0       10.439766   -2.070817   -1.556177
    120          1           0       10.418390   -0.264437    0.295726
    121          1           0       10.888730    0.794222   -0.909603
    122          1           0       12.773182   -1.172862   -1.353061
    123          1           0       12.562831   -1.352882    0.415581
    124          1           0       12.727287    1.453634   -0.251704
    125          1           0       14.921815   -0.052290   -1.772979
    126          1           0       14.686185    1.721871   -1.620636
    127          1           0       13.464397    0.802781   -2.447524
    128          1           0       15.346850    0.603707    0.790478
    129          1           0       14.191271   -0.527208    1.403331
    130          1           0       14.360708    1.466490    2.908057
    131          1           0       12.823659    1.357527    2.112711
    132          1           0       14.757650    2.870697    0.485221
    133          1           0       15.081100    3.163919    2.147982
    134          1           0       12.333447    3.834905    2.131265
    135          1           0       14.637446    5.276188    2.863433
    136          1           0       13.027255    5.383593    3.485237
    137          1           0       13.382120    6.325907    2.044443
    138          1           0       11.531092    4.616114    0.171603
    139          1           0       12.881737    4.133878   -0.713469
    140          1           0       12.830303    5.760690    0.036520
 ---------------------------------------------------------------------

 SCF Done:  E(RPBE1PBE) =  -3005.34264101     A.U. after   15 cycles

 Excitation energies and oscillator strengths:

 Excited State   1:      Singlet-A      1.8469 eV  671.33 nm  f=0.3650  <S**2>=0.000
     245 -> 248        0.17997
     246 -> 247        0.69195
     246 <- 247       -0.10633
 This state for optimization and/or second-order correction.
 Total Energy, E(TD-HF/TD-DFT) =  -3005.27477033
 Copying the excited state density for this state as the 1-particle RhoCI density.

 Excited State   2:      Singlet-A      2.2335 eV  555.12 nm  f=0.1041  <S**2>=0.000
     245 -> 247        0.64612
     246 -> 248       -0.27352

 Excited State   3:      Singlet-A      2.9141 eV  425.47 nm  f=0.0020  <S**2>=0.000
     241 -> 247        0.16919
     243 -> 247        0.16132
     244 -> 247        0.65391

 Excited State   4:      Singlet-A      2.9449 eV  421.02 nm  f=0.0001  <S**2>=0.000
     241 -> 247       -0.10467
     243 -> 247        0.64952
     243 -> 249        0.16573
     244 -> 247       -0.14424

 Excited State   5:      Singlet-A      2.9860 eV  415.22 nm  f=0.0011  <S**2>=0.000
     241 -> 247        0.56884
     241 -> 249       -0.12034
     242 -> 247        0.33230
     244 -> 247       -0.17724

 The electronic state is 1-A.
 Alpha  occ. eigenvalues --  -46.91559 -19.25182 -19.24138 -19.20410 -19.19841
 Alpha  occ. eigenvalues --  -19.19200 -19.18383 -14.42519 -14.41497 -14.39304
 Alpha  occ. eigenvalues --  -14.38165 -10.36770 -10.35984 -10.32243 -10.31799
 Alpha  occ. eigenvalues --  -10.30196 -10.29698 -10.29412 -10.28266 -10.28000
 Alpha  occ. eigenvalues --  -10.27946 -10.27937 -10.27106 -10.27097 -10.26979
 Alpha  occ. eigenvalues --  -10.26930 -10.26235 -10.26076 -10.25874 -10.25852
 Alpha  occ. eigenvalues --  -10.25809 -10.25790 -10.25729 -10.25640 -10.25567
 Alpha  occ. eigenvalues --  -10.24685 -10.24577 -10.24576 -10.24424 -10.24346
 Alpha  occ. eigenvalues --  -10.24066 -10.23981 -10.23955 -10.23877 -10.23874
 Alpha  occ. eigenvalues --  -10.23851 -10.23627 -10.23516 -10.23378 -10.23218
 Alpha  occ. eigenvalues --  -10.23168 -10.23067 -10.22942 -10.22854 -10.22792
 Alpha  occ. eigenvalues --  -10.22776 -10.22578 -10.22560 -10.22438 -10.22294
 Alpha  occ. eigenvalues --  -10.22283 -10.22276 -10.22252 -10.22225 -10.22178
 Alpha  occ. eigenvalues --  -10.22055  -3.13701  -1.86561  -1.86068  -1.85927
 Alpha  occ. eigenvalues --   -1.11753  -1.06998  -1.04874  -1.03199  -1.02201
 Alpha  occ. eigenvalues --   -0.99831  -0.98895  -0.98124  -0.97768  -0.96542
 Alpha  occ. eigenvalues --   -0.86690  -0.84696  -0.84313  -0.84077  -0.83748
 Alpha  occ. eigenvalues --   -0.82950  -0.82728  -0.81828  -0.81160  -0.80396
 Alpha  occ. eigenvalues --   -0.80326  -0.79363  -0.78606  -0.78283  -0.77328
 Alpha  occ. eigenvalues --   -0.76670  -0.75928  -0.75359  -0.75019  -0.74254
 Alpha  occ. eigenvalues --   -0.73939  -0.72558  -0.72075  -0.71931  -0.70401
 Alpha  occ. eigenvalues --   -0.69711  -0.69411  -0.69344  -0.69057  -0.68416
 Alpha  occ. eigenvalues --   -0.67763  -0.67215  -0.66169  -0.65085  -0.63212
 Alpha  occ. eigenvalues --   -0.62847  -0.62491  -0.61623  -0.60730  -0.60307
 Alpha  occ. eigenvalues --   -0.60024  -0.59584  -0.59566  -0.58562  -0.58390
 Alpha  occ. eigenvalues --   -0.58010  -0.57605  -0.57074  -0.55401  -0.55127
 Alpha  occ. eigenvalues --   -0.54777  -0.54040  -0.53538  -0.53340  -0.52271
 Alpha  occ. eigenvalues --   -0.51629  -0.50853  -0.50793  -0.50459  -0.49990
 Alpha  occ. eigenvalues --   -0.49448  -0.49276  -0.48735  -0.48465  -0.48053
 Alpha  occ. eigenvalues --   -0.47827  -0.47705  -0.47450  -0.47208  -0.47141
 Alpha  occ. eigenvalues --   -0.47062  -0.46795  -0.46625  -0.46328  -0.46163
 Alpha  occ. eigenvalues --   -0.45972  -0.45653  -0.45621  -0.45398  -0.45018
 Alpha  occ. eigenvalues --   -0.44979  -0.44961  -0.44631  -0.44388  -0.44011
 Alpha  occ. eigenvalues --   -0.43791  -0.43680  -0.43511  -0.43318  -0.43152
 Alpha  occ. eigenvalues --   -0.42860  -0.42771  -0.42711  -0.42478  -0.42424
 Alpha  occ. eigenvalues --   -0.42144  -0.42002  -0.41917  -0.41750  -0.41287
 Alpha  occ. eigenvalues --   -0.41144  -0.40985  -0.40701  -0.40509  -0.40178
 Alpha  occ. eigenvalues --   -0.40164  -0.39785  -0.39487  -0.39342  -0.39093
 Alpha  occ. eigenvalues --   -0.39025  -0.38964  -0.38864  -0.38655  -0.38376
 Alpha  occ. eigenvalues --   -0.38351  -0.38256  -0.38105  -0.37778  -0.37706
 Alpha  occ. eigenvalues --   -0.37614  -0.37441  -0.37340  -0.37171  -0.36845
 Alpha  occ. eigenvalues --   -0.36771  -0.36620  -0.36405  -0.35973  -0.35859
 Alpha  occ. eigenvalues --   -0.35823  -0.35651  -0.35548  -0.35391  -0.35256
 Alpha  occ. eigenvalues --   -0.34775  -0.34429  -0.34187  -0.34129  -0.33674
 Alpha  occ. eigenvalues --   -0.33385  -0.33359  -0.32999  -0.32309  -0.32212
 Alpha  occ. eigenvalues --   -0.31932  -0.31695  -0.31546  -0.31536  -0.31220
 Alpha  occ. eigenvalues --   -0.30849  -0.30434  -0.30142  -0.29447  -0.29366
 Alpha  occ. eigenvalues --   -0.29270  -0.29041  -0.28263  -0.26708  -0.26395
 Alpha  occ. eigenvalues --   -0.25613  -0.25553  -0.25247  -0.24923  -0.21105
 Alpha  occ. eigenvalues --   -0.18934
 Alpha virt. eigenvalues --   -0.11314  -0.05347  -0.03990  -0.02329  -0.00477
 Alpha virt. eigenvalues --    0.00099   0.00563   0.00871   0.01336   0.03262
 Alpha virt. eigenvalues --    0.03921   0.04391   0.05264   0.05544   0.05643

 Mulliken charges:
               1
     1  Mg   0.970592
     2  C   -0.066644
     3  C   -0.060359
     4  C   -0.053924
     5  C   -0.085125
     6  N   -0.415569
     7  C    0.128641
     8  C   -0.135969
     9  C   -0.105405
    10  C    0.054891
    11  C   -0.016300
    12  C    0.030875
    13  C   -0.021889
    14  C    0.185872
    15  O   -0.260765
    16  O   -0.370512
    17  N   -0.495825
    18  C    0.189244
    19  C   -0.177591
    20  C   -0.068609
    21  C    0.149930
    22  C    0.051199
    23  C    0.040289
    24  O   -0.268353
    25  C   -0.005106
    26  N   -0.398471
    27  C    0.111888
    28  C   -0.162934
    29  C   -0.081802
    30  C    0.094379
    31  C    0.031034
    32  C   -0.022567
    33  C   -0.033950
    34  N   -0.478680
    35  C    0.146662
    36  C   -0.170294
    37  C   -0.074453
    38  C    0.179002
    39  C    0.055264
    40  C    0.147286
    41  O   -0.193141
    42  C   -0.097320
    43  C    0.325266
    44  O   -0.281894
    45  O   -0.404087
    46  C    0.129405
    47  C    0.227106
    48  C   -0.104289
    49  C   -0.163856
    50  C    0.009150
    51  C    0.011363
    52  C   -0.051189
    53  C   -0.005606
    54  C   -0.223260
    55  C    0.018672
    56  C   -0.015998
    57  C   -0.086767
    58  C    0.024878
    59  C   -0.235950
    60  C    0.006793
    61  C    0.003170
    62  C   -0.092303
    63  C   -0.012887
    64  C   -0.204648
    65  C   -0.030731
    66  C   -0.037657
    67  H    0.012747
    68  H    0.032822
    69  H    0.002159
    70  H    0.080303
    71  H    0.052056
    72  H    0.044316
    73  H    0.048708
    74  H    0.053978
    75  H    0.049183
    76  H    0.046320
    77  H    0.059970
    78  H    0.058288
    79  H    0.044373
    80  H    0.021926
    81  H    0.073743
    82  H    0.033231
    83  H    0.055615
    84  H    0.069648
    85  H    0.060358
    86  H    0.041287
    87  H    0.039702
    88  H    0.049753
    89  H    0.036754
    90  H    0.029664
    91  H    0.031083
    92  H    0.038444
    93  H    0.043356
    94  H    0.051930
    95  H    0.044667
    96  H    0.061620
    97  H    0.054304
    98  H    0.081986
    99  H    0.072801
   100  H    0.046364
   101  H    0.062314
   102  H    0.035613
   103  H    0.058523
   104  H    0.017094
   105  H    0.041175
   106  H    0.045485
   107  H    0.040740
   108  H    0.036375
   109  H    0.034003
   110  H    0.033778
   111  H    0.038514
   112  H    0.022754
   113  H    0.036694
   114  H    0.032490
   115  H    0.036113
   116  H    0.038289
   117  H    0.017406
   118  H    0.020636
   119  H    0.005400
   120  H    0.023219
   121  H    0.019619
   122  H    0.023560
   123  H    0.036825
   124  H    0.058892
   125  H    0.044701
   126  H    0.031685
   127  H    0.031428
   128  H    0.018154
   129  H    0.026589
   130  H    0.023693
   131  H    0.027098
   132  H    0.032689
   133  H    0.021356
   134  H    0.041106
   135  H    0.037214
   136  H    0.037340
   137  H    0.034251
   138  H    0.030150
   139  H    0.038430
   140  H    0.034974
 Sum of Mulliken charges =  -0.00000

 Dipole moment (field-independent basis, Debye):
    X=              4.2223    Y=              1.7145    Z=             -2.4384  Tot=              5.1685
 Quadrupole moment (field-independent basis, Debye-Ang):
   XX=           -375.1211   YY=           -435.3401   ZZ=           -400.8810
   XY=            -18.6933   XZ=              8.6332   YZ=              4.6573

 Normal termination of Gaussian 16 at Fri Apr 29 18:05:18 2022.
