 Gaussian 16, Revision A.03,
 Gaussian 16:  ES64L-G16RevA.03 25-Dec-2016

 --------------------------------
 #p wB97XD/Def2SVP td=(nstates=5)
 --------------------------------

 ---------------------------------------------------
 step_401_chromophore_6 TDDFT with wB97XD functional
 ---------------------------------------------------
 Symbolic Z-matrix:
 Charge =  0 Multiplicity = 1

                         Standard orientation:
 ---------------------------------------------------------------------
 Center     Atomic      Atomic             Coordinates (Angstroms)
 Number     Number       Type             X           Y           Z
 ---------------------------------------------------------------------
      1         12           0       -5.286639    1.022299   -0.296806
      2          6           0       -4.436740   -2.339135   -0.189251
      3          6           0       -1.998842    1.939876   -0.330671
      4          6           0       -6.318587    4.234302    0.304059
      5          6           0       -8.685935    0.032706   -0.069778
      6          7           0       -3.430864   -0.101520   -0.042046
      7          6           0       -3.296614   -1.454478   -0.109581
      8          6           0       -1.765879   -1.855207   -0.356407
      9          6           0       -0.990999   -0.464732   -0.203563
     10          6           0       -2.181611    0.541523   -0.204952
     11          6           0        0.002826   -0.372896    1.041947
     12          6           0       -1.469760   -2.534979   -1.720299
     13          6           0       -0.493328   -3.730347   -1.702887
     14          6           0        0.286978   -4.158642   -0.420949
     15          8           0       -0.014485   -4.956534    0.437170
     16          8           0        1.528064   -3.595089   -0.328035
     17          7           0       -4.347456    2.855697   -0.329051
     18          6           0       -2.990662    2.972368   -0.334107
     19          6           0       -2.766884    4.418269   -0.499583
     20          6           0       -4.006608    5.101762   -0.298928
     21          6           0       -4.964957    4.035354   -0.121493
     22          6           0       -1.360968    4.945052   -0.546669
     23          6           0       -4.228491    6.581427   -0.378062
     24          8           0       -5.339143    7.134331   -0.270552
     25          6           0       -3.126163    7.529426   -0.719461
     26          7           0       -7.157327    1.996533   -0.015377
     27          6           0       -7.294748    3.247947    0.439183
     28          6           0       -8.803261    3.624010    0.593305
     29          6           0       -9.537701    2.287176    0.283051
     30          6           0       -8.403093    1.373399    0.022683
     31          6           0       -9.129159    4.228588    1.909573
     32          6           0      -10.532041    2.466547   -0.870046
     33          6           0      -11.975524    2.747574   -0.507805
     34          7           0       -6.363010   -0.796258   -0.157363
     35          6           0       -7.780345   -0.998749   -0.128667
     36          6           0       -8.006965   -2.401856    0.022023
     37          6           0       -6.694634   -2.994026   -0.099661
     38          6           0       -5.760397   -1.961724   -0.163340
     39          6           0       -9.358200   -3.128744    0.212782
     40          6           0       -5.928470   -4.282565    0.023226
     41          8           0       -6.309372   -5.426409    0.151012
     42          6           0       -4.457883   -3.902010   -0.112014
     43          6           0       -3.773942   -4.371267    1.095462
     44          8           0       -3.699835   -3.763614    2.192713
     45          8           0       -3.267512   -5.687251    0.818160
     46          6           0       -2.623302   -6.336413    2.020573
     47          6           0        2.381470   -4.035924    0.815975
     48          6           0        3.602660   -3.214623    0.666397
     49          6           0        4.834428   -3.601150    0.416836
     50          6           0        5.207777   -5.078686    0.133102
     51          6           0        6.082232   -2.669247    0.435486
     52          6           0        6.488844   -1.960270   -0.933106
     53          6           0        7.923024   -2.205394   -1.379016
     54          6           0        8.621767   -0.843631   -1.592888
     55          6           0        8.177734    0.043586   -2.755516
     56          6           0       10.191959   -1.020719   -1.707545
     57          6           0       10.983391   -0.256251   -0.636144
     58          6           0       12.515918   -0.662223   -0.426488
     59          6           0       13.407178    0.607658   -0.350572
     60          6           0       14.194619    0.749156   -1.640032
     61          6           0       14.275593    0.444180    0.916285
     62          6           0       13.879664    1.561760    1.934590
     63          6           0       14.262164    2.993326    1.448095
     64          6           0       13.200075    4.202963    1.580287
     65          6           0       13.597455    5.388022    2.556172
     66          6           0       12.617435    4.701569    0.178848
     67          1           0       -0.934307    2.179750   -0.374616
     68          1           0       -6.615666    5.269566    0.484235
     69          1           0       -9.720317   -0.315564   -0.060354
     70          1           0       -1.378453   -2.578597    0.359559
     71          1           0       -0.341692   -0.293521   -1.060915
     72          1           0       -0.101801    0.604231    1.513014
     73          1           0        1.077958   -0.485142    0.904767
     74          1           0       -0.287815   -1.195317    1.695385
     75          1           0       -1.071058   -1.868710   -2.485698
     76          1           0       -2.331682   -3.079089   -2.108201
     77          1           0        0.199452   -3.740456   -2.544204
     78          1           0       -1.115902   -4.600874   -1.908379
     79          1           0       -1.174021    5.448679   -1.494950
     80          1           0       -0.731728    4.056353   -0.608901
     81          1           0       -1.075478    5.613257    0.264329
     82          1           0       -2.260579    7.320828   -0.091096
     83          1           0       -3.415651    8.547280   -0.457625
     84          1           0       -2.831102    7.428585   -1.764436
     85          1           0       -8.889572    4.391160   -0.176039
     86          1           0       -9.975017    1.925290    1.213429
     87          1           0       -9.200841    5.316152    1.933620
     88          1           0       -8.356836    3.992156    2.642425
     89          1           0      -10.144666    3.898496    2.127523
     90          1           0      -10.531971    1.585464   -1.511727
     91          1           0      -10.084045    3.225583   -1.511359
     92          1           0      -12.089631    2.482664    0.543108
     93          1           0      -12.578567    2.075208   -1.117835
     94          1           0      -12.250267    3.781487   -0.715043
     95          1           0      -10.182227   -2.597433   -0.262672
     96          1           0       -9.551495   -3.328862    1.267603
     97          1           0       -9.382931   -4.143468   -0.185527
     98          1           0       -4.011046   -4.315307   -1.015335
     99          1           0       -1.627281   -5.909220    2.134737
    100          1           0       -2.508640   -7.386800    1.753578
    101          1           0       -3.269170   -6.323439    2.898564
    102          1           0        2.543163   -5.113500    0.761872
    103          1           0        1.901843   -3.951303    1.791253
    104          1           0        3.385887   -2.164896    0.864001
    105          1           0        4.367073   -5.769152    0.061280
    106          1           0        5.923906   -5.447383    0.867483
    107          1           0        5.776168   -5.147799   -0.794476
    108          1           0        7.006064   -3.130179    0.785353
    109          1           0        5.814335   -1.845578    1.096937
    110          1           0        6.298993   -0.901721   -0.755386
    111          1           0        5.833987   -2.160863   -1.780714
    112          1           0        7.835828   -2.709907   -2.341416
    113          1           0        8.581011   -2.854898   -0.802316
    114          1           0        8.453368   -0.359939   -0.630725
    115          1           0        8.826262   -0.102013   -3.619241
    116          1           0        8.077299    1.104308   -2.520998
    117          1           0        7.180631   -0.197768   -3.123177
    118          1           0       10.664553   -0.927479   -2.685103
    119          1           0       10.439766   -2.070817   -1.556177
    120          1           0       10.418390   -0.264437    0.295726
    121          1           0       10.888730    0.794222   -0.909603
    122          1           0       12.773182   -1.172862   -1.353061
    123          1           0       12.562831   -1.352882    0.415581
    124          1           0       12.727287    1.453634   -0.251704
    125          1           0       14.921815   -0.052290   -1.772979
    126          1           0       14.686185    1.721871   -1.620636
    127          1           0       13.464397    0.802781   -2.447524
    128          1           0       15.346850    0.603707    0.790478
    129          1           0       14.191271   -0.527208    1.403331
    130          1           0       14.360708    1.466490    2.908057
    131          1           0       12.823659    1.357527    2.112711
    132          1           0       14.757650    2.870697    0.485221
    133          1           0       15.081100    3.163919    2.147982
    134          1           0       12.333447    3.834905    2.131265
    135          1           0       14.637446    5.276188    2.863433
    136          1           0       13.027255    5.383593    3.485237
    137          1           0       13.382120    6.325907    2.044443
    138          1           0       11.531092    4.616114    0.171603
    139          1           0       12.881737    4.133878   -0.713469
    140          1           0       12.830303    5.760690    0.036520
 ---------------------------------------------------------------------

 SCF Done:  E(RwB97XD) =  -3007.85053406     A.U. after   19 cycles

 Excitation energies and oscillator strengths:

 Excited State   1:      Singlet-A      1.6236 eV  763.65 nm  f=0.3733  <S**2>=0.000
     245 -> 248       -0.19204
     246 -> 247        0.68270
     245 <- 248       -0.12232
 This state for optimization and/or second-order correction.
 Total Energy, E(TD-HF/TD-DFT) =  -3007.79086850
 Copying the excited state density for this state as the 1-particle RhoCI density.

 Excited State   2:      Singlet-A      2.1573 eV  574.71 nm  f=0.1063  <S**2>=0.000
     245 -> 247        0.63473
     246 -> 248        0.29715

 Excited State   3:      Singlet-A      3.2557 eV  380.82 nm  f=0.0006  <S**2>=0.000
     244 -> 247        0.67480
     246 -> 248       -0.12095

 Excited State   4:      Singlet-A      3.4574 eV  358.60 nm  f=0.0768  <S**2>=0.000
     243 -> 247        0.59748
     246 -> 248       -0.30756

 Excited State   5:      Singlet-A      3.5224 eV  351.99 nm  f=0.0085  <S**2>=0.000
     241 -> 247        0.44908
     241 -> 249        0.24286
     241 -> 250       -0.15794
     242 -> 247        0.32360
     242 -> 249       -0.17640
     242 -> 250       -0.14227

 The electronic state is 1-A.
 Alpha  occ. eigenvalues --  -46.94507 -19.29723 -19.28693 -19.25055 -19.24575
 Alpha  occ. eigenvalues --  -19.24057 -19.23198 -14.47591 -14.46603 -14.44248
 Alpha  occ. eigenvalues --  -14.43074 -10.43525 -10.42853 -10.39127 -10.38655
 Alpha  occ. eigenvalues --  -10.36494 -10.35995 -10.35923 -10.34598 -10.34301
 Alpha  occ. eigenvalues --  -10.34248 -10.34224 -10.33501 -10.33390 -10.33365
 Alpha  occ. eigenvalues --  -10.33166 -10.32675 -10.32542 -10.32283 -10.32225
 Alpha  occ. eigenvalues --  -10.32192 -10.32164 -10.32096 -10.31984 -10.31911
 Alpha  occ. eigenvalues --  -10.30871 -10.30849 -10.30811 -10.30779 -10.30717
 Alpha  occ. eigenvalues --  -10.30582 -10.30392 -10.30301 -10.30271 -10.30253
 Alpha  occ. eigenvalues --  -10.30228 -10.29964 -10.29906 -10.29737 -10.29613
 Alpha  occ. eigenvalues --  -10.29451 -10.29383 -10.29374 -10.29315 -10.29219
 Alpha  occ. eigenvalues --  -10.29153 -10.28930 -10.28925 -10.28799 -10.28715
 Alpha  occ. eigenvalues --  -10.28711 -10.28668 -10.28638 -10.28570 -10.28526
 Alpha  occ. eigenvalues --  -10.28506  -3.20494  -1.94104  -1.93610  -1.93472
 Alpha  occ. eigenvalues --   -1.19097  -1.14463  -1.12375  -1.10706  -1.09523
 Alpha  occ. eigenvalues --   -1.07233  -1.06268  -1.05476  -1.05146  -1.03934
 Alpha  occ. eigenvalues --   -0.94325  -0.92369  -0.91858  -0.91740  -0.91413
 Alpha  occ. eigenvalues --   -0.90611  -0.90317  -0.89427  -0.88855  -0.88071
 Alpha  occ. eigenvalues --   -0.87940  -0.86999  -0.86260  -0.85875  -0.84952
 Alpha  occ. eigenvalues --   -0.84330  -0.83618  -0.83051  -0.82682  -0.81894
 Alpha  occ. eigenvalues --   -0.81601  -0.80208  -0.79730  -0.79532  -0.78091
 Alpha  occ. eigenvalues --   -0.77296  -0.77109  -0.77036  -0.76697  -0.76064
 Alpha  occ. eigenvalues --   -0.75380  -0.74743  -0.73712  -0.72678  -0.70759
 Alpha  occ. eigenvalues --   -0.70475  -0.70069  -0.69171  -0.68361  -0.67811
 Alpha  occ. eigenvalues --   -0.67532  -0.67240  -0.66991  -0.66027  -0.65993
 Alpha  occ. eigenvalues --   -0.65461  -0.65245  -0.64736  -0.62878  -0.62644
 Alpha  occ. eigenvalues --   -0.62198  -0.61479  -0.60946  -0.60681  -0.59640
 Alpha  occ. eigenvalues --   -0.59166  -0.58348  -0.58221  -0.57846  -0.57387
 Alpha  occ. eigenvalues --   -0.56852  -0.56644  -0.56120  -0.55849  -0.55529
 Alpha  occ. eigenvalues --   -0.55182  -0.55064  -0.54853  -0.54665  -0.54539
 Alpha  occ. eigenvalues --   -0.54368  -0.54148  -0.53933  -0.53798  -0.53566
 Alpha  occ. eigenvalues --   -0.53339  -0.53003  -0.52989  -0.52721  -0.52379
 Alpha  occ. eigenvalues --   -0.52361  -0.52323  -0.51958  -0.51788  -0.51332
 Alpha  occ. eigenvalues --   -0.51086  -0.50985  -0.50787  -0.50629  -0.50517
 Alpha  occ. eigenvalues --   -0.50119  -0.50082  -0.49999  -0.49795  -0.49674
 Alpha  occ. eigenvalues --   -0.49464  -0.49257  -0.49148  -0.48982  -0.48490
 Alpha  occ. eigenvalues --   -0.48329  -0.48203  -0.47957  -0.47705  -0.47388
 Alpha  occ. eigenvalues --   -0.47261  -0.46943  -0.46690  -0.46526  -0.46356
 Alpha  occ. eigenvalues --   -0.46260  -0.46132  -0.45977  -0.45830  -0.45539
 Alpha  occ. eigenvalues --   -0.45490  -0.45403  -0.45232  -0.44948  -0.44825
 Alpha  occ. eigenvalues --   -0.44744  -0.44599  -0.44468  -0.44231  -0.43894
 Alpha  occ. eigenvalues --   -0.43791  -0.43693  -0.43520  -0.43137  -0.42912
 Alpha  occ. eigenvalues --   -0.42876  -0.42739  -0.42604  -0.42428  -0.42319
 Alpha  occ. eigenvalues --   -0.41827  -0.41414  -0.41209  -0.41132  -0.40715
 Alpha  occ. eigenvalues --   -0.40423  -0.40313  -0.40010  -0.39326  -0.39233
 Alpha  occ. eigenvalues --   -0.38890  -0.38751  -0.38547  -0.38405  -0.38194
 Alpha  occ. eigenvalues --   -0.37886  -0.37437  -0.37232  -0.36527  -0.36129
 Alpha  occ. eigenvalues --   -0.35989  -0.35897  -0.35432  -0.33250  -0.33105
 Alpha  occ. eigenvalues --   -0.32684  -0.32484  -0.32118  -0.31445  -0.26056
 Alpha  occ. eigenvalues --   -0.23105
 Alpha virt. eigenvalues --   -0.07211   0.00039   0.02301   0.04195   0.06178
 Alpha virt. eigenvalues --    0.06344   0.07133   0.07564   0.08044   0.09699
 Alpha virt. eigenvalues --    0.10329   0.11202   0.12088   0.12283   0.12429

 Mulliken charges:
               1
     1  Mg   0.960596
     2  C   -0.067368
     3  C   -0.074643
     4  C   -0.073469
     5  C   -0.104501
     6  N   -0.383873
     7  C    0.091852
     8  C   -0.102170
     9  C   -0.084670
    10  C    0.043791
    11  C   -0.003805
    12  C    0.041120
    13  C   -0.009186
    14  C    0.174942
    15  O   -0.257554
    16  O   -0.369253
    17  N   -0.462056
    18  C    0.181414
    19  C   -0.170629
    20  C   -0.061079
    21  C    0.142735
    22  C    0.065547
    23  C    0.036356
    24  O   -0.262927
    25  C    0.007571
    26  N   -0.364735
    27  C    0.093690
    28  C   -0.135625
    29  C   -0.049243
    30  C    0.082729
    31  C    0.039892
    32  C   -0.011074
    33  C   -0.018374
    34  N   -0.440196
    35  C    0.141380
    36  C   -0.168111
    37  C   -0.071997
    38  C    0.162121
    39  C    0.065553
    40  C    0.128580
    41  O   -0.183697
    42  C   -0.057090
    43  C    0.304774
    44  O   -0.276832
    45  O   -0.404462
    46  C    0.145389
    47  C    0.239955
    48  C   -0.109377
    49  C   -0.152827
    50  C    0.023484
    51  C    0.031611
    52  C   -0.038560
    53  C    0.006618
    54  C   -0.187466
    55  C    0.027364
    56  C   -0.000672
    57  C   -0.067293
    58  C    0.038182
    59  C   -0.198877
    60  C    0.022194
    61  C    0.016106
    62  C   -0.071820
    63  C    0.004365
    64  C   -0.180633
    65  C   -0.015688
    66  C   -0.022986
    67  H    0.005995
    68  H    0.028982
    69  H   -0.003885
    70  H    0.059176
    71  H    0.042256
    72  H    0.037899
    73  H    0.043446
    74  H    0.047641
    75  H    0.043348
    76  H    0.035433
    77  H    0.056009
    78  H    0.052553
    79  H    0.038414
    80  H    0.015929
    81  H    0.068968
    82  H    0.026054
    83  H    0.054558
    84  H    0.065526
    85  H    0.049197
    86  H    0.029088
    87  H    0.034969
    88  H    0.044290
    89  H    0.028920
    90  H    0.021031
    91  H    0.022951
    92  H    0.031201
    93  H    0.038158
    94  H    0.046631
    95  H    0.039522
    96  H    0.057048
    97  H    0.050648
    98  H    0.075256
    99  H    0.067717
   100  H    0.042929
   101  H    0.058467
   102  H    0.029137
   103  H    0.054764
   104  H    0.013185
   105  H    0.035570
   106  H    0.039601
   107  H    0.033665
   108  H    0.028247
   109  H    0.026848
   110  H    0.024509
   111  H    0.031403
   112  H    0.014115
   113  H    0.028021
   114  H    0.016562
   115  H    0.029729
   116  H    0.033663
   117  H    0.011021
   118  H    0.011737
   119  H   -0.005852
   120  H    0.013973
   121  H    0.007984
   122  H    0.012101
   123  H    0.029873
   124  H    0.035622
   125  H    0.039175
   126  H    0.024515
   127  H    0.023751
   128  H    0.009032
   129  H    0.019075
   130  H    0.017213
   131  H    0.015202
   132  H    0.018544
   133  H    0.012267
   134  H    0.029451
   135  H    0.030562
   136  H    0.031958
   137  H    0.027488
   138  H    0.024157
   139  H    0.032266
   140  H    0.028445
 Sum of Mulliken charges =  -0.00000

 Dipole moment (field-independent basis, Debye):
    X=              4.3369    Y=              1.7726    Z=             -2.4730  Tot=              5.2978
 Quadrupole moment (field-independent basis, Debye-Ang):
   XX=           -376.4689   YY=           -433.5497   ZZ=           -400.4506
   XY=            -18.1560   XZ=              8.8111   YZ=              4.5106

 Normal termination of Gaussian 16 at Fri Apr 29 18:34:08 2022.
