 Gaussian 16, Revision A.03,
 Gaussian 16:  ES64L-G16RevA.03 25-Dec-2016

 --------------------
 #p ZINDO=(nstates=5)
 --------------------

 ----------------------------
 step_401_chromophore_6 ZINDO
 ----------------------------
 Symbolic Z-matrix:
 Charge =  0 Multiplicity = 1

                         Standard orientation:
 ---------------------------------------------------------------------
 Center     Atomic      Atomic             Coordinates (Angstroms)
 Number     Number       Type             X           Y           Z
 ---------------------------------------------------------------------
      1         12           0       -5.286639    1.022299   -0.296806
      2          6           0       -4.436740   -2.339135   -0.189251
      3          6           0       -1.998842    1.939876   -0.330671
      4          6           0       -6.318587    4.234302    0.304059
      5          6           0       -8.685935    0.032706   -0.069778
      6          7           0       -3.430864   -0.101520   -0.042046
      7          6           0       -3.296614   -1.454478   -0.109581
      8          6           0       -1.765879   -1.855207   -0.356407
      9          6           0       -0.990999   -0.464732   -0.203563
     10          6           0       -2.181611    0.541523   -0.204952
     11          6           0        0.002826   -0.372896    1.041947
     12          6           0       -1.469760   -2.534979   -1.720299
     13          6           0       -0.493328   -3.730347   -1.702887
     14          6           0        0.286978   -4.158642   -0.420949
     15          8           0       -0.014485   -4.956534    0.437170
     16          8           0        1.528064   -3.595089   -0.328035
     17          7           0       -4.347456    2.855697   -0.329051
     18          6           0       -2.990662    2.972368   -0.334107
     19          6           0       -2.766884    4.418269   -0.499583
     20          6           0       -4.006608    5.101762   -0.298928
     21          6           0       -4.964957    4.035354   -0.121493
     22          6           0       -1.360968    4.945052   -0.546669
     23          6           0       -4.228491    6.581427   -0.378062
     24          8           0       -5.339143    7.134331   -0.270552
     25          6           0       -3.126163    7.529426   -0.719461
     26          7           0       -7.157327    1.996533   -0.015377
     27          6           0       -7.294748    3.247947    0.439183
     28          6           0       -8.803261    3.624010    0.593305
     29          6           0       -9.537701    2.287176    0.283051
     30          6           0       -8.403093    1.373399    0.022683
     31          6           0       -9.129159    4.228588    1.909573
     32          6           0      -10.532041    2.466547   -0.870046
     33          6           0      -11.975524    2.747574   -0.507805
     34          7           0       -6.363010   -0.796258   -0.157363
     35          6           0       -7.780345   -0.998749   -0.128667
     36          6           0       -8.006965   -2.401856    0.022023
     37          6           0       -6.694634   -2.994026   -0.099661
     38          6           0       -5.760397   -1.961724   -0.163340
     39          6           0       -9.358200   -3.128744    0.212782
     40          6           0       -5.928470   -4.282565    0.023226
     41          8           0       -6.309372   -5.426409    0.151012
     42          6           0       -4.457883   -3.902010   -0.112014
     43          6           0       -3.773942   -4.371267    1.095462
     44          8           0       -3.699835   -3.763614    2.192713
     45          8           0       -3.267512   -5.687251    0.818160
     46          6           0       -2.623302   -6.336413    2.020573
     47          6           0        2.381470   -4.035924    0.815975
     48          6           0        3.602660   -3.214623    0.666397
     49          6           0        4.834428   -3.601150    0.416836
     50          6           0        5.207777   -5.078686    0.133102
     51          6           0        6.082232   -2.669247    0.435486
     52          6           0        6.488844   -1.960270   -0.933106
     53          6           0        7.923024   -2.205394   -1.379016
     54          6           0        8.621767   -0.843631   -1.592888
     55          6           0        8.177734    0.043586   -2.755516
     56          6           0       10.191959   -1.020719   -1.707545
     57          6           0       10.983391   -0.256251   -0.636144
     58          6           0       12.515918   -0.662223   -0.426488
     59          6           0       13.407178    0.607658   -0.350572
     60          6           0       14.194619    0.749156   -1.640032
     61          6           0       14.275593    0.444180    0.916285
     62          6           0       13.879664    1.561760    1.934590
     63          6           0       14.262164    2.993326    1.448095
     64          6           0       13.200075    4.202963    1.580287
     65          6           0       13.597455    5.388022    2.556172
     66          6           0       12.617435    4.701569    0.178848
     67          1           0       -0.934307    2.179750   -0.374616
     68          1           0       -6.615666    5.269566    0.484235
     69          1           0       -9.720317   -0.315564   -0.060354
     70          1           0       -1.378453   -2.578597    0.359559
     71          1           0       -0.341692   -0.293521   -1.060915
     72          1           0       -0.101801    0.604231    1.513014
     73          1           0        1.077958   -0.485142    0.904767
     74          1           0       -0.287815   -1.195317    1.695385
     75          1           0       -1.071058   -1.868710   -2.485698
     76          1           0       -2.331682   -3.079089   -2.108201
     77          1           0        0.199452   -3.740456   -2.544204
     78          1           0       -1.115902   -4.600874   -1.908379
     79          1           0       -1.174021    5.448679   -1.494950
     80          1           0       -0.731728    4.056353   -0.608901
     81          1           0       -1.075478    5.613257    0.264329
     82          1           0       -2.260579    7.320828   -0.091096
     83          1           0       -3.415651    8.547280   -0.457625
     84          1           0       -2.831102    7.428585   -1.764436
     85          1           0       -8.889572    4.391160   -0.176039
     86          1           0       -9.975017    1.925290    1.213429
     87          1           0       -9.200841    5.316152    1.933620
     88          1           0       -8.356836    3.992156    2.642425
     89          1           0      -10.144666    3.898496    2.127523
     90          1           0      -10.531971    1.585464   -1.511727
     91          1           0      -10.084045    3.225583   -1.511359
     92          1           0      -12.089631    2.482664    0.543108
     93          1           0      -12.578567    2.075208   -1.117835
     94          1           0      -12.250267    3.781487   -0.715043
     95          1           0      -10.182227   -2.597433   -0.262672
     96          1           0       -9.551495   -3.328862    1.267603
     97          1           0       -9.382931   -4.143468   -0.185527
     98          1           0       -4.011046   -4.315307   -1.015335
     99          1           0       -1.627281   -5.909220    2.134737
    100          1           0       -2.508640   -7.386800    1.753578
    101          1           0       -3.269170   -6.323439    2.898564
    102          1           0        2.543163   -5.113500    0.761872
    103          1           0        1.901843   -3.951303    1.791253
    104          1           0        3.385887   -2.164896    0.864001
    105          1           0        4.367073   -5.769152    0.061280
    106          1           0        5.923906   -5.447383    0.867483
    107          1           0        5.776168   -5.147799   -0.794476
    108          1           0        7.006064   -3.130179    0.785353
    109          1           0        5.814335   -1.845578    1.096937
    110          1           0        6.298993   -0.901721   -0.755386
    111          1           0        5.833987   -2.160863   -1.780714
    112          1           0        7.835828   -2.709907   -2.341416
    113          1           0        8.581011   -2.854898   -0.802316
    114          1           0        8.453368   -0.359939   -0.630725
    115          1           0        8.826262   -0.102013   -3.619241
    116          1           0        8.077299    1.104308   -2.520998
    117          1           0        7.180631   -0.197768   -3.123177
    118          1           0       10.664553   -0.927479   -2.685103
    119          1           0       10.439766   -2.070817   -1.556177
    120          1           0       10.418390   -0.264437    0.295726
    121          1           0       10.888730    0.794222   -0.909603
    122          1           0       12.773182   -1.172862   -1.353061
    123          1           0       12.562831   -1.352882    0.415581
    124          1           0       12.727287    1.453634   -0.251704
    125          1           0       14.921815   -0.052290   -1.772979
    126          1           0       14.686185    1.721871   -1.620636
    127          1           0       13.464397    0.802781   -2.447524
    128          1           0       15.346850    0.603707    0.790478
    129          1           0       14.191271   -0.527208    1.403331
    130          1           0       14.360708    1.466490    2.908057
    131          1           0       12.823659    1.357527    2.112711
    132          1           0       14.757650    2.870697    0.485221
    133          1           0       15.081100    3.163919    2.147982
    134          1           0       12.333447    3.834905    2.131265
    135          1           0       14.637446    5.276188    2.863433
    136          1           0       13.027255    5.383593    3.485237
    137          1           0       13.382120    6.325907    2.044443
    138          1           0       11.531092    4.616114    0.171603
    139          1           0       12.881737    4.133878   -0.713469
    140          1           0       12.830303    5.760690    0.036520
 ---------------------------------------------------------------------

 SCF Done:  E(RZINDO/S) =  -474.005993812     A.U. after   20 cycles

 Excitation energies and oscillator strengths:

 Excited State   1:      Singlet-A      1.2217 eV 1014.88 nm  f=0.5940  <S**2>=0.000
     175 ->178         0.19754
     176 ->177         0.66151
 This state for optimization and/or second-order correction.
 Total Energy, E(CIS/TDA) =  -473.961098367
 Copying the excited state density for this state as the 1-particle RhoCI density.

 Excited State   2:      Singlet-A      1.8874 eV  656.89 nm  f=0.0549  <S**2>=0.000
     175 ->177         0.55455
     176 ->178        -0.41376

 Excited State   3:      Singlet-A      2.8775 eV  430.88 nm  f=0.0018  <S**2>=0.000
     169 ->177         0.20662
     169 ->179        -0.28493
     169 ->180        -0.24099
     169 ->185        -0.16399
     170 ->177         0.21305
     170 ->179        -0.25233
     170 ->180        -0.23155
     170 ->185        -0.14407

 Excited State   4:      Singlet-A      2.9952 eV  413.95 nm  f=0.2366  <S**2>=0.000
     169 ->177        -0.20958
     169 ->179        -0.19263
     169 ->180         0.18152
     169 ->185        -0.10365
     169 ->187        -0.11518
     170 ->177         0.18603
     170 ->179         0.19382
     170 ->180        -0.14301
     170 ->185         0.10207
     173 ->177        -0.12509
     175 ->177         0.16931
     176 ->178         0.26450
     176 ->179         0.15389

 Excited State   5:      Singlet-A      3.0343 eV  408.62 nm  f=0.6878  <S**2>=0.000
     169 ->177         0.14272
     169 ->179         0.13843
     169 ->180        -0.12138
     170 ->177        -0.12755
     170 ->179        -0.12098
     173 ->177        -0.14098
     175 ->177         0.28898
     176 ->178         0.42344
     176 ->179         0.17356

 The electronic state is 1-A.
 Alpha  occ. eigenvalues --   -1.83926  -1.82405  -1.78677  -1.74048  -1.69121
 Alpha  occ. eigenvalues --   -1.68201  -1.65071  -1.60531  -1.58310  -1.56581
 Alpha  occ. eigenvalues --   -1.52137  -1.49581  -1.48928  -1.48351  -1.46643
 Alpha  occ. eigenvalues --   -1.43321  -1.42215  -1.39767  -1.39159  -1.38649
 Alpha  occ. eigenvalues --   -1.35536  -1.33007  -1.32407  -1.31404  -1.29871
 Alpha  occ. eigenvalues --   -1.26610  -1.24987  -1.21056  -1.20124  -1.18086
 Alpha  occ. eigenvalues --   -1.16951  -1.15429  -1.15132  -1.14760  -1.14619
 Alpha  occ. eigenvalues --   -1.13333  -1.11072  -1.10059  -1.05130  -1.02792
 Alpha  occ. eigenvalues --   -1.02005  -1.01177  -0.98828  -0.98124  -0.95921
 Alpha  occ. eigenvalues --   -0.95711  -0.94962  -0.93674  -0.93053  -0.91994
 Alpha  occ. eigenvalues --   -0.91441  -0.90157  -0.89194  -0.88097  -0.87460
 Alpha  occ. eigenvalues --   -0.86539  -0.84717  -0.83559  -0.82010  -0.80223
 Alpha  occ. eigenvalues --   -0.79312  -0.78133  -0.76551  -0.76292  -0.75774
 Alpha  occ. eigenvalues --   -0.75214  -0.74834  -0.74752  -0.73872  -0.72941
 Alpha  occ. eigenvalues --   -0.72833  -0.72459  -0.71575  -0.71339  -0.71016
 Alpha  occ. eigenvalues --   -0.70804  -0.70352  -0.68669  -0.68051  -0.67983
 Alpha  occ. eigenvalues --   -0.67817  -0.67529  -0.66648  -0.66389  -0.65058
 Alpha  occ. eigenvalues --   -0.64850  -0.64265  -0.63952  -0.63695  -0.62952
 Alpha  occ. eigenvalues --   -0.62708  -0.62274  -0.61841  -0.61666  -0.61493
 Alpha  occ. eigenvalues --   -0.61306  -0.60982  -0.60329  -0.60142  -0.59997
 Alpha  occ. eigenvalues --   -0.59743  -0.59054  -0.58746  -0.58369  -0.57896
 Alpha  occ. eigenvalues --   -0.57488  -0.57173  -0.57017  -0.56802  -0.56453
 Alpha  occ. eigenvalues --   -0.56147  -0.55951  -0.55370  -0.55142  -0.54616
 Alpha  occ. eigenvalues --   -0.54437  -0.54022  -0.53701  -0.53221  -0.52787
 Alpha  occ. eigenvalues --   -0.52692  -0.52203  -0.52014  -0.51730  -0.51502
 Alpha  occ. eigenvalues --   -0.51040  -0.50887  -0.50651  -0.50570  -0.50149
 Alpha  occ. eigenvalues --   -0.49817  -0.49658  -0.49293  -0.49209  -0.48973
 Alpha  occ. eigenvalues --   -0.48859  -0.48410  -0.48349  -0.47990  -0.47565
 Alpha  occ. eigenvalues --   -0.47360  -0.47226  -0.46922  -0.46813  -0.46679
 Alpha  occ. eigenvalues --   -0.46034  -0.45796  -0.45658  -0.45595  -0.45405
 Alpha  occ. eigenvalues --   -0.45013  -0.44832  -0.44506  -0.44235  -0.44058
 Alpha  occ. eigenvalues --   -0.43884  -0.43202  -0.42589  -0.42512  -0.42303
 Alpha  occ. eigenvalues --   -0.41557  -0.41483  -0.41165  -0.39050  -0.38839
 Alpha  occ. eigenvalues --   -0.38330  -0.36932  -0.35476  -0.35100  -0.34787
 Alpha  occ. eigenvalues --   -0.33558  -0.32876  -0.32365  -0.32050  -0.26570
 Alpha  occ. eigenvalues --   -0.21917
 Alpha virt. eigenvalues --   -0.08748  -0.02192  -0.00639   0.00864   0.02189
 Alpha virt. eigenvalues --    0.02434   0.02690   0.02974   0.04908   0.04938
 Alpha virt. eigenvalues --    0.06124   0.06841   0.07231   0.07886   0.08053

 Mulliken charges:
               1
     1  Mg   0.418114
     2  C   -0.053721
     3  C   -0.074120
     4  C   -0.062090
     5  C   -0.048938
     6  N   -0.271476
     7  C    0.130978
     8  C    0.005056
     9  C    0.000500
    10  C    0.111815
    11  C   -0.056022
    12  C   -0.018399
    13  C   -0.000105
    14  C    0.464447
    15  O   -0.512030
    16  O   -0.280300
    17  N   -0.306754
    18  C    0.104903
    19  C   -0.001952
    20  C   -0.045006
    21  C    0.144622
    22  C   -0.049508
    23  C    0.328144
    24  O   -0.539117
    25  C   -0.026767
    26  N   -0.265234
    27  C    0.126383
    28  C    0.000574
    29  C    0.007575
    30  C    0.125047
    31  C   -0.050210
    32  C   -0.024885
    33  C   -0.054553
    34  N   -0.341796
    35  C    0.088573
    36  C    0.029550
    37  C   -0.068093
    38  C    0.145671
    39  C   -0.040062
    40  C    0.342155
    41  O   -0.506084
    42  C    0.064043
    43  C    0.489318
    44  O   -0.525809
    45  O   -0.277928
    46  C    0.071755
    47  C    0.111538
    48  C   -0.064749
    49  C   -0.004433
    50  C   -0.049703
    51  C   -0.028957
    52  C   -0.032437
    53  C   -0.027528
    54  C   -0.006574
    55  C   -0.050924
    56  C   -0.046450
    57  C   -0.047155
    58  C   -0.042032
    59  C   -0.004173
    60  C   -0.051028
    61  C   -0.035698
    62  C   -0.040573
    63  C   -0.039945
    64  C   -0.017251
    65  C   -0.057515
    66  C   -0.060605
    67  H    0.032823
    68  H    0.051757
    69  H    0.028414
    70  H    0.049928
    71  H    0.026681
    72  H    0.022047
    73  H    0.025850
    74  H    0.027580
    75  H    0.028595
    76  H    0.025384
    77  H    0.036121
    78  H    0.029642
    79  H    0.024197
    80  H    0.020859
    81  H    0.037459
    82  H    0.023778
    83  H    0.038210
    84  H    0.043757
    85  H    0.036271
    86  H    0.034085
    87  H    0.017248
    88  H    0.027777
    89  H    0.017252
    90  H    0.013462
    91  H    0.021060
    92  H    0.022645
    93  H    0.019587
    94  H    0.026328
    95  H    0.023942
    96  H    0.036964
    97  H    0.029606
    98  H    0.058934
    99  H    0.055296
   100  H    0.026151
   101  H    0.051876
   102  H    0.043825
   103  H    0.052438
   104  H    0.023287
   105  H    0.026605
   106  H    0.024799
   107  H    0.021197
   108  H    0.029915
   109  H    0.016481
   110  H    0.015678
   111  H    0.021450
   112  H    0.009443
   113  H    0.029998
   114  H    0.019941
   115  H    0.021150
   116  H    0.020871
   117  H    0.008134
   118  H    0.023601
   119  H    0.001622
   120  H    0.015475
   121  H    0.010768
   122  H    0.017667
   123  H    0.029148
   124  H    0.030469
   125  H    0.027509
   126  H    0.011389
   127  H    0.015936
   128  H    0.013089
   129  H    0.019827
   130  H    0.011526
   131  H    0.015422
   132  H    0.027939
   133  H    0.011675
   134  H    0.016860
   135  H    0.021817
   136  H    0.018997
   137  H    0.023504
   138  H    0.012593
   139  H    0.023125
   140  H    0.021192
 Sum of Mulliken charges =  -0.00000

 Dipole moment (field-independent basis, Debye):
    X=              5.6272    Y=              2.4698    Z=             -3.9044  Tot=              7.2807
 N-N= 4.262442888071D+03 E-N= 0.000000000000D+00  KE=-9.199220751221D+03
 Leave Link  601 at Fri Apr 29 18:45:59 2022, MaxMem=  6710886400 cpu:               0.8 elap:               0.1
 (Enter /sw/apps/gaussian-16.0/g16/l9999.exe)
 1\1\GINC-BP1-COMPUTE139\SP\RZINDO CIS\STO-3G\C55H74Mg1N4O6\OF15641\29-
 Apr-2022\0\\#p ZINDO=(nstates=5)\\step_401_chromophore_6 ZINDO\\0,1\Mg
 ,0,17.255,-1.677,27.087\C,0,16.248,0.106,29.887\C,0,19.309,-3.645,28.9
 74\C,0,18.623,-2.819,24.16\C,0,15.254,0.511,25.139\N,0,17.875,-1.595,2
 9.18\C,0,17.283,-0.864,30.164\C,0,17.696,-1.425,31.606\C,0,18.828,-2.5
 04,31.272\C,0,18.678,-2.624,29.725\C,0,20.288,-2.147,31.809\C,0,16.537
 ,-2.041,32.435\C,0,16.505,-1.704,33.941\C,0,17.649,-0.913,34.649\O,0,1

 Normal termination of Gaussian 16 at Fri Apr 29 18:45:59 2022.
