 Gaussian 16, Revision A.03,
 Gaussian 16:  ES64L-G16RevA.03 25-Dec-2016

 ------------------------------
 #p blyp/Def2SVP td=(nstates=5)
 ------------------------------

 ---------------------------------------------------
 step_1251_chromophore_24 TDDFT with blyp functional
 ---------------------------------------------------
 Symbolic Z-matrix:
 Charge =  0 Multiplicity = 1

                         Standard orientation:
 ---------------------------------------------------------------------
 Center     Atomic      Atomic             Coordinates (Angstroms)
 Number     Number       Type             X           Y           Z
 ---------------------------------------------------------------------
      1         12           0        5.313477    1.008876    0.345590
      2          6           0        4.325507   -2.364021    0.017057
      3          6           0        1.938663    1.765429    0.041721
      4          6           0        6.253133    4.184309    0.001393
      5          6           0        8.600441    0.023604    0.074693
      6          7           0        3.332241   -0.132988    0.245393
      7          6           0        3.233315   -1.537344    0.160156
      8          6           0        1.795018   -1.921954    0.365112
      9          6           0        1.006926   -0.605031    0.212617
     10          6           0        2.155959    0.435488    0.185943
     11          6           0        0.073912   -0.554010   -1.048974
     12          6           0        1.468916   -2.559143    1.733647
     13          6           0        0.474468   -3.779579    1.644568
     14          6           0       -0.377151   -4.039621    0.420314
     15          8           0       -0.206799   -4.977225   -0.368041
     16          8           0       -1.482355   -3.325539    0.356403
     17          7           0        4.219464    2.775304    0.039658
     18          6           0        2.828942    2.906600   -0.146818
     19          6           0        2.559129    4.271556   -0.545507
     20          6           0        3.719616    5.034435   -0.454719
     21          6           0        4.837414    4.000167   -0.146899
     22          6           0        1.155855    4.633604   -0.997284
     23          6           0        3.947857    6.472764   -0.689380
     24          8           0        5.028717    7.014612   -0.578007
     25          6           0        2.800954    7.358810   -1.202022
     26          7           0        7.098821    1.986293    0.146329
     27          6           0        7.291902    3.330813    0.126122
     28          6           0        8.778569    3.645571    0.112624
     29          6           0        9.368173    2.288393    0.580472
     30          6           0        8.312274    1.389007    0.165888
     31          6           0        9.233893    4.239251   -1.268977
     32          6           0        9.699932    2.204334    2.062179
     33          6           0        9.500029    3.392869    3.036269
     34          7           0        6.320449   -0.869183    0.276293
     35          6           0        7.657832   -1.129374    0.006406
     36          6           0        7.968053   -2.530031   -0.160734
     37          6           0        6.616878   -3.129665   -0.143031
     38          6           0        5.673120   -2.010068    0.062872
     39          6           0        9.301845   -3.229254   -0.441143
     40          6           0        5.920984   -4.348894   -0.321559
     41          8           0        6.306375   -5.474822   -0.448311
     42          6           0        4.375093   -3.899375   -0.310531
     43          6           0        3.802796   -4.093334   -1.707035
     44          8           0        3.948007   -3.336414   -2.635906
     45          8           0        3.152631   -5.328753   -1.818774
     46          6           0        2.228672   -5.514072   -2.968946
     47          6           0       -2.549783   -3.675457   -0.623622
     48          6           0       -3.724356   -2.843706   -0.316836
     49          6           0       -4.992977   -2.939208   -0.780536
     50          6           0       -5.460471   -3.833362   -1.927474
     51          6           0       -6.073195   -2.020620   -0.145444
     52          6           0       -6.584401   -2.794743    1.121932
     53          6           0       -6.459322   -2.008855    2.391685
     54          6           0       -7.793755   -1.398996    2.853584
     55          6           0       -7.878427   -1.553548    4.352808
     56          6           0       -7.996215    0.060895    2.387248
     57          6           0       -9.079498    0.192897    1.261861
     58          6           0      -10.304785    1.131721    1.658971
     59          6           0      -11.222634    1.446418    0.395979
     60          6           0      -10.904951    2.816381   -0.227911
     61          6           0      -12.686160    1.271926    0.770463
     62          6           0      -13.584704    1.124447   -0.473401
     63          6           0      -14.763347    2.241503   -0.478867
     64          6           0      -15.421832    2.296615   -1.863201
     65          6           0      -14.914605    3.636023   -2.520637
     66          6           0      -16.953536    2.116839   -1.819445
     67          1           0        0.903051    2.106614    0.101625
     68          1           0        6.573536    5.175321   -0.324865
     69          1           0        9.669911   -0.200197    0.068201
     70          1           0        1.581090   -2.682968   -0.384630
     71          1           0        0.368106   -0.545053    1.092604
     72          1           0        0.251663   -1.498635   -1.562596
     73          1           0        0.398243    0.249749   -1.710324
     74          1           0       -0.976077   -0.342598   -0.852260
     75          1           0        1.189225   -1.842133    2.505735
     76          1           0        2.404359   -3.038601    2.022502
     77          1           0       -0.143392   -3.725098    2.541212
     78          1           0        1.057060   -4.698092    1.721207
     79          1           0        1.151252    5.362224   -1.808218
     80          1           0        0.600996    5.021697   -0.143473
     81          1           0        0.803253    3.732701   -1.498933
     82          1           0        2.072367    7.531221   -0.410250
     83          1           0        2.332827    7.011442   -2.123584
     84          1           0        3.179601    8.372305   -1.331562
     85          1           0        8.903797    4.449644    0.837081
     86          1           0       10.244265    2.122888   -0.045950
     87          1           0        8.397983    4.222728   -1.969050
     88          1           0       10.080288    3.728854   -1.729081
     89          1           0        9.644935    5.244518   -1.176706
     90          1           0       10.758339    1.971242    2.183246
     91          1           0        9.148739    1.407479    2.562275
     92          1           0       10.253661    4.177301    3.101308
     93          1           0        9.325284    2.944033    4.013928
     94          1           0        8.547950    3.856531    2.776461
     95          1           0        9.729288   -3.476352    0.531371
     96          1           0        9.937394   -2.422866   -0.806323
     97          1           0        9.237868   -4.126998   -1.055664
     98          1           0        3.847636   -4.543088    0.393402
     99          1           0        2.457741   -6.387997   -3.578739
    100          1           0        2.129430   -4.646769   -3.622233
    101          1           0        1.184110   -5.759515   -2.776749
    102          1           0       -2.828299   -4.679859   -0.304240
    103          1           0       -2.271014   -3.617878   -1.674533
    104          1           0       -3.704929   -2.192691    0.555974
    105          1           0       -6.010849   -3.225427   -2.646206
    106          1           0       -6.118171   -4.605554   -1.527638
    107          1           0       -4.597853   -4.402373   -2.273348
    108          1           0       -6.878058   -2.001521   -0.879490
    109          1           0       -5.747081   -1.021603    0.146001
    110          1           0       -5.878579   -3.612556    1.269272
    111          1           0       -7.548763   -3.270458    0.942348
    112          1           0       -5.709789   -1.221745    2.313821
    113          1           0       -6.089202   -2.693956    3.154358
    114          1           0       -8.557429   -2.012917    2.376226
    115          1           0       -8.517184   -0.801257    4.813916
    116          1           0       -6.919606   -1.325716    4.817937
    117          1           0       -8.186555   -2.516158    4.761064
    118          1           0       -7.035656    0.472600    2.078269
    119          1           0       -8.259066    0.708688    3.223365
    120          1           0       -9.515282   -0.746752    0.921610
    121          1           0       -8.619369    0.624441    0.373074
    122          1           0       -9.849400    2.036724    2.061459
    123          1           0      -10.838404    0.614604    2.457102
    124          1           0      -11.030327    0.625575   -0.294479
    125          1           0      -10.120791    3.298705    0.355658
    126          1           0      -11.755398    3.497737   -0.257217
    127          1           0      -10.349832    2.598877   -1.140834
    128          1           0      -13.008916    1.953136    1.557909
    129          1           0      -12.663151    0.298882    1.260550
    130          1           0      -14.113952    0.177713   -0.372223
    131          1           0      -12.998519    1.147986   -1.392510
    132          1           0      -14.397852    3.162721   -0.024197
    133          1           0      -15.522227    1.845772    0.196119
    134          1           0      -15.089362    1.553520   -2.587300
    135          1           0      -15.680301    4.268175   -2.970168
    136          1           0      -14.353658    3.248179   -3.370859
    137          1           0      -14.266589    4.251465   -1.895624
    138          1           0      -17.071499    1.206449   -2.408932
    139          1           0      -17.371409    2.979933   -2.337578
    140          1           0      -17.382426    2.031206   -0.821226
 ---------------------------------------------------------------------

 SCF Done:  E(RB-LYP) =  -3007.35366818     A.U. after   20 cycles

 Excitation energies and oscillator strengths:

 Excited State   1:      Singlet-A      1.7852 eV  694.49 nm  f=0.2816  <S**2>=0.000
     244 -> 247        0.15272
     245 -> 248       -0.17891
     246 -> 247        0.66936
     246 <- 247       -0.15394
 This state for optimization and/or second-order correction.
 Total Energy, E(TD-HF/TD-DFT) =  -3007.28806157
 Copying the excited state density for this state as the 1-particle RhoCI density.

 Excited State   2:      Singlet-A      1.8401 eV  673.79 nm  f=0.0169  <S**2>=0.000
     243 -> 247        0.63940
     244 -> 247        0.12854
     245 -> 247        0.25826

 Excited State   3:      Singlet-A      1.8566 eV  667.82 nm  f=0.0272  <S**2>=0.000
     243 -> 247       -0.11088
     244 -> 247        0.67777
     246 -> 247       -0.16108

 Excited State   4:      Singlet-A      1.9793 eV  626.41 nm  f=0.1154  <S**2>=0.000
     243 -> 247       -0.27161
     245 -> 247        0.60741
     246 -> 248        0.19795

 Excited State   5:      Singlet-A      2.1977 eV  564.16 nm  f=0.0002  <S**2>=0.000
     242 -> 247        0.70690

 The electronic state is 1-A.
 Alpha  occ. eigenvalues --  -46.27427 -18.82772 -18.80445 -18.76089 -18.75972
 Alpha  occ. eigenvalues --  -18.75445 -18.75428 -14.03079 -14.02735 -14.01450
 Alpha  occ. eigenvalues --  -14.01186 -10.04188 -10.03082  -9.99638  -9.99083
 Alpha  occ. eigenvalues --   -9.98981  -9.96717  -9.96433  -9.96122  -9.96120
 Alpha  occ. eigenvalues --   -9.96110  -9.95935  -9.95837  -9.95664  -9.94648
 Alpha  occ. eigenvalues --   -9.94353  -9.94122  -9.94001  -9.93945  -9.93828
 Alpha  occ. eigenvalues --   -9.93770  -9.93674  -9.93647  -9.93594  -9.93382
 Alpha  occ. eigenvalues --   -9.93165  -9.93124  -9.93120  -9.93084  -9.92857
 Alpha  occ. eigenvalues --   -9.92828  -9.92791  -9.92760  -9.92486  -9.92334
 Alpha  occ. eigenvalues --   -9.92045  -9.92018  -9.91839  -9.91819  -9.91764
 Alpha  occ. eigenvalues --   -9.91724  -9.91723  -9.91689  -9.91548  -9.91536
 Alpha  occ. eigenvalues --   -9.91493  -9.91456  -9.91362  -9.91281  -9.91221
 Alpha  occ. eigenvalues --   -9.91127  -9.91002  -9.90745  -9.90692  -9.90641
 Alpha  occ. eigenvalues --   -9.90564  -2.91997  -1.72434  -1.71849  -1.71734
 Alpha  occ. eigenvalues --   -0.99331  -0.95749  -0.92178  -0.91946  -0.88944
 Alpha  occ. eigenvalues --   -0.88441  -0.87282  -0.86550  -0.85373  -0.83783
 Alpha  occ. eigenvalues --   -0.74723  -0.74370  -0.73376  -0.72974  -0.72889
 Alpha  occ. eigenvalues --   -0.72359  -0.71501  -0.70915  -0.70518  -0.70402
 Alpha  occ. eigenvalues --   -0.69561  -0.69302  -0.68105  -0.67242  -0.66902
 Alpha  occ. eigenvalues --   -0.66339  -0.65549  -0.65357  -0.64272  -0.64089
 Alpha  occ. eigenvalues --   -0.64036  -0.62724  -0.62289  -0.62075  -0.60887
 Alpha  occ. eigenvalues --   -0.60229  -0.60191  -0.59877  -0.59767  -0.58905
 Alpha  occ. eigenvalues --   -0.58616  -0.58028  -0.56681  -0.56230  -0.55287
 Alpha  occ. eigenvalues --   -0.54051  -0.53942  -0.52951  -0.52402  -0.51821
 Alpha  occ. eigenvalues --   -0.51134  -0.51003  -0.50701  -0.50510  -0.50235
 Alpha  occ. eigenvalues --   -0.49776  -0.49580  -0.48417  -0.47623  -0.46605
 Alpha  occ. eigenvalues --   -0.46372  -0.45841  -0.45393  -0.45324  -0.44367
 Alpha  occ. eigenvalues --   -0.43854  -0.43534  -0.43044  -0.42920  -0.42400
 Alpha  occ. eigenvalues --   -0.42093  -0.41580  -0.41353  -0.41258  -0.41001
 Alpha  occ. eigenvalues --   -0.40770  -0.40551  -0.40149  -0.40092  -0.39928
 Alpha  occ. eigenvalues --   -0.39575  -0.39497  -0.39378  -0.39235  -0.39000
 Alpha  occ. eigenvalues --   -0.38898  -0.38652  -0.38293  -0.38198  -0.38193
 Alpha  occ. eigenvalues --   -0.37812  -0.37746  -0.37574  -0.37502  -0.37386
 Alpha  occ. eigenvalues --   -0.37188  -0.37078  -0.36868  -0.36417  -0.36290
 Alpha  occ. eigenvalues --   -0.36102  -0.36026  -0.35755  -0.35725  -0.35339
 Alpha  occ. eigenvalues --   -0.35192  -0.35142  -0.34963  -0.34860  -0.34754
 Alpha  occ. eigenvalues --   -0.34623  -0.34456  -0.34293  -0.34098  -0.33959
 Alpha  occ. eigenvalues --   -0.33873  -0.33744  -0.33433  -0.33307  -0.33176
 Alpha  occ. eigenvalues --   -0.32976  -0.32887  -0.32859  -0.32672  -0.32341
 Alpha  occ. eigenvalues --   -0.32221  -0.31987  -0.31867  -0.31573  -0.31423
 Alpha  occ. eigenvalues --   -0.31152  -0.31126  -0.30866  -0.30800  -0.30772
 Alpha  occ. eigenvalues --   -0.30561  -0.30426  -0.30160  -0.29968  -0.29837
 Alpha  occ. eigenvalues --   -0.29746  -0.29422  -0.29283  -0.29010  -0.28988
 Alpha  occ. eigenvalues --   -0.28467  -0.28353  -0.28184  -0.28022  -0.27742
 Alpha  occ. eigenvalues --   -0.27397  -0.27296  -0.27211  -0.26824  -0.26393
 Alpha  occ. eigenvalues --   -0.26363  -0.26024  -0.25997  -0.25815  -0.25706
 Alpha  occ. eigenvalues --   -0.25524  -0.24684  -0.23728  -0.23311  -0.23183
 Alpha  occ. eigenvalues --   -0.22957  -0.22319  -0.21324  -0.21185  -0.21106
 Alpha  occ. eigenvalues --   -0.20228  -0.19968  -0.18623  -0.18597  -0.17202
 Alpha  occ. eigenvalues --   -0.15999
 Alpha virt. eigenvalues --   -0.11892  -0.06664  -0.06239  -0.04287  -0.03441
 Alpha virt. eigenvalues --   -0.02584  -0.02091  -0.01798  -0.01078   0.00915
 Alpha virt. eigenvalues --    0.01364   0.01735   0.02229   0.02538   0.02569

 Mulliken charges:
               1
     1  Mg   0.692270
     2  C    0.059888
     3  C   -0.048647
     4  C   -0.028541
     5  C   -0.069400
     6  N   -0.181336
     7  C   -0.095763
     8  C   -0.024963
     9  C    0.012581
    10  C    0.046112
    11  C    0.128259
    12  C    0.144846
    13  C    0.138166
    14  C    0.050370
    15  O   -0.217917
    16  O   -0.251520
    17  N   -0.306026
    18  C    0.086985
    19  C   -0.144532
    20  C    0.077765
    21  C    0.065137
    22  C    0.182769
    23  C   -0.106730
    24  O   -0.149987
    25  C    0.112804
    26  N   -0.248814
    27  C    0.023788
    28  C   -0.000922
    29  C    0.087870
    30  C    0.028614
    31  C    0.128750
    32  C    0.107751
    33  C    0.055029
    34  N   -0.240961
    35  C    0.103684
    36  C   -0.160110
    37  C    0.058116
    38  C    0.066713
    39  C    0.196215
    40  C   -0.063800
    41  O   -0.095358
    42  C   -0.001747
    43  C    0.128614
    44  O   -0.160382
    45  O   -0.282297
    46  C    0.215395
    47  C    0.346877
    48  C   -0.110016
    49  C   -0.217560
    50  C    0.164578
    51  C    0.150753
    52  C    0.062930
    53  C    0.104831
    54  C   -0.051989
    55  C    0.106868
    56  C    0.151163
    57  C    0.019058
    58  C    0.075625
    59  C   -0.091093
    60  C    0.149470
    61  C    0.101654
    62  C    0.059778
    63  C    0.087048
    64  C   -0.105753
    65  C    0.087103
    66  C    0.120164
    67  H   -0.059640
    68  H   -0.037921
    69  H   -0.064150
    70  H   -0.003733
    71  H   -0.024270
    72  H   -0.005201
    73  H   -0.016202
    74  H   -0.002499
    75  H   -0.015709
    76  H   -0.025886
    77  H   -0.007058
    78  H    0.003489
    79  H   -0.019494
    80  H    0.015025
    81  H   -0.000423
    82  H   -0.006215
    83  H    0.021266
    84  H   -0.020228
    85  H   -0.026548
    86  H   -0.046284
    87  H    0.007358
    88  H   -0.015681
    89  H   -0.006472
    90  H   -0.024112
    91  H   -0.019814
    92  H    0.003419
    93  H   -0.015076
    94  H   -0.003883
    95  H   -0.000811
    96  H   -0.011955
    97  H    0.026367
    98  H   -0.011744
    99  H    0.000110
   100  H    0.005892
   101  H    0.006828
   102  H    0.005040
   103  H    0.028896
   104  H   -0.035969
   105  H    0.013694
   106  H   -0.008900
   107  H   -0.015922
   108  H   -0.042832
   109  H   -0.012489
   110  H   -0.026950
   111  H   -0.026620
   112  H   -0.038128
   113  H   -0.042090
   114  H   -0.041276
   115  H   -0.033512
   116  H   -0.028265
   117  H   -0.015033
   118  H   -0.045963
   119  H   -0.041068
   120  H   -0.019897
   121  H   -0.035009
   122  H   -0.029636
   123  H   -0.030968
   124  H   -0.040803
   125  H   -0.034727
   126  H   -0.000376
   127  H   -0.019288
   128  H   -0.031844
   129  H   -0.052325
   130  H   -0.026785
   131  H   -0.016720
   132  H   -0.016112
   133  H   -0.041965
   134  H   -0.029547
   135  H   -0.023287
   136  H   -0.022857
   137  H   -0.005679
   138  H   -0.013305
   139  H   -0.022416
   140  H   -0.008039
 Sum of Mulliken charges =  -0.00000

 Dipole moment (field-independent basis, Debye):
    X=             -4.6009    Y=              2.6124    Z=              2.4778  Tot=              5.8423
 Quadrupole moment (field-independent basis, Debye-Ang):
   XX=           -376.0984   YY=           -449.9352   ZZ=           -401.0419
   XY=             28.2858   XZ=             19.3024   YZ=             -3.9951

 Normal termination of Gaussian 16 at Wed May  4 02:58:41 2022.
