 Gaussian 16, Revision A.03,
 Gaussian 16:  ES64L-G16RevA.03 25-Dec-2016

 -----------------------------------
 #p cam-b3lyp/Def2SVP td=(nstates=5)
 -----------------------------------

 --------------------------------------------------------
 step_1251_chromophore_24 TDDFT with cam-b3lyp functional
 --------------------------------------------------------
 Symbolic Z-matrix:
 Charge =  0 Multiplicity = 1

                         Standard orientation:
 ---------------------------------------------------------------------
 Center     Atomic      Atomic             Coordinates (Angstroms)
 Number     Number       Type             X           Y           Z
 ---------------------------------------------------------------------
      1         12           0        5.313477    1.008876    0.345590
      2          6           0        4.325507   -2.364021    0.017057
      3          6           0        1.938663    1.765429    0.041721
      4          6           0        6.253133    4.184309    0.001393
      5          6           0        8.600441    0.023604    0.074693
      6          7           0        3.332241   -0.132988    0.245393
      7          6           0        3.233315   -1.537344    0.160156
      8          6           0        1.795018   -1.921954    0.365112
      9          6           0        1.006926   -0.605031    0.212617
     10          6           0        2.155959    0.435488    0.185943
     11          6           0        0.073912   -0.554010   -1.048974
     12          6           0        1.468916   -2.559143    1.733647
     13          6           0        0.474468   -3.779579    1.644568
     14          6           0       -0.377151   -4.039621    0.420314
     15          8           0       -0.206799   -4.977225   -0.368041
     16          8           0       -1.482355   -3.325539    0.356403
     17          7           0        4.219464    2.775304    0.039658
     18          6           0        2.828942    2.906600   -0.146818
     19          6           0        2.559129    4.271556   -0.545507
     20          6           0        3.719616    5.034435   -0.454719
     21          6           0        4.837414    4.000167   -0.146899
     22          6           0        1.155855    4.633604   -0.997284
     23          6           0        3.947857    6.472764   -0.689380
     24          8           0        5.028717    7.014612   -0.578007
     25          6           0        2.800954    7.358810   -1.202022
     26          7           0        7.098821    1.986293    0.146329
     27          6           0        7.291902    3.330813    0.126122
     28          6           0        8.778569    3.645571    0.112624
     29          6           0        9.368173    2.288393    0.580472
     30          6           0        8.312274    1.389007    0.165888
     31          6           0        9.233893    4.239251   -1.268977
     32          6           0        9.699932    2.204334    2.062179
     33          6           0        9.500029    3.392869    3.036269
     34          7           0        6.320449   -0.869183    0.276293
     35          6           0        7.657832   -1.129374    0.006406
     36          6           0        7.968053   -2.530031   -0.160734
     37          6           0        6.616878   -3.129665   -0.143031
     38          6           0        5.673120   -2.010068    0.062872
     39          6           0        9.301845   -3.229254   -0.441143
     40          6           0        5.920984   -4.348894   -0.321559
     41          8           0        6.306375   -5.474822   -0.448311
     42          6           0        4.375093   -3.899375   -0.310531
     43          6           0        3.802796   -4.093334   -1.707035
     44          8           0        3.948007   -3.336414   -2.635906
     45          8           0        3.152631   -5.328753   -1.818774
     46          6           0        2.228672   -5.514072   -2.968946
     47          6           0       -2.549783   -3.675457   -0.623622
     48          6           0       -3.724356   -2.843706   -0.316836
     49          6           0       -4.992977   -2.939208   -0.780536
     50          6           0       -5.460471   -3.833362   -1.927474
     51          6           0       -6.073195   -2.020620   -0.145444
     52          6           0       -6.584401   -2.794743    1.121932
     53          6           0       -6.459322   -2.008855    2.391685
     54          6           0       -7.793755   -1.398996    2.853584
     55          6           0       -7.878427   -1.553548    4.352808
     56          6           0       -7.996215    0.060895    2.387248
     57          6           0       -9.079498    0.192897    1.261861
     58          6           0      -10.304785    1.131721    1.658971
     59          6           0      -11.222634    1.446418    0.395979
     60          6           0      -10.904951    2.816381   -0.227911
     61          6           0      -12.686160    1.271926    0.770463
     62          6           0      -13.584704    1.124447   -0.473401
     63          6           0      -14.763347    2.241503   -0.478867
     64          6           0      -15.421832    2.296615   -1.863201
     65          6           0      -14.914605    3.636023   -2.520637
     66          6           0      -16.953536    2.116839   -1.819445
     67          1           0        0.903051    2.106614    0.101625
     68          1           0        6.573536    5.175321   -0.324865
     69          1           0        9.669911   -0.200197    0.068201
     70          1           0        1.581090   -2.682968   -0.384630
     71          1           0        0.368106   -0.545053    1.092604
     72          1           0        0.251663   -1.498635   -1.562596
     73          1           0        0.398243    0.249749   -1.710324
     74          1           0       -0.976077   -0.342598   -0.852260
     75          1           0        1.189225   -1.842133    2.505735
     76          1           0        2.404359   -3.038601    2.022502
     77          1           0       -0.143392   -3.725098    2.541212
     78          1           0        1.057060   -4.698092    1.721207
     79          1           0        1.151252    5.362224   -1.808218
     80          1           0        0.600996    5.021697   -0.143473
     81          1           0        0.803253    3.732701   -1.498933
     82          1           0        2.072367    7.531221   -0.410250
     83          1           0        2.332827    7.011442   -2.123584
     84          1           0        3.179601    8.372305   -1.331562
     85          1           0        8.903797    4.449644    0.837081
     86          1           0       10.244265    2.122888   -0.045950
     87          1           0        8.397983    4.222728   -1.969050
     88          1           0       10.080288    3.728854   -1.729081
     89          1           0        9.644935    5.244518   -1.176706
     90          1           0       10.758339    1.971242    2.183246
     91          1           0        9.148739    1.407479    2.562275
     92          1           0       10.253661    4.177301    3.101308
     93          1           0        9.325284    2.944033    4.013928
     94          1           0        8.547950    3.856531    2.776461
     95          1           0        9.729288   -3.476352    0.531371
     96          1           0        9.937394   -2.422866   -0.806323
     97          1           0        9.237868   -4.126998   -1.055664
     98          1           0        3.847636   -4.543088    0.393402
     99          1           0        2.457741   -6.387997   -3.578739
    100          1           0        2.129430   -4.646769   -3.622233
    101          1           0        1.184110   -5.759515   -2.776749
    102          1           0       -2.828299   -4.679859   -0.304240
    103          1           0       -2.271014   -3.617878   -1.674533
    104          1           0       -3.704929   -2.192691    0.555974
    105          1           0       -6.010849   -3.225427   -2.646206
    106          1           0       -6.118171   -4.605554   -1.527638
    107          1           0       -4.597853   -4.402373   -2.273348
    108          1           0       -6.878058   -2.001521   -0.879490
    109          1           0       -5.747081   -1.021603    0.146001
    110          1           0       -5.878579   -3.612556    1.269272
    111          1           0       -7.548763   -3.270458    0.942348
    112          1           0       -5.709789   -1.221745    2.313821
    113          1           0       -6.089202   -2.693956    3.154358
    114          1           0       -8.557429   -2.012917    2.376226
    115          1           0       -8.517184   -0.801257    4.813916
    116          1           0       -6.919606   -1.325716    4.817937
    117          1           0       -8.186555   -2.516158    4.761064
    118          1           0       -7.035656    0.472600    2.078269
    119          1           0       -8.259066    0.708688    3.223365
    120          1           0       -9.515282   -0.746752    0.921610
    121          1           0       -8.619369    0.624441    0.373074
    122          1           0       -9.849400    2.036724    2.061459
    123          1           0      -10.838404    0.614604    2.457102
    124          1           0      -11.030327    0.625575   -0.294479
    125          1           0      -10.120791    3.298705    0.355658
    126          1           0      -11.755398    3.497737   -0.257217
    127          1           0      -10.349832    2.598877   -1.140834
    128          1           0      -13.008916    1.953136    1.557909
    129          1           0      -12.663151    0.298882    1.260550
    130          1           0      -14.113952    0.177713   -0.372223
    131          1           0      -12.998519    1.147986   -1.392510
    132          1           0      -14.397852    3.162721   -0.024197
    133          1           0      -15.522227    1.845772    0.196119
    134          1           0      -15.089362    1.553520   -2.587300
    135          1           0      -15.680301    4.268175   -2.970168
    136          1           0      -14.353658    3.248179   -3.370859
    137          1           0      -14.266589    4.251465   -1.895624
    138          1           0      -17.071499    1.206449   -2.408932
    139          1           0      -17.371409    2.979933   -2.337578
    140          1           0      -17.382426    2.031206   -0.821226
 ---------------------------------------------------------------------

 SCF Done:  E(RCAM-B3LYP) =  -3007.14509004     A.U. after   17 cycles

 Excitation energies and oscillator strengths:

 Excited State   1:      Singlet-A      1.6762 eV  739.69 nm  f=0.4006  <S**2>=0.000
     245 -> 248       -0.16492
     246 -> 247        0.68971
     245 <- 248       -0.10344
 This state for optimization and/or second-order correction.
 Total Energy, E(TD-HF/TD-DFT) =  -3007.08349226
 Copying the excited state density for this state as the 1-particle RhoCI density.

 Excited State   2:      Singlet-A      2.1509 eV  576.44 nm  f=0.1708  <S**2>=0.000
     245 -> 247        0.66146
     246 -> 248        0.23409

 Excited State   3:      Singlet-A      3.2934 eV  376.46 nm  f=0.0057  <S**2>=0.000
     241 -> 247       -0.21321
     244 -> 247        0.66292

 Excited State   4:      Singlet-A      3.4421 eV  360.20 nm  f=0.0008  <S**2>=0.000
     242 -> 247        0.60846
     242 -> 249       -0.26140
     242 -> 250        0.17307

 Excited State   5:      Singlet-A      3.4768 eV  356.60 nm  f=0.0199  <S**2>=0.000
     240 -> 247       -0.27523
     240 -> 249       -0.13186
     241 -> 247        0.53500
     244 -> 247        0.15179
     246 -> 248       -0.25047

 The electronic state is 1-A.
 Alpha  occ. eigenvalues --  -46.88962 -19.25651 -19.23240 -19.19029 -19.19002
 Alpha  occ. eigenvalues --  -19.18997 -19.18199 -14.42037 -14.41438 -14.40169
 Alpha  occ. eigenvalues --  -14.39421 -10.39366 -10.38481 -10.35133 -10.33984
 Alpha  occ. eigenvalues --  -10.33183 -10.31675 -10.30945 -10.30735 -10.30708
 Alpha  occ. eigenvalues --  -10.30449 -10.29979 -10.29853 -10.29684 -10.29212
 Alpha  occ. eigenvalues --  -10.28645 -10.28437 -10.28052 -10.27939 -10.27926
 Alpha  occ. eigenvalues --  -10.27891 -10.27837 -10.27814 -10.27657 -10.27608
 Alpha  occ. eigenvalues --  -10.27556 -10.27332 -10.27126 -10.26847 -10.26841
 Alpha  occ. eigenvalues --  -10.26735 -10.26291 -10.26283 -10.26250 -10.26016
 Alpha  occ. eigenvalues --  -10.25920 -10.25836 -10.25731 -10.25722 -10.25618
 Alpha  occ. eigenvalues --  -10.25554 -10.25540 -10.25529 -10.25426 -10.25273
 Alpha  occ. eigenvalues --  -10.25198 -10.25164 -10.25153 -10.25007 -10.24962
 Alpha  occ. eigenvalues --  -10.24779 -10.24616 -10.24353 -10.24314 -10.24287
 Alpha  occ. eigenvalues --  -10.24187  -3.17435  -1.92349  -1.91867  -1.91755
 Alpha  occ. eigenvalues --   -1.17780  -1.14223  -1.10712  -1.10259  -1.06753
 Alpha  occ. eigenvalues --   -1.06211  -1.04950  -1.04317  -1.02636  -1.01588
 Alpha  occ. eigenvalues --   -0.91670  -0.91306  -0.90169  -0.89707  -0.89616
 Alpha  occ. eigenvalues --   -0.89104  -0.88283  -0.87527  -0.87294  -0.87037
 Alpha  occ. eigenvalues --   -0.85856  -0.85551  -0.84399  -0.83368  -0.82943
 Alpha  occ. eigenvalues --   -0.82444  -0.81573  -0.81386  -0.80396  -0.79926
 Alpha  occ. eigenvalues --   -0.79770  -0.78481  -0.78137  -0.77482  -0.76272
 Alpha  occ. eigenvalues --   -0.75622  -0.75492  -0.75231  -0.75028  -0.74155
 Alpha  occ. eigenvalues --   -0.73697  -0.73003  -0.71572  -0.71101  -0.69925
 Alpha  occ. eigenvalues --   -0.68721  -0.68570  -0.67431  -0.66786  -0.66107
 Alpha  occ. eigenvalues --   -0.65264  -0.65189  -0.64566  -0.64470  -0.64135
 Alpha  occ. eigenvalues --   -0.63614  -0.63586  -0.62304  -0.61200  -0.60220
 Alpha  occ. eigenvalues --   -0.59961  -0.59257  -0.58852  -0.58711  -0.57731
 Alpha  occ. eigenvalues --   -0.57178  -0.56944  -0.56184  -0.55817  -0.55573
 Alpha  occ. eigenvalues --   -0.55118  -0.54797  -0.54207  -0.53987  -0.53845
 Alpha  occ. eigenvalues --   -0.53667  -0.53478  -0.53075  -0.53012  -0.52737
 Alpha  occ. eigenvalues --   -0.52593  -0.52149  -0.52037  -0.51749  -0.51655
 Alpha  occ. eigenvalues --   -0.51552  -0.51084  -0.50814  -0.50728  -0.50527
 Alpha  occ. eigenvalues --   -0.50388  -0.50253  -0.50054  -0.49854  -0.49655
 Alpha  occ. eigenvalues --   -0.49528  -0.49429  -0.49092  -0.48756  -0.48499
 Alpha  occ. eigenvalues --   -0.48443  -0.48371  -0.48061  -0.48044  -0.47724
 Alpha  occ. eigenvalues --   -0.47526  -0.47192  -0.47124  -0.46929  -0.46672
 Alpha  occ. eigenvalues --   -0.46439  -0.46284  -0.45994  -0.45955  -0.45710
 Alpha  occ. eigenvalues --   -0.45562  -0.45442  -0.45265  -0.45017  -0.44912
 Alpha  occ. eigenvalues --   -0.44611  -0.44458  -0.44433  -0.44373  -0.43952
 Alpha  occ. eigenvalues --   -0.43887  -0.43603  -0.43549  -0.43332  -0.43024
 Alpha  occ. eigenvalues --   -0.42760  -0.42700  -0.42492  -0.42250  -0.42155
 Alpha  occ. eigenvalues --   -0.42018  -0.41925  -0.41380  -0.41068  -0.40981
 Alpha  occ. eigenvalues --   -0.40928  -0.40708  -0.40431  -0.40395  -0.40210
 Alpha  occ. eigenvalues --   -0.40018  -0.39490  -0.39323  -0.39077  -0.38676
 Alpha  occ. eigenvalues --   -0.38304  -0.38055  -0.38033  -0.37618  -0.37579
 Alpha  occ. eigenvalues --   -0.37218  -0.37047  -0.36969  -0.36691  -0.36319
 Alpha  occ. eigenvalues --   -0.36292  -0.35237  -0.34673  -0.34559  -0.33691
 Alpha  occ. eigenvalues --   -0.33486  -0.33477  -0.32480  -0.31809  -0.31112
 Alpha  occ. eigenvalues --   -0.30642  -0.30070  -0.29609  -0.29087  -0.23962
 Alpha  occ. eigenvalues --   -0.21336
 Alpha virt. eigenvalues --   -0.09184  -0.01259   0.00151   0.02576   0.02678
 Alpha virt. eigenvalues --    0.04160   0.05233   0.05696   0.06026   0.06980
 Alpha virt. eigenvalues --    0.08349   0.08471   0.08723   0.08885   0.09165

 Mulliken charges:
               1
     1  Mg   0.824581
     2  C    0.027429
     3  C   -0.068034
     4  C   -0.051232
     5  C   -0.071775
     6  N   -0.250425
     7  C   -0.054560
     8  C   -0.074057
     9  C   -0.037836
    10  C    0.064966
    11  C    0.074012
    12  C    0.092297
    13  C    0.071461
    14  C    0.124295
    15  O   -0.259974
    16  O   -0.314097
    17  N   -0.391102
    18  C    0.101808
    19  C   -0.150886
    20  C    0.006882
    21  C    0.102903
    22  C    0.125148
    23  C   -0.028859
    24  O   -0.188687
    25  C    0.033102
    26  N   -0.324480
    27  C    0.042507
    28  C   -0.056109
    29  C    0.020057
    30  C    0.044616
    31  C    0.071982
    32  C    0.050635
    33  C   -0.002845
    34  N   -0.325800
    35  C    0.097957
    36  C   -0.151735
    37  C   -0.017893
    38  C    0.102616
    39  C    0.145834
    40  C    0.027240
    41  O   -0.138218
    42  C   -0.067620
    43  C    0.215954
    44  O   -0.196516
    45  O   -0.346958
    46  C    0.180616
    47  C    0.315730
    48  C   -0.129892
    49  C   -0.239002
    50  C    0.104742
    51  C    0.091018
    52  C    0.009003
    53  C    0.048227
    54  C   -0.109372
    55  C    0.047049
    56  C    0.092953
    57  C   -0.026381
    58  C    0.027027
    59  C   -0.145845
    60  C    0.087464
    61  C    0.045670
    62  C    0.009429
    63  C    0.033005
    64  C   -0.164838
    65  C    0.031255
    66  C    0.061394
    67  H   -0.022929
    68  H   -0.001387
    69  H   -0.029669
    70  H    0.024031
    71  H    0.011876
    72  H    0.017307
    73  H    0.009522
    74  H    0.021491
    75  H    0.014624
    76  H    0.007049
    77  H    0.026814
    78  H    0.035696
    79  H    0.009210
    80  H    0.043594
    81  H    0.027594
    82  H    0.023608
    83  H    0.047223
    84  H    0.017430
    85  H    0.011209
    86  H   -0.007427
    87  H    0.032127
    88  H    0.009893
    89  H    0.018254
    90  H    0.004500
    91  H    0.010959
    92  H    0.025628
    93  H    0.010503
    94  H    0.014070
    95  H    0.024715
    96  H    0.009903
    97  H    0.051519
    98  H    0.029419
    99  H    0.022157
   100  H    0.030888
   101  H    0.028141
   102  H    0.034949
   103  H    0.053900
   104  H   -0.003558
   105  H    0.036958
   106  H    0.016157
   107  H    0.008036
   108  H   -0.012410
   109  H    0.016056
   110  H    0.004003
   111  H    0.001723
   112  H   -0.012010
   113  H   -0.009171
   114  H   -0.009194
   115  H   -0.008016
   116  H   -0.004248
   117  H    0.010777
   118  H   -0.016861
   119  H   -0.010582
   120  H    0.004253
   121  H   -0.008851
   122  H   -0.003181
   123  H   -0.003045
   124  H   -0.009188
   125  H   -0.008806
   126  H    0.020691
   127  H    0.005327
   128  H   -0.003198
   129  H   -0.020604
   130  H    0.001717
   131  H    0.008534
   132  H    0.009029
   133  H   -0.012832
   134  H    0.002639
   135  H    0.001141
   136  H    0.000277
   137  H    0.015605
   138  H    0.009819
   139  H    0.001423
   140  H    0.015364
 Sum of Mulliken charges =  -0.00000

 Dipole moment (field-independent basis, Debye):
    X=             -5.4693    Y=              3.7424    Z=              2.4191  Tot=              7.0548
 Quadrupole moment (field-independent basis, Debye-Ang):
   XX=           -381.8331   YY=           -445.7843   ZZ=           -400.2903
   XY=             32.8910   XZ=             19.1402   YZ=             -5.3779

 Normal termination of Gaussian 16 at Wed May  4 02:02:48 2022.
