 Gaussian 16, Revision A.03,
 Gaussian 16:  ES64L-G16RevA.03 25-Dec-2016

 ---------------------------------
 #p PBE1PBE/Def2SVP td=(nstates=5)
 ---------------------------------

 ------------------------------------------------------
 step_1251_chromophore_24 TDDFT with PBE1PBE functional
 ------------------------------------------------------
 Symbolic Z-matrix:
 Charge =  0 Multiplicity = 1

                         Standard orientation:
 ---------------------------------------------------------------------
 Center     Atomic      Atomic             Coordinates (Angstroms)
 Number     Number       Type             X           Y           Z
 ---------------------------------------------------------------------
      1         12           0        5.313477    1.008876    0.345590
      2          6           0        4.325507   -2.364021    0.017057
      3          6           0        1.938663    1.765429    0.041721
      4          6           0        6.253133    4.184309    0.001393
      5          6           0        8.600441    0.023604    0.074693
      6          7           0        3.332241   -0.132988    0.245393
      7          6           0        3.233315   -1.537344    0.160156
      8          6           0        1.795018   -1.921954    0.365112
      9          6           0        1.006926   -0.605031    0.212617
     10          6           0        2.155959    0.435488    0.185943
     11          6           0        0.073912   -0.554010   -1.048974
     12          6           0        1.468916   -2.559143    1.733647
     13          6           0        0.474468   -3.779579    1.644568
     14          6           0       -0.377151   -4.039621    0.420314
     15          8           0       -0.206799   -4.977225   -0.368041
     16          8           0       -1.482355   -3.325539    0.356403
     17          7           0        4.219464    2.775304    0.039658
     18          6           0        2.828942    2.906600   -0.146818
     19          6           0        2.559129    4.271556   -0.545507
     20          6           0        3.719616    5.034435   -0.454719
     21          6           0        4.837414    4.000167   -0.146899
     22          6           0        1.155855    4.633604   -0.997284
     23          6           0        3.947857    6.472764   -0.689380
     24          8           0        5.028717    7.014612   -0.578007
     25          6           0        2.800954    7.358810   -1.202022
     26          7           0        7.098821    1.986293    0.146329
     27          6           0        7.291902    3.330813    0.126122
     28          6           0        8.778569    3.645571    0.112624
     29          6           0        9.368173    2.288393    0.580472
     30          6           0        8.312274    1.389007    0.165888
     31          6           0        9.233893    4.239251   -1.268977
     32          6           0        9.699932    2.204334    2.062179
     33          6           0        9.500029    3.392869    3.036269
     34          7           0        6.320449   -0.869183    0.276293
     35          6           0        7.657832   -1.129374    0.006406
     36          6           0        7.968053   -2.530031   -0.160734
     37          6           0        6.616878   -3.129665   -0.143031
     38          6           0        5.673120   -2.010068    0.062872
     39          6           0        9.301845   -3.229254   -0.441143
     40          6           0        5.920984   -4.348894   -0.321559
     41          8           0        6.306375   -5.474822   -0.448311
     42          6           0        4.375093   -3.899375   -0.310531
     43          6           0        3.802796   -4.093334   -1.707035
     44          8           0        3.948007   -3.336414   -2.635906
     45          8           0        3.152631   -5.328753   -1.818774
     46          6           0        2.228672   -5.514072   -2.968946
     47          6           0       -2.549783   -3.675457   -0.623622
     48          6           0       -3.724356   -2.843706   -0.316836
     49          6           0       -4.992977   -2.939208   -0.780536
     50          6           0       -5.460471   -3.833362   -1.927474
     51          6           0       -6.073195   -2.020620   -0.145444
     52          6           0       -6.584401   -2.794743    1.121932
     53          6           0       -6.459322   -2.008855    2.391685
     54          6           0       -7.793755   -1.398996    2.853584
     55          6           0       -7.878427   -1.553548    4.352808
     56          6           0       -7.996215    0.060895    2.387248
     57          6           0       -9.079498    0.192897    1.261861
     58          6           0      -10.304785    1.131721    1.658971
     59          6           0      -11.222634    1.446418    0.395979
     60          6           0      -10.904951    2.816381   -0.227911
     61          6           0      -12.686160    1.271926    0.770463
     62          6           0      -13.584704    1.124447   -0.473401
     63          6           0      -14.763347    2.241503   -0.478867
     64          6           0      -15.421832    2.296615   -1.863201
     65          6           0      -14.914605    3.636023   -2.520637
     66          6           0      -16.953536    2.116839   -1.819445
     67          1           0        0.903051    2.106614    0.101625
     68          1           0        6.573536    5.175321   -0.324865
     69          1           0        9.669911   -0.200197    0.068201
     70          1           0        1.581090   -2.682968   -0.384630
     71          1           0        0.368106   -0.545053    1.092604
     72          1           0        0.251663   -1.498635   -1.562596
     73          1           0        0.398243    0.249749   -1.710324
     74          1           0       -0.976077   -0.342598   -0.852260
     75          1           0        1.189225   -1.842133    2.505735
     76          1           0        2.404359   -3.038601    2.022502
     77          1           0       -0.143392   -3.725098    2.541212
     78          1           0        1.057060   -4.698092    1.721207
     79          1           0        1.151252    5.362224   -1.808218
     80          1           0        0.600996    5.021697   -0.143473
     81          1           0        0.803253    3.732701   -1.498933
     82          1           0        2.072367    7.531221   -0.410250
     83          1           0        2.332827    7.011442   -2.123584
     84          1           0        3.179601    8.372305   -1.331562
     85          1           0        8.903797    4.449644    0.837081
     86          1           0       10.244265    2.122888   -0.045950
     87          1           0        8.397983    4.222728   -1.969050
     88          1           0       10.080288    3.728854   -1.729081
     89          1           0        9.644935    5.244518   -1.176706
     90          1           0       10.758339    1.971242    2.183246
     91          1           0        9.148739    1.407479    2.562275
     92          1           0       10.253661    4.177301    3.101308
     93          1           0        9.325284    2.944033    4.013928
     94          1           0        8.547950    3.856531    2.776461
     95          1           0        9.729288   -3.476352    0.531371
     96          1           0        9.937394   -2.422866   -0.806323
     97          1           0        9.237868   -4.126998   -1.055664
     98          1           0        3.847636   -4.543088    0.393402
     99          1           0        2.457741   -6.387997   -3.578739
    100          1           0        2.129430   -4.646769   -3.622233
    101          1           0        1.184110   -5.759515   -2.776749
    102          1           0       -2.828299   -4.679859   -0.304240
    103          1           0       -2.271014   -3.617878   -1.674533
    104          1           0       -3.704929   -2.192691    0.555974
    105          1           0       -6.010849   -3.225427   -2.646206
    106          1           0       -6.118171   -4.605554   -1.527638
    107          1           0       -4.597853   -4.402373   -2.273348
    108          1           0       -6.878058   -2.001521   -0.879490
    109          1           0       -5.747081   -1.021603    0.146001
    110          1           0       -5.878579   -3.612556    1.269272
    111          1           0       -7.548763   -3.270458    0.942348
    112          1           0       -5.709789   -1.221745    2.313821
    113          1           0       -6.089202   -2.693956    3.154358
    114          1           0       -8.557429   -2.012917    2.376226
    115          1           0       -8.517184   -0.801257    4.813916
    116          1           0       -6.919606   -1.325716    4.817937
    117          1           0       -8.186555   -2.516158    4.761064
    118          1           0       -7.035656    0.472600    2.078269
    119          1           0       -8.259066    0.708688    3.223365
    120          1           0       -9.515282   -0.746752    0.921610
    121          1           0       -8.619369    0.624441    0.373074
    122          1           0       -9.849400    2.036724    2.061459
    123          1           0      -10.838404    0.614604    2.457102
    124          1           0      -11.030327    0.625575   -0.294479
    125          1           0      -10.120791    3.298705    0.355658
    126          1           0      -11.755398    3.497737   -0.257217
    127          1           0      -10.349832    2.598877   -1.140834
    128          1           0      -13.008916    1.953136    1.557909
    129          1           0      -12.663151    0.298882    1.260550
    130          1           0      -14.113952    0.177713   -0.372223
    131          1           0      -12.998519    1.147986   -1.392510
    132          1           0      -14.397852    3.162721   -0.024197
    133          1           0      -15.522227    1.845772    0.196119
    134          1           0      -15.089362    1.553520   -2.587300
    135          1           0      -15.680301    4.268175   -2.970168
    136          1           0      -14.353658    3.248179   -3.370859
    137          1           0      -14.266589    4.251465   -1.895624
    138          1           0      -17.071499    1.206449   -2.408932
    139          1           0      -17.371409    2.979933   -2.337578
    140          1           0      -17.382426    2.031206   -0.821226
 ---------------------------------------------------------------------

 SCF Done:  E(RPBE1PBE) =  -3005.33403063     A.U. after   15 cycles

 Excitation energies and oscillator strengths:

 Excited State   1:      Singlet-A      1.8263 eV  678.89 nm  f=0.3816  <S**2>=0.000
     245 -> 248       -0.16302
     246 -> 247        0.69647
     246 <- 247       -0.11720
 This state for optimization and/or second-order correction.
 Total Energy, E(TD-HF/TD-DFT) =  -3005.26691618
 Copying the excited state density for this state as the 1-particle RhoCI density.

 Excited State   2:      Singlet-A      2.1584 eV  574.44 nm  f=0.1624  <S**2>=0.000
     245 -> 247        0.66956
     246 -> 248        0.21318

 Excited State   3:      Singlet-A      2.8606 eV  433.42 nm  f=0.0006  <S**2>=0.000
     242 -> 247        0.63678
     242 -> 249       -0.13585
     243 -> 247        0.25413

 Excited State   4:      Singlet-A      2.9402 eV  421.68 nm  f=0.0077  <S**2>=0.000
     240 -> 247       -0.11516
     242 -> 247       -0.25605
     243 -> 247        0.63796

 Excited State   5:      Singlet-A      2.9668 eV  417.91 nm  f=0.0001  <S**2>=0.000
     241 -> 247        0.67577
     241 -> 249        0.14177

 The electronic state is 1-A.
 Alpha  occ. eigenvalues --  -46.92362 -19.26292 -19.23959 -19.19313 -19.19277
 Alpha  occ. eigenvalues --  -19.18970 -19.18659 -14.41458 -14.41007 -14.39726
 Alpha  occ. eigenvalues --  -14.39188 -10.36415 -10.35548 -10.32023 -10.31290
 Alpha  occ. eigenvalues --  -10.30556 -10.29132 -10.28617 -10.28382 -10.28182
 Alpha  occ. eigenvalues --  -10.28052 -10.27980 -10.27572 -10.27139 -10.26566
 Alpha  occ. eigenvalues --  -10.26522 -10.26470 -10.25818 -10.25648 -10.25620
 Alpha  occ. eigenvalues --  -10.25514 -10.25473 -10.25470 -10.25380 -10.25361
 Alpha  occ. eigenvalues --  -10.25291 -10.24719 -10.24594 -10.24574 -10.24531
 Alpha  occ. eigenvalues --  -10.24204 -10.23980 -10.23885 -10.23859 -10.23490
 Alpha  occ. eigenvalues --  -10.23339 -10.23303 -10.23251 -10.23229 -10.23222
 Alpha  occ. eigenvalues --  -10.23122 -10.23083 -10.23077 -10.23024 -10.23020
 Alpha  occ. eigenvalues --  -10.22840 -10.22744 -10.22734 -10.22734 -10.22542
 Alpha  occ. eigenvalues --  -10.22354 -10.21974 -10.21854 -10.21741 -10.21673
 Alpha  occ. eigenvalues --  -10.21591  -3.14417  -1.87272  -1.86768  -1.86659
 Alpha  occ. eigenvalues --   -1.12611  -1.09008  -1.05247  -1.05229  -1.01616
 Alpha  occ. eigenvalues --   -1.01097  -0.99590  -0.98879  -0.97513  -0.96025
 Alpha  occ. eigenvalues --   -0.86087  -0.85433  -0.84397  -0.83960  -0.83829
 Alpha  occ. eigenvalues --   -0.83216  -0.82488  -0.81628  -0.81466  -0.81342
 Alpha  occ. eigenvalues --   -0.80078  -0.80020  -0.78572  -0.77587  -0.77164
 Alpha  occ. eigenvalues --   -0.76720  -0.75821  -0.75542  -0.74549  -0.74118
 Alpha  occ. eigenvalues --   -0.74044  -0.72697  -0.72300  -0.71826  -0.70452
 Alpha  occ. eigenvalues --   -0.69842  -0.69708  -0.69376  -0.69328  -0.68331
 Alpha  occ. eigenvalues --   -0.68012  -0.67478  -0.65932  -0.65399  -0.64327
 Alpha  occ. eigenvalues --   -0.63141  -0.62785  -0.61922  -0.61030  -0.60472
 Alpha  occ. eigenvalues --   -0.59758  -0.59414  -0.59069  -0.58803  -0.58457
 Alpha  occ. eigenvalues --   -0.58208  -0.57731  -0.56518  -0.55822  -0.54682
 Alpha  occ. eigenvalues --   -0.54459  -0.53790  -0.53439  -0.53277  -0.52407
 Alpha  occ. eigenvalues --   -0.51508  -0.51425  -0.50696  -0.50323  -0.50127
 Alpha  occ. eigenvalues --   -0.49693  -0.49417  -0.48769  -0.48376  -0.48315
 Alpha  occ. eigenvalues --   -0.48121  -0.47938  -0.47661  -0.47343  -0.47205
 Alpha  occ. eigenvalues --   -0.47055  -0.46776  -0.46548  -0.46307  -0.46193
 Alpha  occ. eigenvalues --   -0.46081  -0.45618  -0.45386  -0.45166  -0.45063
 Alpha  occ. eigenvalues --   -0.45040  -0.44783  -0.44662  -0.44408  -0.44222
 Alpha  occ. eigenvalues --   -0.44111  -0.43991  -0.43735  -0.43272  -0.43096
 Alpha  occ. eigenvalues --   -0.43061  -0.43011  -0.42791  -0.42453  -0.42327
 Alpha  occ. eigenvalues --   -0.42107  -0.41866  -0.41756  -0.41510  -0.41283
 Alpha  occ. eigenvalues --   -0.41176  -0.41040  -0.40723  -0.40645  -0.40477
 Alpha  occ. eigenvalues --   -0.40219  -0.40086  -0.39997  -0.39828  -0.39660
 Alpha  occ. eigenvalues --   -0.39261  -0.39217  -0.39151  -0.39131  -0.38804
 Alpha  occ. eigenvalues --   -0.38612  -0.38406  -0.38326  -0.37994  -0.37779
 Alpha  occ. eigenvalues --   -0.37570  -0.37485  -0.37221  -0.37087  -0.36948
 Alpha  occ. eigenvalues --   -0.36904  -0.36661  -0.36084  -0.35984  -0.35906
 Alpha  occ. eigenvalues --   -0.35664  -0.35558  -0.35269  -0.35153  -0.35026
 Alpha  occ. eigenvalues --   -0.34936  -0.34383  -0.34083  -0.34003  -0.33436
 Alpha  occ. eigenvalues --   -0.33084  -0.33027  -0.32819  -0.32600  -0.32404
 Alpha  occ. eigenvalues --   -0.32157  -0.32048  -0.31922  -0.31512  -0.31410
 Alpha  occ. eigenvalues --   -0.31169  -0.30125  -0.29851  -0.29533  -0.28507
 Alpha  occ. eigenvalues --   -0.28460  -0.28327  -0.28028  -0.27344  -0.26152
 Alpha  occ. eigenvalues --   -0.25708  -0.25210  -0.24994  -0.24885  -0.20874
 Alpha  occ. eigenvalues --   -0.18949
 Alpha virt. eigenvalues --   -0.11568  -0.04885  -0.04014  -0.01781  -0.00412
 Alpha virt. eigenvalues --   -0.00161   0.00867   0.01270   0.01660   0.03656
 Alpha virt. eigenvalues --    0.04307   0.04820   0.05241   0.05427   0.05580

 Mulliken charges:
               1
     1  Mg   0.972950
     2  C   -0.000757
     3  C   -0.068807
     4  C   -0.049358
     5  C   -0.057195
     6  N   -0.357319
     7  C    0.021292
     8  C   -0.147279
     9  C   -0.109844
    10  C    0.101468
    11  C    0.017691
    12  C    0.036853
    13  C    0.003426
    14  C    0.188158
    15  O   -0.293495
    16  O   -0.347257
    17  N   -0.496565
    18  C    0.133708
    19  C   -0.184983
    20  C   -0.046209
    21  C    0.142069
    22  C    0.066284
    23  C    0.021684
    24  O   -0.227782
    25  C   -0.039177
    26  N   -0.427828
    27  C    0.070727
    28  C   -0.136962
    29  C   -0.063614
    30  C    0.076072
    31  C    0.019527
    32  C   -0.000715
    33  C   -0.079345
    34  N   -0.445980
    35  C    0.110537
    36  C   -0.153656
    37  C   -0.061405
    38  C    0.163273
    39  C    0.088010
    40  C    0.112579
    41  O   -0.184123
    42  C   -0.165656
    43  C    0.304544
    44  O   -0.229296
    45  O   -0.379439
    46  C    0.126400
    47  C    0.277488
    48  C   -0.137255
    49  C   -0.290627
    50  C    0.040857
    51  C    0.027825
    52  C   -0.050257
    53  C   -0.006151
    54  C   -0.198373
    55  C   -0.014123
    56  C    0.044484
    57  C   -0.089626
    58  C   -0.027496
    59  C   -0.231562
    60  C    0.028508
    61  C   -0.010616
    62  C   -0.052141
    63  C   -0.024621
    64  C   -0.253245
    65  C   -0.026390
    66  C    0.000799
    67  H    0.009248
    68  H    0.030461
    69  H    0.002021
    70  H    0.069801
    71  H    0.047920
    72  H    0.044250
    73  H    0.038088
    74  H    0.047813
    75  H    0.044824
    76  H    0.043387
    77  H    0.058969
    78  H    0.067116
    79  H    0.036779
    80  H    0.070297
    81  H    0.053383
    82  H    0.050722
    83  H    0.071867
    84  H    0.044726
    85  H    0.048648
    86  H    0.029378
    87  H    0.059615
    88  H    0.036547
    89  H    0.045136
    90  H    0.037846
    91  H    0.043321
    92  H    0.053275
    93  H    0.040071
    94  H    0.044753
    95  H    0.054766
    96  H    0.039033
    97  H    0.078207
    98  H    0.065962
    99  H    0.044326
   100  H    0.052050
   101  H    0.050765
   102  H    0.062202
   103  H    0.077303
   104  H    0.027441
   105  H    0.063238
   106  H    0.044669
   107  H    0.036081
   108  H    0.021630
   109  H    0.047110
   110  H    0.039006
   111  H    0.032156
   112  H    0.019317
   113  H    0.024386
   114  H    0.029732
   115  H    0.020331
   116  H    0.024114
   117  H    0.038760
   118  H    0.014955
   119  H    0.020676
   120  H    0.035275
   121  H    0.025281
   122  H    0.029322
   123  H    0.029285
   124  H    0.028739
   125  H    0.019006
   126  H    0.048446
   127  H    0.032655
   128  H    0.028141
   129  H    0.014895
   130  H    0.035360
   131  H    0.039713
   132  H    0.039216
   133  H    0.021519
   134  H    0.038888
   135  H    0.027934
   136  H    0.027724
   137  H    0.042078
   138  H    0.036993
   139  H    0.029025
   140  H    0.041345
 Sum of Mulliken charges =  -0.00000

 Dipole moment (field-independent basis, Debye):
    X=             -5.0838    Y=              3.2079    Z=              2.5360  Tot=              6.5243
 Quadrupole moment (field-independent basis, Debye-Ang):
   XX=           -372.6249   YY=           -444.0727   ZZ=           -397.5696
   XY=             31.5530   XZ=             19.6737   YZ=             -4.9124

 Normal termination of Gaussian 16 at Wed May  4 02:19:05 2022.
