 Gaussian 16, Revision A.03,
 Gaussian 16:  ES64L-G16RevA.03 25-Dec-2016

 --------------------------------
 #p wB97XD/Def2SVP td=(nstates=5)
 --------------------------------

 -----------------------------------------------------
 step_1251_chromophore_24 TDDFT with wB97XD functional
 -----------------------------------------------------
 Symbolic Z-matrix:
 Charge =  0 Multiplicity = 1

                         Standard orientation:
 ---------------------------------------------------------------------
 Center     Atomic      Atomic             Coordinates (Angstroms)
 Number     Number       Type             X           Y           Z
 ---------------------------------------------------------------------
      1         12           0        5.313477    1.008876    0.345590
      2          6           0        4.325507   -2.364021    0.017057
      3          6           0        1.938663    1.765429    0.041721
      4          6           0        6.253133    4.184309    0.001393
      5          6           0        8.600441    0.023604    0.074693
      6          7           0        3.332241   -0.132988    0.245393
      7          6           0        3.233315   -1.537344    0.160156
      8          6           0        1.795018   -1.921954    0.365112
      9          6           0        1.006926   -0.605031    0.212617
     10          6           0        2.155959    0.435488    0.185943
     11          6           0        0.073912   -0.554010   -1.048974
     12          6           0        1.468916   -2.559143    1.733647
     13          6           0        0.474468   -3.779579    1.644568
     14          6           0       -0.377151   -4.039621    0.420314
     15          8           0       -0.206799   -4.977225   -0.368041
     16          8           0       -1.482355   -3.325539    0.356403
     17          7           0        4.219464    2.775304    0.039658
     18          6           0        2.828942    2.906600   -0.146818
     19          6           0        2.559129    4.271556   -0.545507
     20          6           0        3.719616    5.034435   -0.454719
     21          6           0        4.837414    4.000167   -0.146899
     22          6           0        1.155855    4.633604   -0.997284
     23          6           0        3.947857    6.472764   -0.689380
     24          8           0        5.028717    7.014612   -0.578007
     25          6           0        2.800954    7.358810   -1.202022
     26          7           0        7.098821    1.986293    0.146329
     27          6           0        7.291902    3.330813    0.126122
     28          6           0        8.778569    3.645571    0.112624
     29          6           0        9.368173    2.288393    0.580472
     30          6           0        8.312274    1.389007    0.165888
     31          6           0        9.233893    4.239251   -1.268977
     32          6           0        9.699932    2.204334    2.062179
     33          6           0        9.500029    3.392869    3.036269
     34          7           0        6.320449   -0.869183    0.276293
     35          6           0        7.657832   -1.129374    0.006406
     36          6           0        7.968053   -2.530031   -0.160734
     37          6           0        6.616878   -3.129665   -0.143031
     38          6           0        5.673120   -2.010068    0.062872
     39          6           0        9.301845   -3.229254   -0.441143
     40          6           0        5.920984   -4.348894   -0.321559
     41          8           0        6.306375   -5.474822   -0.448311
     42          6           0        4.375093   -3.899375   -0.310531
     43          6           0        3.802796   -4.093334   -1.707035
     44          8           0        3.948007   -3.336414   -2.635906
     45          8           0        3.152631   -5.328753   -1.818774
     46          6           0        2.228672   -5.514072   -2.968946
     47          6           0       -2.549783   -3.675457   -0.623622
     48          6           0       -3.724356   -2.843706   -0.316836
     49          6           0       -4.992977   -2.939208   -0.780536
     50          6           0       -5.460471   -3.833362   -1.927474
     51          6           0       -6.073195   -2.020620   -0.145444
     52          6           0       -6.584401   -2.794743    1.121932
     53          6           0       -6.459322   -2.008855    2.391685
     54          6           0       -7.793755   -1.398996    2.853584
     55          6           0       -7.878427   -1.553548    4.352808
     56          6           0       -7.996215    0.060895    2.387248
     57          6           0       -9.079498    0.192897    1.261861
     58          6           0      -10.304785    1.131721    1.658971
     59          6           0      -11.222634    1.446418    0.395979
     60          6           0      -10.904951    2.816381   -0.227911
     61          6           0      -12.686160    1.271926    0.770463
     62          6           0      -13.584704    1.124447   -0.473401
     63          6           0      -14.763347    2.241503   -0.478867
     64          6           0      -15.421832    2.296615   -1.863201
     65          6           0      -14.914605    3.636023   -2.520637
     66          6           0      -16.953536    2.116839   -1.819445
     67          1           0        0.903051    2.106614    0.101625
     68          1           0        6.573536    5.175321   -0.324865
     69          1           0        9.669911   -0.200197    0.068201
     70          1           0        1.581090   -2.682968   -0.384630
     71          1           0        0.368106   -0.545053    1.092604
     72          1           0        0.251663   -1.498635   -1.562596
     73          1           0        0.398243    0.249749   -1.710324
     74          1           0       -0.976077   -0.342598   -0.852260
     75          1           0        1.189225   -1.842133    2.505735
     76          1           0        2.404359   -3.038601    2.022502
     77          1           0       -0.143392   -3.725098    2.541212
     78          1           0        1.057060   -4.698092    1.721207
     79          1           0        1.151252    5.362224   -1.808218
     80          1           0        0.600996    5.021697   -0.143473
     81          1           0        0.803253    3.732701   -1.498933
     82          1           0        2.072367    7.531221   -0.410250
     83          1           0        2.332827    7.011442   -2.123584
     84          1           0        3.179601    8.372305   -1.331562
     85          1           0        8.903797    4.449644    0.837081
     86          1           0       10.244265    2.122888   -0.045950
     87          1           0        8.397983    4.222728   -1.969050
     88          1           0       10.080288    3.728854   -1.729081
     89          1           0        9.644935    5.244518   -1.176706
     90          1           0       10.758339    1.971242    2.183246
     91          1           0        9.148739    1.407479    2.562275
     92          1           0       10.253661    4.177301    3.101308
     93          1           0        9.325284    2.944033    4.013928
     94          1           0        8.547950    3.856531    2.776461
     95          1           0        9.729288   -3.476352    0.531371
     96          1           0        9.937394   -2.422866   -0.806323
     97          1           0        9.237868   -4.126998   -1.055664
     98          1           0        3.847636   -4.543088    0.393402
     99          1           0        2.457741   -6.387997   -3.578739
    100          1           0        2.129430   -4.646769   -3.622233
    101          1           0        1.184110   -5.759515   -2.776749
    102          1           0       -2.828299   -4.679859   -0.304240
    103          1           0       -2.271014   -3.617878   -1.674533
    104          1           0       -3.704929   -2.192691    0.555974
    105          1           0       -6.010849   -3.225427   -2.646206
    106          1           0       -6.118171   -4.605554   -1.527638
    107          1           0       -4.597853   -4.402373   -2.273348
    108          1           0       -6.878058   -2.001521   -0.879490
    109          1           0       -5.747081   -1.021603    0.146001
    110          1           0       -5.878579   -3.612556    1.269272
    111          1           0       -7.548763   -3.270458    0.942348
    112          1           0       -5.709789   -1.221745    2.313821
    113          1           0       -6.089202   -2.693956    3.154358
    114          1           0       -8.557429   -2.012917    2.376226
    115          1           0       -8.517184   -0.801257    4.813916
    116          1           0       -6.919606   -1.325716    4.817937
    117          1           0       -8.186555   -2.516158    4.761064
    118          1           0       -7.035656    0.472600    2.078269
    119          1           0       -8.259066    0.708688    3.223365
    120          1           0       -9.515282   -0.746752    0.921610
    121          1           0       -8.619369    0.624441    0.373074
    122          1           0       -9.849400    2.036724    2.061459
    123          1           0      -10.838404    0.614604    2.457102
    124          1           0      -11.030327    0.625575   -0.294479
    125          1           0      -10.120791    3.298705    0.355658
    126          1           0      -11.755398    3.497737   -0.257217
    127          1           0      -10.349832    2.598877   -1.140834
    128          1           0      -13.008916    1.953136    1.557909
    129          1           0      -12.663151    0.298882    1.260550
    130          1           0      -14.113952    0.177713   -0.372223
    131          1           0      -12.998519    1.147986   -1.392510
    132          1           0      -14.397852    3.162721   -0.024197
    133          1           0      -15.522227    1.845772    0.196119
    134          1           0      -15.089362    1.553520   -2.587300
    135          1           0      -15.680301    4.268175   -2.970168
    136          1           0      -14.353658    3.248179   -3.370859
    137          1           0      -14.266589    4.251465   -1.895624
    138          1           0      -17.071499    1.206449   -2.408932
    139          1           0      -17.371409    2.979933   -2.337578
    140          1           0      -17.382426    2.031206   -0.821226
 ---------------------------------------------------------------------

 SCF Done:  E(RwB97XD) =  -3007.84355781     A.U. after   18 cycles

 Excitation energies and oscillator strengths:

 Excited State   1:      Singlet-A      1.6249 eV  763.03 nm  f=0.4003  <S**2>=0.000
     245 -> 248       -0.16962
     246 -> 247        0.68732
     245 <- 248       -0.11166
 This state for optimization and/or second-order correction.
 Total Energy, E(TD-HF/TD-DFT) =  -3007.78384432
 Copying the excited state density for this state as the 1-particle RhoCI density.

 Excited State   2:      Singlet-A      2.0966 eV  591.35 nm  f=0.1650  <S**2>=0.000
     245 -> 247        0.65878
     246 -> 248        0.23772

 Excited State   3:      Singlet-A      3.3443 eV  370.73 nm  f=0.0046  <S**2>=0.000
     241 -> 247       -0.28416
     244 -> 247        0.63004

 Excited State   4:      Singlet-A      3.4910 eV  355.15 nm  f=0.0257  <S**2>=0.000
     240 -> 247       -0.24068
     240 -> 249       -0.14235
     241 -> 247        0.48451
     242 -> 247        0.16904
     244 -> 247        0.19611
     246 -> 248       -0.26567

 Excited State   5:      Singlet-A      3.5117 eV  353.06 nm  f=0.0067  <S**2>=0.000
     241 -> 247       -0.12899
     242 -> 247        0.56389
     242 -> 249       -0.28124
     242 -> 250        0.19256
     246 -> 248        0.11591

 The electronic state is 1-A.
 Alpha  occ. eigenvalues --  -46.95292 -19.30843 -19.28448 -19.24060 -19.23921
 Alpha  occ. eigenvalues --  -19.23916 -19.23184 -14.46640 -14.46019 -14.44808
 Alpha  occ. eigenvalues --  -14.43971 -10.43157 -10.42296 -10.39133 -10.37928
 Alpha  occ. eigenvalues --  -10.37071 -10.35823 -10.35092 -10.34730 -10.34712
 Alpha  occ. eigenvalues --  -10.34496 -10.33946 -10.33621 -10.33585 -10.33425
 Alpha  occ. eigenvalues --  -10.32572 -10.32519 -10.32087 -10.32080 -10.31936
 Alpha  occ. eigenvalues --  -10.31907 -10.31837 -10.31801 -10.31689 -10.31621
 Alpha  occ. eigenvalues --  -10.31612 -10.31324 -10.31216 -10.30862 -10.30756
 Alpha  occ. eigenvalues --  -10.30669 -10.30242 -10.30196 -10.30076 -10.29882
 Alpha  occ. eigenvalues --  -10.29824 -10.29780 -10.29695 -10.29652 -10.29602
 Alpha  occ. eigenvalues --  -10.29506 -10.29463 -10.29410 -10.29365 -10.29222
 Alpha  occ. eigenvalues --  -10.29131 -10.29106 -10.29099 -10.29017 -10.28908
 Alpha  occ. eigenvalues --  -10.28714 -10.28433 -10.28237 -10.28188 -10.28098
 Alpha  occ. eigenvalues --  -10.28008  -3.21214  -1.94815  -1.94311  -1.94203
 Alpha  occ. eigenvalues --   -1.19951  -1.16337  -1.12968  -1.12448  -1.08920
 Alpha  occ. eigenvalues --   -1.08387  -1.06939  -1.06312  -1.04620  -1.03673
 Alpha  occ. eigenvalues --   -0.93586  -0.93109  -0.92004  -0.91514  -0.91490
 Alpha  occ. eigenvalues --   -0.90889  -0.90232  -0.89302  -0.89268  -0.88975
 Alpha  occ. eigenvalues --   -0.87723  -0.87453  -0.86249  -0.85242  -0.84783
 Alpha  occ. eigenvalues --   -0.84351  -0.83515  -0.83242  -0.82331  -0.81737
 Alpha  occ. eigenvalues --   -0.81696  -0.80447  -0.80038  -0.79364  -0.78126
 Alpha  occ. eigenvalues --   -0.77438  -0.77416  -0.77036  -0.76934  -0.76003
 Alpha  occ. eigenvalues --   -0.75618  -0.74967  -0.73510  -0.73017  -0.71855
 Alpha  occ. eigenvalues --   -0.70711  -0.70440  -0.69438  -0.68668  -0.68057
 Alpha  occ. eigenvalues --   -0.67202  -0.67089  -0.66494  -0.66339  -0.66048
 Alpha  occ. eigenvalues --   -0.65582  -0.65424  -0.64152  -0.63168  -0.62164
 Alpha  occ. eigenvalues --   -0.61933  -0.61210  -0.60843  -0.60701  -0.59735
 Alpha  occ. eigenvalues --   -0.59024  -0.58852  -0.58115  -0.57738  -0.57560
 Alpha  occ. eigenvalues --   -0.57056  -0.56791  -0.56125  -0.55827  -0.55767
 Alpha  occ. eigenvalues --   -0.55549  -0.55409  -0.55025  -0.54955  -0.54677
 Alpha  occ. eigenvalues --   -0.54476  -0.54070  -0.53939  -0.53659  -0.53524
 Alpha  occ. eigenvalues --   -0.53432  -0.52973  -0.52782  -0.52607  -0.52396
 Alpha  occ. eigenvalues --   -0.52297  -0.52164  -0.51950  -0.51738  -0.51540
 Alpha  occ. eigenvalues --   -0.51428  -0.51323  -0.51003  -0.50735  -0.50404
 Alpha  occ. eigenvalues --   -0.50361  -0.50262  -0.50003  -0.49975  -0.49593
 Alpha  occ. eigenvalues --   -0.49446  -0.49081  -0.49047  -0.48787  -0.48526
 Alpha  occ. eigenvalues --   -0.48348  -0.48219  -0.47882  -0.47867  -0.47627
 Alpha  occ. eigenvalues --   -0.47426  -0.47300  -0.47167  -0.46920  -0.46829
 Alpha  occ. eigenvalues --   -0.46476  -0.46352  -0.46341  -0.46280  -0.45850
 Alpha  occ. eigenvalues --   -0.45775  -0.45539  -0.45456  -0.45265  -0.44976
 Alpha  occ. eigenvalues --   -0.44708  -0.44608  -0.44470  -0.44192  -0.44034
 Alpha  occ. eigenvalues --   -0.43899  -0.43788  -0.43228  -0.42969  -0.42918
 Alpha  occ. eigenvalues --   -0.42785  -0.42585  -0.42338  -0.42251  -0.42075
 Alpha  occ. eigenvalues --   -0.41937  -0.41381  -0.41183  -0.40970  -0.40524
 Alpha  occ. eigenvalues --   -0.40158  -0.39941  -0.39887  -0.39511  -0.39456
 Alpha  occ. eigenvalues --   -0.39184  -0.38947  -0.38915  -0.38540  -0.38404
 Alpha  occ. eigenvalues --   -0.38172  -0.37092  -0.36660  -0.36527  -0.35562
 Alpha  occ. eigenvalues --   -0.35371  -0.35325  -0.34715  -0.34020  -0.33116
 Alpha  occ. eigenvalues --   -0.32869  -0.32014  -0.31637  -0.31217  -0.25881
 Alpha  occ. eigenvalues --   -0.23136
 Alpha virt. eigenvalues --   -0.07536   0.00675   0.02211   0.04685   0.05765
 Alpha virt. eigenvalues --    0.06458   0.07544   0.08072   0.08317   0.09823
 Alpha virt. eigenvalues --    0.11004   0.11733   0.12005   0.12132   0.12331

 Mulliken charges:
               1
     1  Mg   0.962014
     2  C    0.007474
     3  C   -0.084107
     4  C   -0.065026
     5  C   -0.075167
     6  N   -0.320645
     7  C   -0.013268
     8  C   -0.111603
     9  C   -0.088629
    10  C    0.089899
    11  C    0.029614
    12  C    0.047811
    13  C    0.017056
    14  C    0.173092
    15  O   -0.289640
    16  O   -0.343143
    17  N   -0.469565
    18  C    0.124758
    19  C   -0.170616
    20  C   -0.038989
    21  C    0.133918
    22  C    0.079094
    23  C    0.018695
    24  O   -0.220377
    25  C   -0.028846
    26  N   -0.398332
    27  C    0.061003
    28  C   -0.104770
    29  C   -0.034560
    30  C    0.063644
    31  C    0.026707
    32  C    0.003811
    33  C   -0.058645
    34  N   -0.409363
    35  C    0.103609
    36  C   -0.158268
    37  C   -0.061719
    38  C    0.139008
    39  C    0.102258
    40  C    0.099204
    41  O   -0.177236
    42  C   -0.131783
    43  C    0.282731
    44  O   -0.225639
    45  O   -0.378772
    46  C    0.143743
    47  C    0.286312
    48  C   -0.147891
    49  C   -0.268893
    50  C    0.054701
    51  C    0.043733
    52  C   -0.033846
    53  C    0.009382
    54  C   -0.166546
    55  C   -0.000407
    56  C    0.054127
    57  C   -0.068545
    58  C   -0.011381
    59  C   -0.199684
    60  C    0.038177
    61  C    0.003490
    62  C   -0.035375
    63  C   -0.006751
    64  C   -0.226739
    65  C   -0.014558
    66  C    0.013786
    67  H    0.003686
    68  H    0.024529
    69  H   -0.003630
    70  H    0.045452
    71  H    0.038630
    72  H    0.038345
    73  H    0.030495
    74  H    0.043931
    75  H    0.038835
    76  H    0.032604
    77  H    0.054329
    78  H    0.062111
    79  H    0.031974
    80  H    0.068090
    81  H    0.048649
    82  H    0.046559
    83  H    0.067527
    84  H    0.044098
    85  H    0.036782
    86  H    0.020031
    87  H    0.053295
    88  H    0.031691
    89  H    0.040334
    90  H    0.030915
    91  H    0.035355
    92  H    0.047899
    93  H    0.034745
    94  H    0.032241
    95  H    0.048140
    96  H    0.030631
    97  H    0.074744
    98  H    0.060021
    99  H    0.039899
   100  H    0.047467
   101  H    0.046797
   102  H    0.057156
   103  H    0.074407
   104  H    0.022421
   105  H    0.058258
   106  H    0.038656
   107  H    0.030495
   108  H    0.013360
   109  H    0.038198
   110  H    0.026972
   111  H    0.025594
   112  H    0.007709
   113  H    0.016571
   114  H    0.014328
   115  H    0.013592
   116  H    0.016495
   117  H    0.034036
   118  H    0.006702
   119  H    0.011495
   120  H    0.024355
   121  H    0.015209
   122  H    0.018726
   123  H    0.019971
   124  H    0.014526
   125  H    0.012368
   126  H    0.041766
   127  H    0.027293
   128  H    0.020573
   129  H    0.004670
   130  H    0.027675
   131  H    0.029304
   132  H    0.028833
   133  H    0.011112
   134  H    0.028090
   135  H    0.022108
   136  H    0.021412
   137  H    0.035385
   138  H    0.031519
   139  H    0.022229
   140  H    0.035704
 Sum of Mulliken charges =  -0.00000

 Dipole moment (field-independent basis, Debye):
    X=             -5.6155    Y=              3.9171    Z=              2.4447  Tot=              7.2700
 Quadrupole moment (field-independent basis, Debye-Ang):
   XX=           -377.6306   YY=           -441.5125   ZZ=           -397.1285
   XY=             33.8386   XZ=             19.5584   YZ=             -5.5401

 Normal termination of Gaussian 16 at Wed May  4 02:46:57 2022.
