 Gaussian 16, Revision A.03,
 Gaussian 16:  ES64L-G16RevA.03 25-Dec-2016

 --------------------
 #p ZINDO=(nstates=5)
 --------------------

 ------------------------------
 step_1251_chromophore_24 ZINDO
 ------------------------------
 Symbolic Z-matrix:
 Charge =  0 Multiplicity = 1

                         Standard orientation:
 ---------------------------------------------------------------------
 Center     Atomic      Atomic             Coordinates (Angstroms)
 Number     Number       Type             X           Y           Z
 ---------------------------------------------------------------------
      1         12           0        5.313477    1.008876    0.345590
      2          6           0        4.325507   -2.364021    0.017057
      3          6           0        1.938663    1.765429    0.041721
      4          6           0        6.253133    4.184309    0.001393
      5          6           0        8.600441    0.023604    0.074693
      6          7           0        3.332241   -0.132988    0.245393
      7          6           0        3.233315   -1.537344    0.160156
      8          6           0        1.795018   -1.921954    0.365112
      9          6           0        1.006926   -0.605031    0.212617
     10          6           0        2.155959    0.435488    0.185943
     11          6           0        0.073912   -0.554010   -1.048974
     12          6           0        1.468916   -2.559143    1.733647
     13          6           0        0.474468   -3.779579    1.644568
     14          6           0       -0.377151   -4.039621    0.420314
     15          8           0       -0.206799   -4.977225   -0.368041
     16          8           0       -1.482355   -3.325539    0.356403
     17          7           0        4.219464    2.775304    0.039658
     18          6           0        2.828942    2.906600   -0.146818
     19          6           0        2.559129    4.271556   -0.545507
     20          6           0        3.719616    5.034435   -0.454719
     21          6           0        4.837414    4.000167   -0.146899
     22          6           0        1.155855    4.633604   -0.997284
     23          6           0        3.947857    6.472764   -0.689380
     24          8           0        5.028717    7.014612   -0.578007
     25          6           0        2.800954    7.358810   -1.202022
     26          7           0        7.098821    1.986293    0.146329
     27          6           0        7.291902    3.330813    0.126122
     28          6           0        8.778569    3.645571    0.112624
     29          6           0        9.368173    2.288393    0.580472
     30          6           0        8.312274    1.389007    0.165888
     31          6           0        9.233893    4.239251   -1.268977
     32          6           0        9.699932    2.204334    2.062179
     33          6           0        9.500029    3.392869    3.036269
     34          7           0        6.320449   -0.869183    0.276293
     35          6           0        7.657832   -1.129374    0.006406
     36          6           0        7.968053   -2.530031   -0.160734
     37          6           0        6.616878   -3.129665   -0.143031
     38          6           0        5.673120   -2.010068    0.062872
     39          6           0        9.301845   -3.229254   -0.441143
     40          6           0        5.920984   -4.348894   -0.321559
     41          8           0        6.306375   -5.474822   -0.448311
     42          6           0        4.375093   -3.899375   -0.310531
     43          6           0        3.802796   -4.093334   -1.707035
     44          8           0        3.948007   -3.336414   -2.635906
     45          8           0        3.152631   -5.328753   -1.818774
     46          6           0        2.228672   -5.514072   -2.968946
     47          6           0       -2.549783   -3.675457   -0.623622
     48          6           0       -3.724356   -2.843706   -0.316836
     49          6           0       -4.992977   -2.939208   -0.780536
     50          6           0       -5.460471   -3.833362   -1.927474
     51          6           0       -6.073195   -2.020620   -0.145444
     52          6           0       -6.584401   -2.794743    1.121932
     53          6           0       -6.459322   -2.008855    2.391685
     54          6           0       -7.793755   -1.398996    2.853584
     55          6           0       -7.878427   -1.553548    4.352808
     56          6           0       -7.996215    0.060895    2.387248
     57          6           0       -9.079498    0.192897    1.261861
     58          6           0      -10.304785    1.131721    1.658971
     59          6           0      -11.222634    1.446418    0.395979
     60          6           0      -10.904951    2.816381   -0.227911
     61          6           0      -12.686160    1.271926    0.770463
     62          6           0      -13.584704    1.124447   -0.473401
     63          6           0      -14.763347    2.241503   -0.478867
     64          6           0      -15.421832    2.296615   -1.863201
     65          6           0      -14.914605    3.636023   -2.520637
     66          6           0      -16.953536    2.116839   -1.819445
     67          1           0        0.903051    2.106614    0.101625
     68          1           0        6.573536    5.175321   -0.324865
     69          1           0        9.669911   -0.200197    0.068201
     70          1           0        1.581090   -2.682968   -0.384630
     71          1           0        0.368106   -0.545053    1.092604
     72          1           0        0.251663   -1.498635   -1.562596
     73          1           0        0.398243    0.249749   -1.710324
     74          1           0       -0.976077   -0.342598   -0.852260
     75          1           0        1.189225   -1.842133    2.505735
     76          1           0        2.404359   -3.038601    2.022502
     77          1           0       -0.143392   -3.725098    2.541212
     78          1           0        1.057060   -4.698092    1.721207
     79          1           0        1.151252    5.362224   -1.808218
     80          1           0        0.600996    5.021697   -0.143473
     81          1           0        0.803253    3.732701   -1.498933
     82          1           0        2.072367    7.531221   -0.410250
     83          1           0        2.332827    7.011442   -2.123584
     84          1           0        3.179601    8.372305   -1.331562
     85          1           0        8.903797    4.449644    0.837081
     86          1           0       10.244265    2.122888   -0.045950
     87          1           0        8.397983    4.222728   -1.969050
     88          1           0       10.080288    3.728854   -1.729081
     89          1           0        9.644935    5.244518   -1.176706
     90          1           0       10.758339    1.971242    2.183246
     91          1           0        9.148739    1.407479    2.562275
     92          1           0       10.253661    4.177301    3.101308
     93          1           0        9.325284    2.944033    4.013928
     94          1           0        8.547950    3.856531    2.776461
     95          1           0        9.729288   -3.476352    0.531371
     96          1           0        9.937394   -2.422866   -0.806323
     97          1           0        9.237868   -4.126998   -1.055664
     98          1           0        3.847636   -4.543088    0.393402
     99          1           0        2.457741   -6.387997   -3.578739
    100          1           0        2.129430   -4.646769   -3.622233
    101          1           0        1.184110   -5.759515   -2.776749
    102          1           0       -2.828299   -4.679859   -0.304240
    103          1           0       -2.271014   -3.617878   -1.674533
    104          1           0       -3.704929   -2.192691    0.555974
    105          1           0       -6.010849   -3.225427   -2.646206
    106          1           0       -6.118171   -4.605554   -1.527638
    107          1           0       -4.597853   -4.402373   -2.273348
    108          1           0       -6.878058   -2.001521   -0.879490
    109          1           0       -5.747081   -1.021603    0.146001
    110          1           0       -5.878579   -3.612556    1.269272
    111          1           0       -7.548763   -3.270458    0.942348
    112          1           0       -5.709789   -1.221745    2.313821
    113          1           0       -6.089202   -2.693956    3.154358
    114          1           0       -8.557429   -2.012917    2.376226
    115          1           0       -8.517184   -0.801257    4.813916
    116          1           0       -6.919606   -1.325716    4.817937
    117          1           0       -8.186555   -2.516158    4.761064
    118          1           0       -7.035656    0.472600    2.078269
    119          1           0       -8.259066    0.708688    3.223365
    120          1           0       -9.515282   -0.746752    0.921610
    121          1           0       -8.619369    0.624441    0.373074
    122          1           0       -9.849400    2.036724    2.061459
    123          1           0      -10.838404    0.614604    2.457102
    124          1           0      -11.030327    0.625575   -0.294479
    125          1           0      -10.120791    3.298705    0.355658
    126          1           0      -11.755398    3.497737   -0.257217
    127          1           0      -10.349832    2.598877   -1.140834
    128          1           0      -13.008916    1.953136    1.557909
    129          1           0      -12.663151    0.298882    1.260550
    130          1           0      -14.113952    0.177713   -0.372223
    131          1           0      -12.998519    1.147986   -1.392510
    132          1           0      -14.397852    3.162721   -0.024197
    133          1           0      -15.522227    1.845772    0.196119
    134          1           0      -15.089362    1.553520   -2.587300
    135          1           0      -15.680301    4.268175   -2.970168
    136          1           0      -14.353658    3.248179   -3.370859
    137          1           0      -14.266589    4.251465   -1.895624
    138          1           0      -17.071499    1.206449   -2.408932
    139          1           0      -17.371409    2.979933   -2.337578
    140          1           0      -17.382426    2.031206   -0.821226
 ---------------------------------------------------------------------

 SCF Done:  E(RZINDO/S) =  -474.252974211     A.U. after   19 cycles

 Excitation energies and oscillator strengths:

 Excited State   1:      Singlet-A      1.2255 eV 1011.71 nm  f=0.6296  <S**2>=0.000
     175 ->178         0.16571
     176 ->177         0.66911
 This state for optimization and/or second-order correction.
 Total Energy, E(CIS/TDA) =  -474.207938060
 Copying the excited state density for this state as the 1-particle RhoCI density.

 Excited State   2:      Singlet-A      1.9095 eV  649.32 nm  f=0.0959  <S**2>=0.000
     175 ->177         0.57331
     176 ->178        -0.37586

 Excited State   3:      Singlet-A      2.9176 eV  424.95 nm  f=0.0010  <S**2>=0.000
     168 ->177         0.32388
     168 ->178        -0.17093
     168 ->179        -0.38998
     168 ->180        -0.24745
     168 ->186        -0.20042
     169 ->177        -0.10132
     176 ->179        -0.12158

 Excited State   4:      Singlet-A      2.9582 eV  419.12 nm  f=0.6141  <S**2>=0.000
     174 ->177         0.10504
     175 ->177         0.28378
     176 ->178         0.41960
     176 ->179        -0.38749
     176 ->180         0.17794

 Excited State   5:      Singlet-A      3.0205 eV  410.48 nm  f=0.3690  <S**2>=0.000
     175 ->177         0.20949
     176 ->178         0.38821
     176 ->179         0.49499

 The electronic state is 1-A.
 Alpha  occ. eigenvalues --   -1.85503  -1.82311  -1.78173  -1.74844  -1.70778
 Alpha  occ. eigenvalues --   -1.68180  -1.65706  -1.61932  -1.59921  -1.56777
 Alpha  occ. eigenvalues --   -1.55125  -1.52339  -1.48779  -1.47883  -1.46481
 Alpha  occ. eigenvalues --   -1.43747  -1.41813  -1.39689  -1.38487  -1.38009
 Alpha  occ. eigenvalues --   -1.35325  -1.32800  -1.32055  -1.31465  -1.29836
 Alpha  occ. eigenvalues --   -1.26969  -1.23437  -1.22506  -1.21411  -1.18567
 Alpha  occ. eigenvalues --   -1.16982  -1.16564  -1.15159  -1.15134  -1.13538
 Alpha  occ. eigenvalues --   -1.13215  -1.11217  -1.10689  -1.05297  -1.03172
 Alpha  occ. eigenvalues --   -1.02934  -1.02114  -0.98866  -0.98456  -0.97609
 Alpha  occ. eigenvalues --   -0.95951  -0.94572  -0.94231  -0.93052  -0.92053
 Alpha  occ. eigenvalues --   -0.91021  -0.90130  -0.90049  -0.88988  -0.86896
 Alpha  occ. eigenvalues --   -0.85214  -0.85010  -0.82772  -0.82674  -0.80844
 Alpha  occ. eigenvalues --   -0.79622  -0.78736  -0.76818  -0.76539  -0.76125
 Alpha  occ. eigenvalues --   -0.75797  -0.75527  -0.74845  -0.73608  -0.73176
 Alpha  occ. eigenvalues --   -0.72603  -0.71825  -0.71467  -0.70780  -0.70369
 Alpha  occ. eigenvalues --   -0.69980  -0.69413  -0.68816  -0.68265  -0.67911
 Alpha  occ. eigenvalues --   -0.67692  -0.67382  -0.66586  -0.66434  -0.66201
 Alpha  occ. eigenvalues --   -0.65124  -0.64742  -0.64296  -0.63724  -0.63482
 Alpha  occ. eigenvalues --   -0.63258  -0.63024  -0.62567  -0.62204  -0.61746
 Alpha  occ. eigenvalues --   -0.61031  -0.60740  -0.60431  -0.60291  -0.59936
 Alpha  occ. eigenvalues --   -0.59900  -0.59497  -0.58822  -0.58685  -0.58133
 Alpha  occ. eigenvalues --   -0.57821  -0.57631  -0.57369  -0.56606  -0.56192
 Alpha  occ. eigenvalues --   -0.55898  -0.55696  -0.55478  -0.55292  -0.54942
 Alpha  occ. eigenvalues --   -0.54171  -0.53992  -0.53704  -0.53197  -0.52932
 Alpha  occ. eigenvalues --   -0.52334  -0.52248  -0.51890  -0.51712  -0.51260
 Alpha  occ. eigenvalues --   -0.50664  -0.50519  -0.50377  -0.50259  -0.50075
 Alpha  occ. eigenvalues --   -0.49844  -0.49763  -0.49532  -0.49410  -0.49028
 Alpha  occ. eigenvalues --   -0.48658  -0.48425  -0.47906  -0.47767  -0.47706
 Alpha  occ. eigenvalues --   -0.47415  -0.46951  -0.46888  -0.46733  -0.46705
 Alpha  occ. eigenvalues --   -0.46434  -0.46055  -0.46053  -0.45521  -0.45418
 Alpha  occ. eigenvalues --   -0.45056  -0.44777  -0.44611  -0.44338  -0.44122
 Alpha  occ. eigenvalues --   -0.43640  -0.43542  -0.43000  -0.42113  -0.41910
 Alpha  occ. eigenvalues --   -0.41759  -0.41660  -0.40641  -0.38550  -0.38018
 Alpha  occ. eigenvalues --   -0.37706  -0.37200  -0.35996  -0.34325  -0.33755
 Alpha  occ. eigenvalues --   -0.33598  -0.32663  -0.31415  -0.31068  -0.26586
 Alpha  occ. eigenvalues --   -0.21723
 Alpha virt. eigenvalues --   -0.08820  -0.01597  -0.00578   0.01599   0.01817
 Alpha virt. eigenvalues --    0.02428   0.03195   0.03742   0.04588   0.05404
 Alpha virt. eigenvalues --    0.06343   0.06818   0.07099   0.07860   0.08464

 Mulliken charges:
               1
     1  Mg   0.428081
     2  C   -0.019476
     3  C   -0.081601
     4  C   -0.073548
     5  C   -0.089516
     6  N   -0.282889
     7  C    0.100326
     8  C    0.008705
     9  C   -0.001478
    10  C    0.175527
    11  C   -0.056636
    12  C   -0.022051
    13  C    0.000767
    14  C    0.475568
    15  O   -0.540625
    16  O   -0.269573
    17  N   -0.330118
    18  C    0.110350
    19  C    0.040773
    20  C   -0.036347
    21  C    0.146680
    22  C   -0.047978
    23  C    0.333576
    24  O   -0.511257
    25  C   -0.036487
    26  N   -0.279197
    27  C    0.175340
    28  C    0.003106
    29  C    0.023229
    30  C    0.119497
    31  C   -0.051454
    32  C   -0.021093
    33  C   -0.060211
    34  N   -0.305917
    35  C    0.072247
    36  C    0.009574
    37  C   -0.086388
    38  C    0.114540
    39  C   -0.033299
    40  C    0.338442
    41  O   -0.519344
    42  C    0.046509
    43  C    0.487253
    44  O   -0.514197
    45  O   -0.267991
    46  C    0.068130
    47  C    0.117651
    48  C   -0.104446
    49  C   -0.013921
    50  C   -0.044246
    51  C   -0.029034
    52  C   -0.033285
    53  C   -0.026985
    54  C   -0.005280
    55  C   -0.054464
    56  C   -0.032567
    57  C   -0.044003
    58  C   -0.046758
    59  C   -0.012143
    60  C   -0.059516
    61  C   -0.036286
    62  C   -0.044112
    63  C   -0.038949
    64  C   -0.014214
    65  C   -0.067947
    66  C   -0.061666
    67  H    0.013789
    68  H    0.032025
    69  H    0.022833
    70  H    0.039285
    71  H    0.031116
    72  H    0.031111
    73  H    0.018517
    74  H    0.025734
    75  H    0.034367
    76  H    0.018679
    77  H    0.035105
    78  H    0.038478
    79  H    0.024703
    80  H    0.043397
    81  H    0.031951
    82  H    0.031885
    83  H    0.040987
    84  H    0.031631
    85  H    0.030758
    86  H    0.023178
    87  H    0.029874
    88  H    0.019177
    89  H    0.022166
    90  H    0.013435
    91  H    0.025396
    92  H    0.028161
    93  H    0.015426
    94  H    0.015106
    95  H    0.029135
    96  H    0.024190
    97  H    0.048749
    98  H    0.050020
    99  H    0.034992
   100  H    0.042576
   101  H    0.038917
   102  H    0.052860
   103  H    0.064461
   104  H    0.026442
   105  H    0.036725
   106  H    0.027421
   107  H    0.025844
   108  H    0.016600
   109  H    0.035554
   110  H    0.012492
   111  H    0.025824
   112  H    0.020468
   113  H    0.011221
   114  H    0.020917
   115  H    0.007159
   116  H    0.011063
   117  H    0.020067
   118  H    0.016731
   119  H    0.018783
   120  H    0.022053
   121  H    0.012470
   122  H    0.019550
   123  H    0.021073
   124  H    0.020123
   125  H    0.011735
   126  H    0.032972
   127  H    0.021244
   128  H    0.026846
   129  H    0.003090
   130  H    0.018532
   131  H    0.028967
   132  H    0.031297
   133  H    0.010052
   134  H    0.024660
   135  H    0.018623
   136  H    0.009825
   137  H    0.024055
   138  H    0.020063
   139  H    0.020431
   140  H    0.027480
 Sum of Mulliken charges =  -0.00000

 Dipole moment (field-independent basis, Debye):
    X=             -8.4717    Y=              6.5897    Z=              3.3039  Tot=             11.2299
 N-N= 4.316589246909D+03 E-N= 0.000000000000D+00  KE=-9.307651547008D+03
 Leave Link  601 at Wed May  4 02:58:47 2022, MaxMem=  6710886400 cpu:               0.8 elap:               0.0
 (Enter /sw/apps/gaussian-16.0/g16/l9999.exe)
 1\1\GINC-BP1-COMPUTE121\SP\RZINDO CIS\STO-3G\C55H74Mg1N4O6\OF15641\04-
 May-2022\0\\#p ZINDO=(nstates=5)\\step_1251_chromophore_24 ZINDO\\0,1\
 Mg,0,0.511,45.07,24.276\C,0,2.678,44.307,26.956\C,0,-2.043,43.98,26.36
 \C,0,-1.457,45.159,21.592\C,0,3.256,45.569,22.26\N,0,0.279,44.412,26.4
 56\C,0,1.359,44.222,27.343\C,0,0.805,44.039,28.728\C,0,-0.7,43.773,28.
 521\C,0,-0.861,44.095,27.013\C,0,-1.159,42.324,28.914\C,0,0.987,45.243
 ,29.678\C,0,1.395,44.837,31.146\C,0,1.23,43.426,31.669\O,0,2.164,42.65

 Normal termination of Gaussian 16 at Wed May  4 02:58:47 2022.
