 Gaussian 16, Revision A.03,
 Gaussian 16:  ES64L-G16RevA.03 25-Dec-2016

 ------------------------------
 #p blyp/Def2SVP td=(nstates=5)
 ------------------------------

 ---------------------------------------------------
 step_1801_chromophore_17 TDDFT with blyp functional
 ---------------------------------------------------
 Symbolic Z-matrix:
 Charge =  0 Multiplicity = 1

                         Standard orientation:
 ---------------------------------------------------------------------
 Center     Atomic      Atomic             Coordinates (Angstroms)
 Number     Number       Type             X           Y           Z
 ---------------------------------------------------------------------
      1         12           0        4.051691    1.207376   -0.334977
      2          6           0        4.023352   -2.286259   -0.448098
      3          6           0        1.577656    1.173867   -2.808314
      4          6           0        3.763488    4.477993    0.018413
      5          6           0        6.105076    1.024715    2.546435
      6          7           0        2.805428   -0.421077   -1.319555
      7          6           0        3.060352   -1.756310   -1.327781
      8          6           0        1.954845   -2.487518   -2.121492
      9          6           0        1.381131   -1.334717   -3.080368
     10          6           0        1.992143   -0.114322   -2.403030
     11          6           0        1.680591   -1.495586   -4.617912
     12          6           0        0.902385   -3.200869   -1.268439
     13          6           0        0.462248   -4.602295   -1.739201
     14          6           0       -0.966905   -5.045164   -1.716730
     15          8           0       -1.530311   -5.418247   -2.762990
     16          8           0       -1.532363   -5.027003   -0.516680
     17          7           0        2.784065    2.645275   -1.234518
     18          6           0        1.956357    2.413008   -2.305021
     19          6           0        1.472047    3.655134   -2.791945
     20          6           0        2.199038    4.703368   -2.002341
     21          6           0        2.999550    3.972769   -1.080241
     22          6           0        0.363294    3.862325   -3.825880
     23          6           0        2.107012    6.133871   -2.158205
     24          8           0        1.367541    6.585130   -2.999654
     25          6           0        2.972042    7.094108   -1.401879
     26          7           0        4.707820    2.501522    1.218339
     27          6           0        4.523478    3.841175    1.038681
     28          6           0        5.366918    4.592019    2.113684
     29          6           0        6.031963    3.472949    2.940141
     30          6           0        5.651491    2.265302    2.191623
     31          6           0        6.196139    5.803732    1.589637
     32          6           0        5.702642    3.570471    4.471326
     33          6           0        6.929053    3.571744    5.445809
     34          7           0        4.949232   -0.238593    0.806467
     35          6           0        5.790430   -0.228154    1.952695
     36          6           0        6.206657   -1.577371    2.259372
     37          6           0        5.640408   -2.401993    1.297075
     38          6           0        4.815855   -1.544837    0.508146
     39          6           0        7.118278   -1.943930    3.360003
     40          6           0        5.505248   -3.856042    0.816843
     41          8           0        6.081489   -4.875614    1.203837
     42          6           0        4.414075   -3.748156   -0.279257
     43          6           0        5.073507   -4.248201   -1.469685
     44          8           0        6.211893   -4.079321   -1.805131
     45          8           0        4.189060   -4.960504   -2.265538
     46          6           0        4.643919   -5.217966   -3.644603
     47          6           0       -2.945030   -5.292609   -0.511118
     48          6           0       -3.705444   -5.031168    0.777677
     49          6           0       -5.003067   -5.029091    1.083266
     50          6           0       -6.052125   -5.435689    0.152589
     51          6           0       -5.503910   -4.777768    2.588159
     52          6           0       -5.450816   -3.341569    3.175376
     53          6           0       -6.741838   -2.839389    3.856453
     54          6           0       -7.354062   -1.631837    3.038121
     55          6           0       -8.610325   -2.041201    2.271713
     56          6           0       -7.721131   -0.412453    4.028901
     57          6           0       -7.235132    0.953521    3.478382
     58          6           0       -8.452967    1.864490    3.132607
     59          6           0       -8.094789    2.487845    1.774173
     60          6           0       -7.816155    3.926335    1.886142
     61          6           0       -9.297924    2.268388    0.799911
     62          6           0       -8.818226    2.286906   -0.649841
     63          6           0       -9.448236    3.438063   -1.430330
     64          6           0       -9.490414    3.231349   -2.956927
     65          6           0       -9.035532    4.482357   -3.641127
     66          6           0      -10.932233    2.807789   -3.456446
     67          1           0        0.755331    1.204934   -3.525482
     68          1           0        3.776118    5.552738    0.208446
     69          1           0        6.677891    1.083475    3.474366
     70          1           0        2.533390   -3.185615   -2.726808
     71          1           0        0.292589   -1.295074   -3.039146
     72          1           0        2.479991   -0.856044   -4.993782
     73          1           0        0.748836   -1.248694   -5.128329
     74          1           0        1.826308   -2.526274   -4.939933
     75          1           0        0.032031   -2.544194   -1.263508
     76          1           0        1.259217   -3.191272   -0.238169
     77          1           0        0.933240   -5.406536   -1.173533
     78          1           0        0.854229   -4.816934   -2.733459
     79          1           0       -0.244822    3.029965   -4.179947
     80          1           0        0.906182    4.258642   -4.682804
     81          1           0       -0.321405    4.669919   -3.568223
     82          1           0        2.520936    7.247655   -0.421226
     83          1           0        2.833185    7.990203   -2.006932
     84          1           0        4.025052    6.826277   -1.488361
     85          1           0        4.726627    5.201411    2.751402
     86          1           0        7.112440    3.541152    2.812581
     87          1           0        6.145258    5.654792    0.510964
     88          1           0        7.243083    5.728703    1.885732
     89          1           0        5.766999    6.771089    1.848913
     90          1           0        5.133982    2.692126    4.776524
     91          1           0        5.071528    4.410386    4.764281
     92          1           0        7.043091    2.600756    5.929203
     93          1           0        6.926578    4.469893    6.063147
     94          1           0        7.814675    3.640366    4.814341
     95          1           0        6.917452   -1.261008    4.184462
     96          1           0        8.145087   -1.891810    2.997070
     97          1           0        6.900125   -2.995851    3.543363
     98          1           0        3.566889   -4.422914   -0.158669
     99          1           0        3.996018   -5.989376   -4.059557
    100          1           0        5.658192   -5.615805   -3.653498
    101          1           0        4.472391   -4.385737   -4.326519
    102          1           0       -3.114829   -6.316417   -0.843095
    103          1           0       -3.426032   -4.599942   -1.202467
    104          1           0       -3.137899   -4.701900    1.647310
    105          1           0       -6.760493   -4.607704    0.102618
    106          1           0       -6.512651   -6.372974    0.464349
    107          1           0       -5.702189   -5.548032   -0.873240
    108          1           0       -4.920648   -5.441738    3.225027
    109          1           0       -6.481734   -5.223969    2.773279
    110          1           0       -5.050530   -2.591185    2.494107
    111          1           0       -4.789874   -3.442928    4.037045
    112          1           0       -6.524913   -2.540808    4.882206
    113          1           0       -7.465588   -3.626135    4.067988
    114          1           0       -6.638284   -1.232738    2.320263
    115          1           0       -8.340884   -2.431355    1.290436
    116          1           0       -9.334985   -1.237025    2.146684
    117          1           0       -9.144816   -2.750132    2.903988
    118          1           0       -7.193525   -0.541147    4.974094
    119          1           0       -8.779542   -0.381741    4.288577
    120          1           0       -6.554589    0.695667    2.667510
    121          1           0       -6.621705    1.347949    4.288448
    122          1           0       -8.503639    2.653376    3.882959
    123          1           0       -9.393697    1.327784    3.258846
    124          1           0       -7.288307    1.948509    1.276047
    125          1           0       -7.902222    4.412879    2.857233
    126          1           0       -8.267897    4.483476    1.065906
    127          1           0       -6.762233    4.115712    1.682756
    128          1           0      -10.031374    3.071519    0.872051
    129          1           0       -9.742584    1.280436    0.920883
    130          1           0       -8.809272    1.306336   -1.125678
    131          1           0       -7.776254    2.605485   -0.691199
    132          1           0       -8.882270    4.351055   -1.245519
    133          1           0      -10.445775    3.686612   -1.067976
    134          1           0       -8.804615    2.409025   -3.162480
    135          1           0       -8.033087    4.202095   -3.964722
    136          1           0       -9.037870    5.337391   -2.965736
    137          1           0       -9.565873    4.735089   -4.559563
    138          1           0      -10.989329    1.965243   -4.145573
    139          1           0      -11.322185    3.615753   -4.076644
    140          1           0      -11.557556    2.682432   -2.572653
 ---------------------------------------------------------------------

 SCF Done:  E(RB-LYP) =  -3007.33434726     A.U. after   21 cycles

 Excitation energies and oscillator strengths:

 Excited State   1:      Singlet-A      1.5823 eV  783.58 nm  f=0.0002  <S**2>=0.000
     244 -> 247        0.66079
     245 -> 247       -0.25097
 This state for optimization and/or second-order correction.
 Total Energy, E(TD-HF/TD-DFT) =  -3007.27619954
 Copying the excited state density for this state as the 1-particle RhoCI density.

 Excited State   2:      Singlet-A      1.7950 eV  690.72 nm  f=0.2785  <S**2>=0.000
     245 -> 248       -0.18519
     246 -> 247        0.68879
     246 <- 247       -0.15220

 Excited State   3:      Singlet-A      1.9834 eV  625.12 nm  f=0.0860  <S**2>=0.000
     242 -> 247        0.25305
     243 -> 247        0.15443
     244 -> 247        0.21715
     245 -> 247        0.56013
     246 -> 248        0.20919

 Excited State   4:      Singlet-A      2.1306 eV  581.93 nm  f=0.0226  <S**2>=0.000
     242 -> 247        0.37664
     243 -> 247        0.52204
     245 -> 247       -0.22791
     246 -> 248       -0.13491

 Excited State   5:      Singlet-A      2.2160 eV  559.50 nm  f=0.0000  <S**2>=0.000
     241 -> 247        0.70708

 The electronic state is 1-A.
 Alpha  occ. eigenvalues --  -46.27735 -18.83566 -18.82192 -18.76984 -18.76937
 Alpha  occ. eigenvalues --  -18.76031 -18.74333 -14.03894 -14.03212 -14.01446
 Alpha  occ. eigenvalues --  -14.00995 -10.04143 -10.03877 -10.01143  -9.98713
 Alpha  occ. eigenvalues --   -9.98290  -9.97996  -9.97189  -9.97169  -9.96969
 Alpha  occ. eigenvalues --   -9.96254  -9.96102  -9.96044  -9.95469  -9.95225
 Alpha  occ. eigenvalues --   -9.94824  -9.94673  -9.94574  -9.94351  -9.94242
 Alpha  occ. eigenvalues --   -9.94073  -9.93982  -9.93929  -9.93611  -9.93452
 Alpha  occ. eigenvalues --   -9.93385  -9.93285  -9.93094  -9.93031  -9.92954
 Alpha  occ. eigenvalues --   -9.92855  -9.92841  -9.92490  -9.92341  -9.92309
 Alpha  occ. eigenvalues --   -9.92137  -9.92112  -9.91940  -9.91863  -9.91789
 Alpha  occ. eigenvalues --   -9.91754  -9.91719  -9.91434  -9.91314  -9.91284
 Alpha  occ. eigenvalues --   -9.91090  -9.90876  -9.90672  -9.90630  -9.90508
 Alpha  occ. eigenvalues --   -9.90456  -9.90438  -9.90426  -9.90316  -9.90263
 Alpha  occ. eigenvalues --   -9.90150  -2.92324  -1.72725  -1.72232  -1.72024
 Alpha  occ. eigenvalues --   -0.99989  -0.98420  -0.91800  -0.91610  -0.90323
 Alpha  occ. eigenvalues --   -0.89241  -0.86663  -0.86063  -0.85748  -0.85061
 Alpha  occ. eigenvalues --   -0.75932  -0.73583  -0.73415  -0.72998  -0.72765
 Alpha  occ. eigenvalues --   -0.72149  -0.71909  -0.71366  -0.71098  -0.70860
 Alpha  occ. eigenvalues --   -0.69658  -0.68911  -0.68503  -0.68006  -0.67737
 Alpha  occ. eigenvalues --   -0.66714  -0.66337  -0.65751  -0.65193  -0.64812
 Alpha  occ. eigenvalues --   -0.64384  -0.63003  -0.62883  -0.62009  -0.61505
 Alpha  occ. eigenvalues --   -0.60484  -0.60214  -0.59712  -0.59557  -0.58961
 Alpha  occ. eigenvalues --   -0.58431  -0.58047  -0.57218  -0.56468  -0.54950
 Alpha  occ. eigenvalues --   -0.54223  -0.53341  -0.53289  -0.52028  -0.51907
 Alpha  occ. eigenvalues --   -0.51587  -0.51126  -0.51014  -0.50664  -0.50573
 Alpha  occ. eigenvalues --   -0.50474  -0.49563  -0.48673  -0.48595  -0.46911
 Alpha  occ. eigenvalues --   -0.46260  -0.46106  -0.45800  -0.45497  -0.45133
 Alpha  occ. eigenvalues --   -0.44422  -0.44189  -0.43174  -0.43002  -0.42688
 Alpha  occ. eigenvalues --   -0.42167  -0.41694  -0.41653  -0.41378  -0.41338
 Alpha  occ. eigenvalues --   -0.41126  -0.41049  -0.40624  -0.40565  -0.40310
 Alpha  occ. eigenvalues --   -0.40097  -0.40012  -0.39508  -0.39483  -0.39250
 Alpha  occ. eigenvalues --   -0.39020  -0.38739  -0.38717  -0.38623  -0.38515
 Alpha  occ. eigenvalues --   -0.38305  -0.38090  -0.37732  -0.37675  -0.37546
 Alpha  occ. eigenvalues --   -0.37391  -0.37286  -0.37123  -0.37016  -0.36674
 Alpha  occ. eigenvalues --   -0.36405  -0.36247  -0.36177  -0.35972  -0.35495
 Alpha  occ. eigenvalues --   -0.35360  -0.35336  -0.35094  -0.34815  -0.34715
 Alpha  occ. eigenvalues --   -0.34508  -0.34342  -0.34227  -0.34116  -0.34019
 Alpha  occ. eigenvalues --   -0.33964  -0.33837  -0.33672  -0.33555  -0.33419
 Alpha  occ. eigenvalues --   -0.33287  -0.33049  -0.32772  -0.32677  -0.32408
 Alpha  occ. eigenvalues --   -0.32247  -0.32108  -0.31681  -0.31390  -0.31151
 Alpha  occ. eigenvalues --   -0.31001  -0.30957  -0.30865  -0.30761  -0.30722
 Alpha  occ. eigenvalues --   -0.30565  -0.30397  -0.30263  -0.30130  -0.29975
 Alpha  occ. eigenvalues --   -0.29917  -0.29731  -0.29659  -0.29603  -0.29429
 Alpha  occ. eigenvalues --   -0.29407  -0.28754  -0.28276  -0.28026  -0.27869
 Alpha  occ. eigenvalues --   -0.27527  -0.27411  -0.27223  -0.26974  -0.26585
 Alpha  occ. eigenvalues --   -0.26107  -0.25940  -0.25844  -0.25751  -0.25444
 Alpha  occ. eigenvalues --   -0.25110  -0.24801  -0.24354  -0.23869  -0.23616
 Alpha  occ. eigenvalues --   -0.22880  -0.22433  -0.21832  -0.21123  -0.20897
 Alpha  occ. eigenvalues --   -0.20323  -0.19790  -0.19782  -0.17952  -0.17717
 Alpha  occ. eigenvalues --   -0.16388
 Alpha virt. eigenvalues --   -0.12179  -0.07096  -0.06432  -0.04867  -0.03560
 Alpha virt. eigenvalues --   -0.02879  -0.02557  -0.02322  -0.01288  -0.00111
 Alpha virt. eigenvalues --    0.00542   0.01629   0.01879   0.01963   0.02329

 Mulliken charges:
               1
     1  Mg   0.682949
     2  C   -0.015376
     3  C   -0.093739
     4  C   -0.040671
     5  C   -0.080282
     6  N   -0.210780
     7  C   -0.109280
     8  C    0.064028
     9  C   -0.039045
    10  C    0.068972
    11  C    0.116085
    12  C    0.183858
    13  C    0.179420
    14  C    0.026017
    15  O   -0.226396
    16  O   -0.226558
    17  N   -0.281935
    18  C    0.155792
    19  C   -0.136034
    20  C    0.084490
    21  C    0.136169
    22  C    0.185939
    23  C   -0.182792
    24  O   -0.163458
    25  C    0.168868
    26  N   -0.234253
    27  C    0.010575
    28  C   -0.029390
    29  C    0.114779
    30  C   -0.020033
    31  C    0.114081
    32  C    0.076916
    33  C    0.050925
    34  N   -0.277353
    35  C    0.157435
    36  C   -0.211600
    37  C    0.020346
    38  C    0.113426
    39  C    0.185577
    40  C    0.035418
    41  O   -0.123404
    42  C    0.089725
    43  C    0.070758
    44  O   -0.149417
    45  O   -0.293475
    46  C    0.211101
    47  C    0.320346
    48  C   -0.074471
    49  C   -0.186781
    50  C    0.150461
    51  C    0.115934
    52  C    0.100689
    53  C    0.105631
    54  C   -0.080379
    55  C    0.109977
    56  C    0.070162
    57  C    0.055580
    58  C    0.152609
    59  C   -0.086484
    60  C    0.145092
    61  C    0.114303
    62  C    0.051552
    63  C    0.057251
    64  C   -0.099614
    65  C    0.121895
    66  C    0.108201
    67  H   -0.060371
    68  H   -0.079635
    69  H   -0.074263
    70  H   -0.036928
    71  H   -0.014354
    72  H    0.001216
    73  H   -0.012600
    74  H   -0.005822
    75  H   -0.024656
    76  H   -0.015363
    77  H   -0.001751
    78  H   -0.018754
    79  H   -0.015382
    80  H    0.000275
    81  H    0.007128
    82  H    0.018026
    83  H   -0.020566
    84  H    0.009694
    85  H   -0.021951
    86  H   -0.025314
    87  H   -0.011761
    88  H   -0.010037
    89  H   -0.000742
    90  H   -0.018402
    91  H   -0.015018
    92  H    0.005505
    93  H    0.003294
    94  H   -0.023641
    95  H   -0.000620
    96  H    0.012007
    97  H    0.008960
    98  H   -0.009903
    99  H    0.003471
   100  H    0.033095
   101  H    0.014826
   102  H    0.011301
   103  H    0.006864
   104  H   -0.044724
   105  H   -0.005624
   106  H    0.009688
   107  H   -0.024821
   108  H   -0.026345
   109  H   -0.045729
   110  H   -0.018246
   111  H   -0.034940
   112  H   -0.040942
   113  H   -0.041541
   114  H   -0.028979
   115  H   -0.010551
   116  H   -0.016931
   117  H   -0.021709
   118  H   -0.049650
   119  H   -0.035413
   120  H   -0.031074
   121  H   -0.035736
   122  H   -0.045867
   123  H   -0.023933
   124  H   -0.027170
   125  H   -0.014968
   126  H   -0.024479
   127  H   -0.040862
   128  H   -0.033692
   129  H   -0.039059
   130  H   -0.024733
   131  H   -0.036811
   132  H   -0.030462
   133  H   -0.034248
   134  H   -0.035866
   135  H   -0.020554
   136  H   -0.008577
   137  H   -0.024350
   138  H   -0.015126
   139  H   -0.029611
   140  H   -0.014522
 Sum of Mulliken charges =  -0.00000

 Dipole moment (field-independent basis, Debye):
    X=             -0.5748    Y=              2.1559    Z=              2.5822  Tot=              3.4126
 Quadrupole moment (field-independent basis, Debye-Ang):
   XX=           -408.6640   YY=           -434.2358   ZZ=           -393.8416
   XY=             42.4998   XZ=             -1.6260   YZ=             23.3286

 Normal termination of Gaussian 16 at Fri Apr 29 01:39:01 2022.
