 Gaussian 16, Revision A.03,
 Gaussian 16:  ES64L-G16RevA.03 25-Dec-2016

 -----------------------------------
 #p cam-b3lyp/Def2SVP td=(nstates=5)
 -----------------------------------

 --------------------------------------------------------
 step_1801_chromophore_17 TDDFT with cam-b3lyp functional
 --------------------------------------------------------
 Symbolic Z-matrix:
 Charge =  0 Multiplicity = 1

                         Standard orientation:
 ---------------------------------------------------------------------
 Center     Atomic      Atomic             Coordinates (Angstroms)
 Number     Number       Type             X           Y           Z
 ---------------------------------------------------------------------
      1         12           0        4.051691    1.207376   -0.334977
      2          6           0        4.023352   -2.286259   -0.448098
      3          6           0        1.577656    1.173867   -2.808314
      4          6           0        3.763488    4.477993    0.018413
      5          6           0        6.105076    1.024715    2.546435
      6          7           0        2.805428   -0.421077   -1.319555
      7          6           0        3.060352   -1.756310   -1.327781
      8          6           0        1.954845   -2.487518   -2.121492
      9          6           0        1.381131   -1.334717   -3.080368
     10          6           0        1.992143   -0.114322   -2.403030
     11          6           0        1.680591   -1.495586   -4.617912
     12          6           0        0.902385   -3.200869   -1.268439
     13          6           0        0.462248   -4.602295   -1.739201
     14          6           0       -0.966905   -5.045164   -1.716730
     15          8           0       -1.530311   -5.418247   -2.762990
     16          8           0       -1.532363   -5.027003   -0.516680
     17          7           0        2.784065    2.645275   -1.234518
     18          6           0        1.956357    2.413008   -2.305021
     19          6           0        1.472047    3.655134   -2.791945
     20          6           0        2.199038    4.703368   -2.002341
     21          6           0        2.999550    3.972769   -1.080241
     22          6           0        0.363294    3.862325   -3.825880
     23          6           0        2.107012    6.133871   -2.158205
     24          8           0        1.367541    6.585130   -2.999654
     25          6           0        2.972042    7.094108   -1.401879
     26          7           0        4.707820    2.501522    1.218339
     27          6           0        4.523478    3.841175    1.038681
     28          6           0        5.366918    4.592019    2.113684
     29          6           0        6.031963    3.472949    2.940141
     30          6           0        5.651491    2.265302    2.191623
     31          6           0        6.196139    5.803732    1.589637
     32          6           0        5.702642    3.570471    4.471326
     33          6           0        6.929053    3.571744    5.445809
     34          7           0        4.949232   -0.238593    0.806467
     35          6           0        5.790430   -0.228154    1.952695
     36          6           0        6.206657   -1.577371    2.259372
     37          6           0        5.640408   -2.401993    1.297075
     38          6           0        4.815855   -1.544837    0.508146
     39          6           0        7.118278   -1.943930    3.360003
     40          6           0        5.505248   -3.856042    0.816843
     41          8           0        6.081489   -4.875614    1.203837
     42          6           0        4.414075   -3.748156   -0.279257
     43          6           0        5.073507   -4.248201   -1.469685
     44          8           0        6.211893   -4.079321   -1.805131
     45          8           0        4.189060   -4.960504   -2.265538
     46          6           0        4.643919   -5.217966   -3.644603
     47          6           0       -2.945030   -5.292609   -0.511118
     48          6           0       -3.705444   -5.031168    0.777677
     49          6           0       -5.003067   -5.029091    1.083266
     50          6           0       -6.052125   -5.435689    0.152589
     51          6           0       -5.503910   -4.777768    2.588159
     52          6           0       -5.450816   -3.341569    3.175376
     53          6           0       -6.741838   -2.839389    3.856453
     54          6           0       -7.354062   -1.631837    3.038121
     55          6           0       -8.610325   -2.041201    2.271713
     56          6           0       -7.721131   -0.412453    4.028901
     57          6           0       -7.235132    0.953521    3.478382
     58          6           0       -8.452967    1.864490    3.132607
     59          6           0       -8.094789    2.487845    1.774173
     60          6           0       -7.816155    3.926335    1.886142
     61          6           0       -9.297924    2.268388    0.799911
     62          6           0       -8.818226    2.286906   -0.649841
     63          6           0       -9.448236    3.438063   -1.430330
     64          6           0       -9.490414    3.231349   -2.956927
     65          6           0       -9.035532    4.482357   -3.641127
     66          6           0      -10.932233    2.807789   -3.456446
     67          1           0        0.755331    1.204934   -3.525482
     68          1           0        3.776118    5.552738    0.208446
     69          1           0        6.677891    1.083475    3.474366
     70          1           0        2.533390   -3.185615   -2.726808
     71          1           0        0.292589   -1.295074   -3.039146
     72          1           0        2.479991   -0.856044   -4.993782
     73          1           0        0.748836   -1.248694   -5.128329
     74          1           0        1.826308   -2.526274   -4.939933
     75          1           0        0.032031   -2.544194   -1.263508
     76          1           0        1.259217   -3.191272   -0.238169
     77          1           0        0.933240   -5.406536   -1.173533
     78          1           0        0.854229   -4.816934   -2.733459
     79          1           0       -0.244822    3.029965   -4.179947
     80          1           0        0.906182    4.258642   -4.682804
     81          1           0       -0.321405    4.669919   -3.568223
     82          1           0        2.520936    7.247655   -0.421226
     83          1           0        2.833185    7.990203   -2.006932
     84          1           0        4.025052    6.826277   -1.488361
     85          1           0        4.726627    5.201411    2.751402
     86          1           0        7.112440    3.541152    2.812581
     87          1           0        6.145258    5.654792    0.510964
     88          1           0        7.243083    5.728703    1.885732
     89          1           0        5.766999    6.771089    1.848913
     90          1           0        5.133982    2.692126    4.776524
     91          1           0        5.071528    4.410386    4.764281
     92          1           0        7.043091    2.600756    5.929203
     93          1           0        6.926578    4.469893    6.063147
     94          1           0        7.814675    3.640366    4.814341
     95          1           0        6.917452   -1.261008    4.184462
     96          1           0        8.145087   -1.891810    2.997070
     97          1           0        6.900125   -2.995851    3.543363
     98          1           0        3.566889   -4.422914   -0.158669
     99          1           0        3.996018   -5.989376   -4.059557
    100          1           0        5.658192   -5.615805   -3.653498
    101          1           0        4.472391   -4.385737   -4.326519
    102          1           0       -3.114829   -6.316417   -0.843095
    103          1           0       -3.426032   -4.599942   -1.202467
    104          1           0       -3.137899   -4.701900    1.647310
    105          1           0       -6.760493   -4.607704    0.102618
    106          1           0       -6.512651   -6.372974    0.464349
    107          1           0       -5.702189   -5.548032   -0.873240
    108          1           0       -4.920648   -5.441738    3.225027
    109          1           0       -6.481734   -5.223969    2.773279
    110          1           0       -5.050530   -2.591185    2.494107
    111          1           0       -4.789874   -3.442928    4.037045
    112          1           0       -6.524913   -2.540808    4.882206
    113          1           0       -7.465588   -3.626135    4.067988
    114          1           0       -6.638284   -1.232738    2.320263
    115          1           0       -8.340884   -2.431355    1.290436
    116          1           0       -9.334985   -1.237025    2.146684
    117          1           0       -9.144816   -2.750132    2.903988
    118          1           0       -7.193525   -0.541147    4.974094
    119          1           0       -8.779542   -0.381741    4.288577
    120          1           0       -6.554589    0.695667    2.667510
    121          1           0       -6.621705    1.347949    4.288448
    122          1           0       -8.503639    2.653376    3.882959
    123          1           0       -9.393697    1.327784    3.258846
    124          1           0       -7.288307    1.948509    1.276047
    125          1           0       -7.902222    4.412879    2.857233
    126          1           0       -8.267897    4.483476    1.065906
    127          1           0       -6.762233    4.115712    1.682756
    128          1           0      -10.031374    3.071519    0.872051
    129          1           0       -9.742584    1.280436    0.920883
    130          1           0       -8.809272    1.306336   -1.125678
    131          1           0       -7.776254    2.605485   -0.691199
    132          1           0       -8.882270    4.351055   -1.245519
    133          1           0      -10.445775    3.686612   -1.067976
    134          1           0       -8.804615    2.409025   -3.162480
    135          1           0       -8.033087    4.202095   -3.964722
    136          1           0       -9.037870    5.337391   -2.965736
    137          1           0       -9.565873    4.735089   -4.559563
    138          1           0      -10.989329    1.965243   -4.145573
    139          1           0      -11.322185    3.615753   -4.076644
    140          1           0      -11.557556    2.682432   -2.572653
 ---------------------------------------------------------------------

 SCF Done:  E(RCAM-B3LYP) =  -3007.13330132     A.U. after   19 cycles

 Excitation energies and oscillator strengths:

 Excited State   1:      Singlet-A      1.6762 eV  739.69 nm  f=0.3661  <S**2>=0.000
     245 -> 248        0.18050
     246 -> 247        0.68668
     245 <- 248        0.11143
 This state for optimization and/or second-order correction.
 Total Energy, E(TD-HF/TD-DFT) =  -3007.07170330
 Copying the excited state density for this state as the 1-particle RhoCI density.

 Excited State   2:      Singlet-A      2.2086 eV  561.38 nm  f=0.1407  <S**2>=0.000
     245 -> 247        0.64607
     246 -> 248       -0.27512

 Excited State   3:      Singlet-A      3.0485 eV  406.70 nm  f=0.0081  <S**2>=0.000
     244 -> 247        0.68829

 Excited State   4:      Singlet-A      3.4037 eV  364.27 nm  f=0.0005  <S**2>=0.000
     241 -> 247        0.65557
     242 -> 247       -0.12122
     246 -> 248        0.14110

 Excited State   5:      Singlet-A      3.4093 eV  363.66 nm  f=0.0007  <S**2>=0.000
     241 -> 247        0.14679
     242 -> 247        0.58632
     242 -> 249        0.21363
     242 -> 251       -0.23947

 The electronic state is 1-A.
 Alpha  occ. eigenvalues --  -46.89352 -19.26477 -19.25223 -19.20386 -19.20131
 Alpha  occ. eigenvalues --  -19.18985 -19.17453 -14.42929 -14.42049 -14.39952
 Alpha  occ. eigenvalues --  -14.39391 -10.39379 -10.39298 -10.36707 -10.33284
 Alpha  occ. eigenvalues --  -10.32731 -10.32076 -10.31763 -10.31751 -10.31482
 Alpha  occ. eigenvalues --  -10.30620 -10.30479 -10.30454 -10.29906 -10.29441
 Alpha  occ. eigenvalues --  -10.29256 -10.29011 -10.28910 -10.28735 -10.28468
 Alpha  occ. eigenvalues --  -10.28036 -10.27937 -10.27924 -10.27841 -10.27407
 Alpha  occ. eigenvalues --  -10.27376 -10.27325 -10.27136 -10.27088 -10.27010
 Alpha  occ. eigenvalues --  -10.26711 -10.26575 -10.26149 -10.26143 -10.26107
 Alpha  occ. eigenvalues --  -10.26067 -10.26006 -10.25903 -10.25884 -10.25781
 Alpha  occ. eigenvalues --  -10.25454 -10.25453 -10.25380 -10.24998 -10.24979
 Alpha  occ. eigenvalues --  -10.24729 -10.24453 -10.24296 -10.24264 -10.24203
 Alpha  occ. eigenvalues --  -10.24120 -10.24043 -10.24040 -10.23951 -10.23780
 Alpha  occ. eigenvalues --  -10.23696  -3.17838  -1.92716  -1.92310  -1.92128
 Alpha  occ. eigenvalues --   -1.18455  -1.17114  -1.10179  -1.10133  -1.08345
 Alpha  occ. eigenvalues --   -1.07139  -1.04430  -1.03780  -1.03342  -1.02599
 Alpha  occ. eigenvalues --   -0.93190  -0.90431  -0.90248  -0.89710  -0.89547
 Alpha  occ. eigenvalues --   -0.88826  -0.88608  -0.87993  -0.87691  -0.87449
 Alpha  occ. eigenvalues --   -0.86059  -0.85453  -0.84775  -0.84232  -0.83935
 Alpha  occ. eigenvalues --   -0.82740  -0.82418  -0.81711  -0.81072  -0.80760
 Alpha  occ. eigenvalues --   -0.80201  -0.78688  -0.78460  -0.77649  -0.77024
 Alpha  occ. eigenvalues --   -0.75838  -0.75523  -0.75063  -0.74853  -0.74095
 Alpha  occ. eigenvalues --   -0.73602  -0.73090  -0.72128  -0.71331  -0.69555
 Alpha  occ. eigenvalues --   -0.68923  -0.67851  -0.67795  -0.66349  -0.66017
 Alpha  occ. eigenvalues --   -0.65788  -0.65093  -0.64993  -0.64708  -0.64627
 Alpha  occ. eigenvalues --   -0.64596  -0.63588  -0.62495  -0.62485  -0.60552
 Alpha  occ. eigenvalues --   -0.59913  -0.59653  -0.59319  -0.58980  -0.58774
 Alpha  occ. eigenvalues --   -0.57793  -0.57618  -0.56422  -0.56173  -0.55826
 Alpha  occ. eigenvalues --   -0.55467  -0.54948  -0.54714  -0.54391  -0.54247
 Alpha  occ. eigenvalues --   -0.53866  -0.53757  -0.53402  -0.53256  -0.52976
 Alpha  occ. eigenvalues --   -0.52853  -0.52612  -0.52049  -0.51949  -0.51940
 Alpha  occ. eigenvalues --   -0.51689  -0.51400  -0.51379  -0.51041  -0.50970
 Alpha  occ. eigenvalues --   -0.50575  -0.50361  -0.50292  -0.50086  -0.49914
 Alpha  occ. eigenvalues --   -0.49728  -0.49670  -0.49387  -0.49238  -0.49140
 Alpha  occ. eigenvalues --   -0.48845  -0.48725  -0.48406  -0.48259  -0.47624
 Alpha  occ. eigenvalues --   -0.47438  -0.47287  -0.47189  -0.46916  -0.46605
 Alpha  occ. eigenvalues --   -0.46473  -0.46332  -0.46095  -0.45957  -0.45943
 Alpha  occ. eigenvalues --   -0.45811  -0.45697  -0.45374  -0.45277  -0.45174
 Alpha  occ. eigenvalues --   -0.45007  -0.44736  -0.44396  -0.44268  -0.43953
 Alpha  occ. eigenvalues --   -0.43914  -0.43782  -0.43212  -0.43045  -0.42954
 Alpha  occ. eigenvalues --   -0.42648  -0.42494  -0.42378  -0.42225  -0.42127
 Alpha  occ. eigenvalues --   -0.42075  -0.42047  -0.41678  -0.41550  -0.41379
 Alpha  occ. eigenvalues --   -0.41156  -0.40940  -0.40898  -0.40690  -0.40541
 Alpha  occ. eigenvalues --   -0.40440  -0.39764  -0.39404  -0.38972  -0.38867
 Alpha  occ. eigenvalues --   -0.38459  -0.38303  -0.38139  -0.38080  -0.37798
 Alpha  occ. eigenvalues --   -0.37333  -0.37164  -0.36842  -0.36560  -0.36502
 Alpha  occ. eigenvalues --   -0.35736  -0.35437  -0.35171  -0.34895  -0.34003
 Alpha  occ. eigenvalues --   -0.33595  -0.33277  -0.32743  -0.31974  -0.31297
 Alpha  occ. eigenvalues --   -0.30465  -0.30291  -0.30031  -0.28981  -0.24498
 Alpha  occ. eigenvalues --   -0.21751
 Alpha virt. eigenvalues --   -0.09451  -0.02008   0.00151   0.01477   0.02122
 Alpha virt. eigenvalues --    0.04441   0.04941   0.05394   0.06165   0.06810
 Alpha virt. eigenvalues --    0.07581   0.07938   0.08096   0.08349   0.08504

 Mulliken charges:
               1
     1  Mg   0.813524
     2  C   -0.051178
     3  C   -0.095643
     4  C   -0.070601
     5  C   -0.083499
     6  N   -0.273891
     7  C   -0.063752
     8  C    0.016689
     9  C   -0.089492
    10  C    0.078041
    11  C    0.061158
    12  C    0.123338
    13  C    0.108115
    14  C    0.109165
    15  O   -0.268529
    16  O   -0.288905
    17  N   -0.369363
    18  C    0.155481
    19  C   -0.131563
    20  C    0.003451
    21  C    0.168364
    22  C    0.127178
    23  C   -0.099184
    24  O   -0.205650
    25  C    0.076348
    26  N   -0.308041
    27  C    0.036924
    28  C   -0.079024
    29  C    0.050304
    30  C    0.004603
    31  C    0.054711
    32  C    0.019030
    33  C   -0.009460
    34  N   -0.365452
    35  C    0.155944
    36  C   -0.210650
    37  C   -0.052773
    38  C    0.154344
    39  C    0.134611
    40  C    0.137398
    41  O   -0.159944
    42  C    0.005878
    43  C    0.167545
    44  O   -0.187217
    45  O   -0.358858
    46  C    0.172406
    47  C    0.289500
    48  C   -0.098003
    49  C   -0.208251
    50  C    0.086132
    51  C    0.063288
    52  C    0.038078
    53  C    0.053237
    54  C   -0.137149
    55  C    0.060167
    56  C    0.018557
    57  C    0.004953
    58  C    0.095370
    59  C   -0.145068
    60  C    0.083086
    61  C    0.059781
    62  C   -0.003658
    63  C    0.009119
    64  C   -0.158052
    65  C    0.058334
    66  C    0.050450
    67  H   -0.024754
    68  H   -0.041720
    69  H   -0.039835
    70  H   -0.003341
    71  H    0.020364
    72  H    0.026939
    73  H    0.011592
    74  H    0.017158
    75  H    0.007202
    76  H    0.017318
    77  H    0.029102
    78  H    0.015660
    79  H    0.011105
    80  H    0.027674
    81  H    0.036665
    82  H    0.046515
    83  H    0.017878
    84  H    0.037740
    85  H    0.012996
    86  H    0.009909
    87  H    0.012619
    88  H    0.015452
    89  H    0.022721
    90  H    0.012297
    91  H    0.014299
    92  H    0.027234
    93  H    0.027294
    94  H   -0.000787
    95  H    0.021920
    96  H    0.039018
    97  H    0.034857
    98  H    0.034839
    99  H    0.027147
   100  H    0.058935
   101  H    0.033916
   102  H    0.039191
   103  H    0.033710
   104  H   -0.009887
   105  H    0.016344
   106  H    0.033432
   107  H    0.000695
   108  H    0.004571
   109  H   -0.014629
   110  H    0.010539
   111  H   -0.003780
   112  H   -0.010114
   113  H   -0.012889
   114  H   -0.000472
   115  H    0.010758
   116  H    0.003713
   117  H    0.001243
   118  H   -0.018975
   119  H   -0.008093
   120  H   -0.005338
   121  H   -0.005877
   122  H   -0.015017
   123  H    0.003191
   124  H    0.005231
   125  H    0.010942
   126  H   -0.001853
   127  H   -0.013928
   128  H   -0.004058
   129  H   -0.010386
   130  H    0.003597
   131  H   -0.008626
   132  H   -0.003985
   133  H   -0.007434
   134  H   -0.003832
   135  H    0.004149
   136  H    0.014775
   137  H    0.001253
   138  H    0.009218
   139  H   -0.005647
   140  H    0.008586
 Sum of Mulliken charges =  -0.00000

 Dipole moment (field-independent basis, Debye):
    X=             -0.5559    Y=              2.3584    Z=              2.5370  Tot=              3.5082
 Quadrupole moment (field-independent basis, Debye-Ang):
   XX=           -408.0338   YY=           -431.4150   ZZ=           -392.0058
   XY=             44.0077   XZ=             -1.4433   YZ=             23.8579

 Normal termination of Gaussian 16 at Fri Apr 29 00:20:10 2022.
