 Gaussian 16, Revision A.03,
 Gaussian 16:  ES64L-G16RevA.03 25-Dec-2016

 ---------------------------------
 #p PBE1PBE/Def2SVP td=(nstates=5)
 ---------------------------------

 ------------------------------------------------------
 step_1801_chromophore_17 TDDFT with PBE1PBE functional
 ------------------------------------------------------
 Symbolic Z-matrix:
 Charge =  0 Multiplicity = 1

                         Standard orientation:
 ---------------------------------------------------------------------
 Center     Atomic      Atomic             Coordinates (Angstroms)
 Number     Number       Type             X           Y           Z
 ---------------------------------------------------------------------
      1         12           0        4.051691    1.207376   -0.334977
      2          6           0        4.023352   -2.286259   -0.448098
      3          6           0        1.577656    1.173867   -2.808314
      4          6           0        3.763488    4.477993    0.018413
      5          6           0        6.105076    1.024715    2.546435
      6          7           0        2.805428   -0.421077   -1.319555
      7          6           0        3.060352   -1.756310   -1.327781
      8          6           0        1.954845   -2.487518   -2.121492
      9          6           0        1.381131   -1.334717   -3.080368
     10          6           0        1.992143   -0.114322   -2.403030
     11          6           0        1.680591   -1.495586   -4.617912
     12          6           0        0.902385   -3.200869   -1.268439
     13          6           0        0.462248   -4.602295   -1.739201
     14          6           0       -0.966905   -5.045164   -1.716730
     15          8           0       -1.530311   -5.418247   -2.762990
     16          8           0       -1.532363   -5.027003   -0.516680
     17          7           0        2.784065    2.645275   -1.234518
     18          6           0        1.956357    2.413008   -2.305021
     19          6           0        1.472047    3.655134   -2.791945
     20          6           0        2.199038    4.703368   -2.002341
     21          6           0        2.999550    3.972769   -1.080241
     22          6           0        0.363294    3.862325   -3.825880
     23          6           0        2.107012    6.133871   -2.158205
     24          8           0        1.367541    6.585130   -2.999654
     25          6           0        2.972042    7.094108   -1.401879
     26          7           0        4.707820    2.501522    1.218339
     27          6           0        4.523478    3.841175    1.038681
     28          6           0        5.366918    4.592019    2.113684
     29          6           0        6.031963    3.472949    2.940141
     30          6           0        5.651491    2.265302    2.191623
     31          6           0        6.196139    5.803732    1.589637
     32          6           0        5.702642    3.570471    4.471326
     33          6           0        6.929053    3.571744    5.445809
     34          7           0        4.949232   -0.238593    0.806467
     35          6           0        5.790430   -0.228154    1.952695
     36          6           0        6.206657   -1.577371    2.259372
     37          6           0        5.640408   -2.401993    1.297075
     38          6           0        4.815855   -1.544837    0.508146
     39          6           0        7.118278   -1.943930    3.360003
     40          6           0        5.505248   -3.856042    0.816843
     41          8           0        6.081489   -4.875614    1.203837
     42          6           0        4.414075   -3.748156   -0.279257
     43          6           0        5.073507   -4.248201   -1.469685
     44          8           0        6.211893   -4.079321   -1.805131
     45          8           0        4.189060   -4.960504   -2.265538
     46          6           0        4.643919   -5.217966   -3.644603
     47          6           0       -2.945030   -5.292609   -0.511118
     48          6           0       -3.705444   -5.031168    0.777677
     49          6           0       -5.003067   -5.029091    1.083266
     50          6           0       -6.052125   -5.435689    0.152589
     51          6           0       -5.503910   -4.777768    2.588159
     52          6           0       -5.450816   -3.341569    3.175376
     53          6           0       -6.741838   -2.839389    3.856453
     54          6           0       -7.354062   -1.631837    3.038121
     55          6           0       -8.610325   -2.041201    2.271713
     56          6           0       -7.721131   -0.412453    4.028901
     57          6           0       -7.235132    0.953521    3.478382
     58          6           0       -8.452967    1.864490    3.132607
     59          6           0       -8.094789    2.487845    1.774173
     60          6           0       -7.816155    3.926335    1.886142
     61          6           0       -9.297924    2.268388    0.799911
     62          6           0       -8.818226    2.286906   -0.649841
     63          6           0       -9.448236    3.438063   -1.430330
     64          6           0       -9.490414    3.231349   -2.956927
     65          6           0       -9.035532    4.482357   -3.641127
     66          6           0      -10.932233    2.807789   -3.456446
     67          1           0        0.755331    1.204934   -3.525482
     68          1           0        3.776118    5.552738    0.208446
     69          1           0        6.677891    1.083475    3.474366
     70          1           0        2.533390   -3.185615   -2.726808
     71          1           0        0.292589   -1.295074   -3.039146
     72          1           0        2.479991   -0.856044   -4.993782
     73          1           0        0.748836   -1.248694   -5.128329
     74          1           0        1.826308   -2.526274   -4.939933
     75          1           0        0.032031   -2.544194   -1.263508
     76          1           0        1.259217   -3.191272   -0.238169
     77          1           0        0.933240   -5.406536   -1.173533
     78          1           0        0.854229   -4.816934   -2.733459
     79          1           0       -0.244822    3.029965   -4.179947
     80          1           0        0.906182    4.258642   -4.682804
     81          1           0       -0.321405    4.669919   -3.568223
     82          1           0        2.520936    7.247655   -0.421226
     83          1           0        2.833185    7.990203   -2.006932
     84          1           0        4.025052    6.826277   -1.488361
     85          1           0        4.726627    5.201411    2.751402
     86          1           0        7.112440    3.541152    2.812581
     87          1           0        6.145258    5.654792    0.510964
     88          1           0        7.243083    5.728703    1.885732
     89          1           0        5.766999    6.771089    1.848913
     90          1           0        5.133982    2.692126    4.776524
     91          1           0        5.071528    4.410386    4.764281
     92          1           0        7.043091    2.600756    5.929203
     93          1           0        6.926578    4.469893    6.063147
     94          1           0        7.814675    3.640366    4.814341
     95          1           0        6.917452   -1.261008    4.184462
     96          1           0        8.145087   -1.891810    2.997070
     97          1           0        6.900125   -2.995851    3.543363
     98          1           0        3.566889   -4.422914   -0.158669
     99          1           0        3.996018   -5.989376   -4.059557
    100          1           0        5.658192   -5.615805   -3.653498
    101          1           0        4.472391   -4.385737   -4.326519
    102          1           0       -3.114829   -6.316417   -0.843095
    103          1           0       -3.426032   -4.599942   -1.202467
    104          1           0       -3.137899   -4.701900    1.647310
    105          1           0       -6.760493   -4.607704    0.102618
    106          1           0       -6.512651   -6.372974    0.464349
    107          1           0       -5.702189   -5.548032   -0.873240
    108          1           0       -4.920648   -5.441738    3.225027
    109          1           0       -6.481734   -5.223969    2.773279
    110          1           0       -5.050530   -2.591185    2.494107
    111          1           0       -4.789874   -3.442928    4.037045
    112          1           0       -6.524913   -2.540808    4.882206
    113          1           0       -7.465588   -3.626135    4.067988
    114          1           0       -6.638284   -1.232738    2.320263
    115          1           0       -8.340884   -2.431355    1.290436
    116          1           0       -9.334985   -1.237025    2.146684
    117          1           0       -9.144816   -2.750132    2.903988
    118          1           0       -7.193525   -0.541147    4.974094
    119          1           0       -8.779542   -0.381741    4.288577
    120          1           0       -6.554589    0.695667    2.667510
    121          1           0       -6.621705    1.347949    4.288448
    122          1           0       -8.503639    2.653376    3.882959
    123          1           0       -9.393697    1.327784    3.258846
    124          1           0       -7.288307    1.948509    1.276047
    125          1           0       -7.902222    4.412879    2.857233
    126          1           0       -8.267897    4.483476    1.065906
    127          1           0       -6.762233    4.115712    1.682756
    128          1           0      -10.031374    3.071519    0.872051
    129          1           0       -9.742584    1.280436    0.920883
    130          1           0       -8.809272    1.306336   -1.125678
    131          1           0       -7.776254    2.605485   -0.691199
    132          1           0       -8.882270    4.351055   -1.245519
    133          1           0      -10.445775    3.686612   -1.067976
    134          1           0       -8.804615    2.409025   -3.162480
    135          1           0       -8.033087    4.202095   -3.964722
    136          1           0       -9.037870    5.337391   -2.965736
    137          1           0       -9.565873    4.735089   -4.559563
    138          1           0      -10.989329    1.965243   -4.145573
    139          1           0      -11.322185    3.615753   -4.076644
    140          1           0      -11.557556    2.682432   -2.572653
 ---------------------------------------------------------------------

 SCF Done:  E(RPBE1PBE) =  -3005.32288536     A.U. after   16 cycles

 Excitation energies and oscillator strengths:

 Excited State   1:      Singlet-A      1.8395 eV  674.02 nm  f=0.3518  <S**2>=0.000
     245 -> 248       -0.17435
     246 -> 247        0.69406
     246 <- 247       -0.11093
 This state for optimization and/or second-order correction.
 Total Energy, E(TD-HF/TD-DFT) =  -3005.25528602
 Copying the excited state density for this state as the 1-particle RhoCI density.

 Excited State   2:      Singlet-A      2.2226 eV  557.83 nm  f=0.1328  <S**2>=0.000
     245 -> 247        0.65414
     246 -> 248        0.25493

 Excited State   3:      Singlet-A      2.7181 eV  456.14 nm  f=0.0082  <S**2>=0.000
     244 -> 247        0.69168

 Excited State   4:      Singlet-A      2.7619 eV  448.90 nm  f=0.0008  <S**2>=0.000
     243 -> 247        0.67987
     243 -> 249        0.10669
     243 -> 250       -0.10814

 Excited State   5:      Singlet-A      3.0525 eV  406.18 nm  f=0.0042  <S**2>=0.000
     240 -> 247        0.13074
     241 -> 247        0.66878

 The electronic state is 1-A.
 Alpha  occ. eigenvalues --  -46.92733 -19.27129 -19.25835 -19.20569 -19.20278
 Alpha  occ. eigenvalues --  -19.19329 -19.17686 -14.42387 -14.41599 -14.39623
 Alpha  occ. eigenvalues --  -14.39045 -10.36428 -10.36252 -10.33865 -10.30404
 Alpha  occ. eigenvalues --  -10.30123 -10.29487 -10.29472 -10.29279 -10.29216
 Alpha  occ. eigenvalues --  -10.28320 -10.28194 -10.28113 -10.27594 -10.27114
 Alpha  occ. eigenvalues --  -10.27051 -10.26606 -10.26574 -10.26548 -10.26284
 Alpha  occ. eigenvalues --  -10.25781 -10.25766 -10.25706 -10.25426 -10.25104
 Alpha  occ. eigenvalues --  -10.24898 -10.24889 -10.24808 -10.24726 -10.24642
 Alpha  occ. eigenvalues --  -10.24191 -10.24079 -10.23874 -10.23793 -10.23705
 Alpha  occ. eigenvalues --  -10.23623 -10.23615 -10.23423 -10.23370 -10.23295
 Alpha  occ. eigenvalues --  -10.22930 -10.22794 -10.22788 -10.22662 -10.22570
 Alpha  occ. eigenvalues --  -10.22424 -10.21872 -10.21848 -10.21821 -10.21811
 Alpha  occ. eigenvalues --  -10.21696 -10.21577 -10.21529 -10.21443 -10.21143
 Alpha  occ. eigenvalues --  -10.21080  -3.14801  -1.87618  -1.87191  -1.87013
 Alpha  occ. eigenvalues --   -1.13318  -1.11810  -1.04943  -1.04832  -1.03126
 Alpha  occ. eigenvalues --   -1.02011  -0.99024  -0.98363  -0.98017  -0.97265
 Alpha  occ. eigenvalues --   -0.87477  -0.84539  -0.84387  -0.84036  -0.83734
 Alpha  occ. eigenvalues --   -0.83141  -0.82718  -0.82318  -0.81821  -0.81789
 Alpha  occ. eigenvalues --   -0.80321  -0.79760  -0.79010  -0.78468  -0.78164
 Alpha  occ. eigenvalues --   -0.76973  -0.76627  -0.75911  -0.75409  -0.75051
 Alpha  occ. eigenvalues --   -0.74363  -0.72949  -0.72790  -0.71940  -0.71321
 Alpha  occ. eigenvalues --   -0.70026  -0.69864  -0.69146  -0.68977  -0.68384
 Alpha  occ. eigenvalues --   -0.67874  -0.67485  -0.66558  -0.65678  -0.63895
 Alpha  occ. eigenvalues --   -0.63348  -0.62336  -0.62030  -0.60584  -0.60446
 Alpha  occ. eigenvalues --   -0.60240  -0.59694  -0.59382  -0.59190  -0.58959
 Alpha  occ. eigenvalues --   -0.58739  -0.57737  -0.57009  -0.56717  -0.55114
 Alpha  occ. eigenvalues --   -0.54392  -0.54212  -0.53839  -0.53455  -0.53270
 Alpha  occ. eigenvalues --   -0.52411  -0.51949  -0.50931  -0.50766  -0.50437
 Alpha  occ. eigenvalues --   -0.49896  -0.49494  -0.49347  -0.48809  -0.48764
 Alpha  occ. eigenvalues --   -0.48392  -0.48134  -0.48051  -0.47702  -0.47545
 Alpha  occ. eigenvalues --   -0.47283  -0.47142  -0.46700  -0.46513  -0.46413
 Alpha  occ. eigenvalues --   -0.46255  -0.45977  -0.45867  -0.45568  -0.45504
 Alpha  occ. eigenvalues --   -0.45229  -0.44873  -0.44833  -0.44673  -0.44455
 Alpha  occ. eigenvalues --   -0.44319  -0.44214  -0.44017  -0.43899  -0.43796
 Alpha  occ. eigenvalues --   -0.43457  -0.43359  -0.43110  -0.42876  -0.42282
 Alpha  occ. eigenvalues --   -0.42149  -0.41909  -0.41793  -0.41648  -0.41310
 Alpha  occ. eigenvalues --   -0.41141  -0.40981  -0.40737  -0.40685  -0.40602
 Alpha  occ. eigenvalues --   -0.40519  -0.40404  -0.40056  -0.40003  -0.39871
 Alpha  occ. eigenvalues --   -0.39743  -0.39511  -0.39104  -0.38895  -0.38801
 Alpha  occ. eigenvalues --   -0.38683  -0.38599  -0.38105  -0.37859  -0.37701
 Alpha  occ. eigenvalues --   -0.37422  -0.37301  -0.37194  -0.37061  -0.36983
 Alpha  occ. eigenvalues --   -0.36886  -0.36774  -0.36483  -0.36324  -0.36105
 Alpha  occ. eigenvalues --   -0.35875  -0.35810  -0.35638  -0.35635  -0.35386
 Alpha  occ. eigenvalues --   -0.35306  -0.34500  -0.34335  -0.33835  -0.33780
 Alpha  occ. eigenvalues --   -0.33237  -0.33114  -0.33085  -0.32897  -0.32792
 Alpha  occ. eigenvalues --   -0.32325  -0.32117  -0.31636  -0.31584  -0.31350
 Alpha  occ. eigenvalues --   -0.30583  -0.30223  -0.30148  -0.29971  -0.29098
 Alpha  occ. eigenvalues --   -0.28959  -0.28062  -0.27729  -0.27019  -0.26800
 Alpha  occ. eigenvalues --   -0.26043  -0.25275  -0.25003  -0.24638  -0.21457
 Alpha  occ. eigenvalues --   -0.19370
 Alpha virt. eigenvalues --   -0.11853  -0.05494  -0.04099  -0.02303  -0.01264
 Alpha virt. eigenvalues --    0.00048   0.00461   0.00807   0.01787   0.02910
 Alpha virt. eigenvalues --    0.03506   0.04439   0.04676   0.04880   0.05150

 Mulliken charges:
               1
     1  Mg   0.956601
     2  C   -0.074209
     3  C   -0.076636
     4  C   -0.073373
     5  C   -0.076058
     6  N   -0.368919
     7  C    0.013072
     8  C   -0.057863
     9  C   -0.162977
    10  C    0.110017
    11  C    0.004916
    12  C    0.069244
    13  C    0.033859
    14  C    0.174700
    15  O   -0.300652
    16  O   -0.322429
    17  N   -0.484438
    18  C    0.171845
    19  C   -0.150059
    20  C   -0.051857
    21  C    0.200453
    22  C    0.069277
    23  C   -0.043546
    24  O   -0.241203
    25  C   -0.007643
    26  N   -0.412488
    27  C    0.074128
    28  C   -0.146032
    29  C   -0.031752
    30  C    0.042665
    31  C   -0.007181
    32  C   -0.038268
    33  C   -0.082132
    34  N   -0.488824
    35  C    0.174068
    36  C   -0.239361
    37  C   -0.090594
    38  C    0.208394
    39  C    0.079040
    40  C    0.232117
    41  O   -0.205946
    42  C   -0.107155
    43  C    0.267054
    44  O   -0.222406
    45  O   -0.392075
    46  C    0.115769
    47  C    0.251774
    48  C   -0.108958
    49  C   -0.255330
    50  C    0.019330
    51  C    0.008681
    52  C   -0.031558
    53  C    0.007010
    54  C   -0.225195
    55  C   -0.000135
    56  C   -0.033558
    57  C   -0.055674
    58  C    0.044798
    59  C   -0.242697
    60  C    0.028543
    61  C   -0.000541
    62  C   -0.062627
    63  C   -0.044166
    64  C   -0.249913
    65  C   -0.003106
    66  C   -0.008675
    67  H    0.006518
    68  H   -0.004448
    69  H   -0.005475
    70  H    0.044980
    71  H    0.056249
    72  H    0.054168
    73  H    0.038507
    74  H    0.044277
    75  H    0.040690
    76  H    0.050532
    77  H    0.061428
    78  H    0.047426
    79  H    0.036938
    80  H    0.056615
    81  H    0.063855
    82  H    0.073613
    83  H    0.046965
    84  H    0.065321
    85  H    0.050988
    86  H    0.048504
    87  H    0.042052
    88  H    0.043624
    89  H    0.048866
    90  H    0.045632
    91  H    0.045585
    92  H    0.053660
    93  H    0.054774
    94  H    0.027281
    95  H    0.048546
    96  H    0.067531
    97  H    0.063431
    98  H    0.072892
    99  H    0.049090
   100  H    0.080144
   101  H    0.054831
   102  H    0.065125
   103  H    0.059828
   104  H    0.021677
   105  H    0.047269
   106  H    0.060602
   107  H    0.028274
   108  H    0.036627
   109  H    0.016295
   110  H    0.041687
   111  H    0.030443
   112  H    0.021177
   113  H    0.017151
   114  H    0.036269
   115  H    0.039751
   116  H    0.033444
   117  H    0.028575
   118  H    0.014088
   119  H    0.023456
   120  H    0.025126
   121  H    0.027617
   122  H    0.018401
   123  H    0.032211
   124  H    0.043375
   125  H    0.036976
   126  H    0.027754
   127  H    0.014701
   128  H    0.029294
   129  H    0.025616
   130  H    0.034405
   131  H    0.025742
   132  H    0.028481
   133  H    0.023890
   134  H    0.033843
   135  H    0.032415
   136  H    0.041181
   137  H    0.028730
   138  H    0.036519
   139  H    0.021561
   140  H    0.035682
 Sum of Mulliken charges =  -0.00000

 Dipole moment (field-independent basis, Debye):
    X=             -0.5661    Y=              2.4776    Z=              2.5965  Tot=              3.6333
 Quadrupole moment (field-independent basis, Debye-Ang):
   XX=           -404.6028   YY=           -428.3735   ZZ=           -387.8090
   XY=             45.1196   XZ=             -0.0771   YZ=             24.5214

 Normal termination of Gaussian 16 at Fri Apr 29 00:43:22 2022.
