 Gaussian 16, Revision A.03,
 Gaussian 16:  ES64L-G16RevA.03 25-Dec-2016

 --------------------------------
 #p wB97XD/Def2SVP td=(nstates=5)
 --------------------------------

 -----------------------------------------------------
 step_1801_chromophore_17 TDDFT with wB97XD functional
 -----------------------------------------------------
 Symbolic Z-matrix:
 Charge =  0 Multiplicity = 1

                         Standard orientation:
 ---------------------------------------------------------------------
 Center     Atomic      Atomic             Coordinates (Angstroms)
 Number     Number       Type             X           Y           Z
 ---------------------------------------------------------------------
      1         12           0        4.051691    1.207376   -0.334977
      2          6           0        4.023352   -2.286259   -0.448098
      3          6           0        1.577656    1.173867   -2.808314
      4          6           0        3.763488    4.477993    0.018413
      5          6           0        6.105076    1.024715    2.546435
      6          7           0        2.805428   -0.421077   -1.319555
      7          6           0        3.060352   -1.756310   -1.327781
      8          6           0        1.954845   -2.487518   -2.121492
      9          6           0        1.381131   -1.334717   -3.080368
     10          6           0        1.992143   -0.114322   -2.403030
     11          6           0        1.680591   -1.495586   -4.617912
     12          6           0        0.902385   -3.200869   -1.268439
     13          6           0        0.462248   -4.602295   -1.739201
     14          6           0       -0.966905   -5.045164   -1.716730
     15          8           0       -1.530311   -5.418247   -2.762990
     16          8           0       -1.532363   -5.027003   -0.516680
     17          7           0        2.784065    2.645275   -1.234518
     18          6           0        1.956357    2.413008   -2.305021
     19          6           0        1.472047    3.655134   -2.791945
     20          6           0        2.199038    4.703368   -2.002341
     21          6           0        2.999550    3.972769   -1.080241
     22          6           0        0.363294    3.862325   -3.825880
     23          6           0        2.107012    6.133871   -2.158205
     24          8           0        1.367541    6.585130   -2.999654
     25          6           0        2.972042    7.094108   -1.401879
     26          7           0        4.707820    2.501522    1.218339
     27          6           0        4.523478    3.841175    1.038681
     28          6           0        5.366918    4.592019    2.113684
     29          6           0        6.031963    3.472949    2.940141
     30          6           0        5.651491    2.265302    2.191623
     31          6           0        6.196139    5.803732    1.589637
     32          6           0        5.702642    3.570471    4.471326
     33          6           0        6.929053    3.571744    5.445809
     34          7           0        4.949232   -0.238593    0.806467
     35          6           0        5.790430   -0.228154    1.952695
     36          6           0        6.206657   -1.577371    2.259372
     37          6           0        5.640408   -2.401993    1.297075
     38          6           0        4.815855   -1.544837    0.508146
     39          6           0        7.118278   -1.943930    3.360003
     40          6           0        5.505248   -3.856042    0.816843
     41          8           0        6.081489   -4.875614    1.203837
     42          6           0        4.414075   -3.748156   -0.279257
     43          6           0        5.073507   -4.248201   -1.469685
     44          8           0        6.211893   -4.079321   -1.805131
     45          8           0        4.189060   -4.960504   -2.265538
     46          6           0        4.643919   -5.217966   -3.644603
     47          6           0       -2.945030   -5.292609   -0.511118
     48          6           0       -3.705444   -5.031168    0.777677
     49          6           0       -5.003067   -5.029091    1.083266
     50          6           0       -6.052125   -5.435689    0.152589
     51          6           0       -5.503910   -4.777768    2.588159
     52          6           0       -5.450816   -3.341569    3.175376
     53          6           0       -6.741838   -2.839389    3.856453
     54          6           0       -7.354062   -1.631837    3.038121
     55          6           0       -8.610325   -2.041201    2.271713
     56          6           0       -7.721131   -0.412453    4.028901
     57          6           0       -7.235132    0.953521    3.478382
     58          6           0       -8.452967    1.864490    3.132607
     59          6           0       -8.094789    2.487845    1.774173
     60          6           0       -7.816155    3.926335    1.886142
     61          6           0       -9.297924    2.268388    0.799911
     62          6           0       -8.818226    2.286906   -0.649841
     63          6           0       -9.448236    3.438063   -1.430330
     64          6           0       -9.490414    3.231349   -2.956927
     65          6           0       -9.035532    4.482357   -3.641127
     66          6           0      -10.932233    2.807789   -3.456446
     67          1           0        0.755331    1.204934   -3.525482
     68          1           0        3.776118    5.552738    0.208446
     69          1           0        6.677891    1.083475    3.474366
     70          1           0        2.533390   -3.185615   -2.726808
     71          1           0        0.292589   -1.295074   -3.039146
     72          1           0        2.479991   -0.856044   -4.993782
     73          1           0        0.748836   -1.248694   -5.128329
     74          1           0        1.826308   -2.526274   -4.939933
     75          1           0        0.032031   -2.544194   -1.263508
     76          1           0        1.259217   -3.191272   -0.238169
     77          1           0        0.933240   -5.406536   -1.173533
     78          1           0        0.854229   -4.816934   -2.733459
     79          1           0       -0.244822    3.029965   -4.179947
     80          1           0        0.906182    4.258642   -4.682804
     81          1           0       -0.321405    4.669919   -3.568223
     82          1           0        2.520936    7.247655   -0.421226
     83          1           0        2.833185    7.990203   -2.006932
     84          1           0        4.025052    6.826277   -1.488361
     85          1           0        4.726627    5.201411    2.751402
     86          1           0        7.112440    3.541152    2.812581
     87          1           0        6.145258    5.654792    0.510964
     88          1           0        7.243083    5.728703    1.885732
     89          1           0        5.766999    6.771089    1.848913
     90          1           0        5.133982    2.692126    4.776524
     91          1           0        5.071528    4.410386    4.764281
     92          1           0        7.043091    2.600756    5.929203
     93          1           0        6.926578    4.469893    6.063147
     94          1           0        7.814675    3.640366    4.814341
     95          1           0        6.917452   -1.261008    4.184462
     96          1           0        8.145087   -1.891810    2.997070
     97          1           0        6.900125   -2.995851    3.543363
     98          1           0        3.566889   -4.422914   -0.158669
     99          1           0        3.996018   -5.989376   -4.059557
    100          1           0        5.658192   -5.615805   -3.653498
    101          1           0        4.472391   -4.385737   -4.326519
    102          1           0       -3.114829   -6.316417   -0.843095
    103          1           0       -3.426032   -4.599942   -1.202467
    104          1           0       -3.137899   -4.701900    1.647310
    105          1           0       -6.760493   -4.607704    0.102618
    106          1           0       -6.512651   -6.372974    0.464349
    107          1           0       -5.702189   -5.548032   -0.873240
    108          1           0       -4.920648   -5.441738    3.225027
    109          1           0       -6.481734   -5.223969    2.773279
    110          1           0       -5.050530   -2.591185    2.494107
    111          1           0       -4.789874   -3.442928    4.037045
    112          1           0       -6.524913   -2.540808    4.882206
    113          1           0       -7.465588   -3.626135    4.067988
    114          1           0       -6.638284   -1.232738    2.320263
    115          1           0       -8.340884   -2.431355    1.290436
    116          1           0       -9.334985   -1.237025    2.146684
    117          1           0       -9.144816   -2.750132    2.903988
    118          1           0       -7.193525   -0.541147    4.974094
    119          1           0       -8.779542   -0.381741    4.288577
    120          1           0       -6.554589    0.695667    2.667510
    121          1           0       -6.621705    1.347949    4.288448
    122          1           0       -8.503639    2.653376    3.882959
    123          1           0       -9.393697    1.327784    3.258846
    124          1           0       -7.288307    1.948509    1.276047
    125          1           0       -7.902222    4.412879    2.857233
    126          1           0       -8.267897    4.483476    1.065906
    127          1           0       -6.762233    4.115712    1.682756
    128          1           0      -10.031374    3.071519    0.872051
    129          1           0       -9.742584    1.280436    0.920883
    130          1           0       -8.809272    1.306336   -1.125678
    131          1           0       -7.776254    2.605485   -0.691199
    132          1           0       -8.882270    4.351055   -1.245519
    133          1           0      -10.445775    3.686612   -1.067976
    134          1           0       -8.804615    2.409025   -3.162480
    135          1           0       -8.033087    4.202095   -3.964722
    136          1           0       -9.037870    5.337391   -2.965736
    137          1           0       -9.565873    4.735089   -4.559563
    138          1           0      -10.989329    1.965243   -4.145573
    139          1           0      -11.322185    3.615753   -4.076644
    140          1           0      -11.557556    2.682432   -2.572653
 ---------------------------------------------------------------------

 SCF Done:  E(RwB97XD) =  -3007.82830339     A.U. after   20 cycles

 Excitation energies and oscillator strengths:

 Excited State   1:      Singlet-A      1.6158 eV  767.34 nm  f=0.3655  <S**2>=0.000
     245 -> 248       -0.18615
     246 -> 247        0.68450
     245 <- 248       -0.12101
 This state for optimization and/or second-order correction.
 Total Energy, E(TD-HF/TD-DFT) =  -3007.76892531
 Copying the excited state density for this state as the 1-particle RhoCI density.

 Excited State   2:      Singlet-A      2.1516 eV  576.23 nm  f=0.1361  <S**2>=0.000
     245 -> 247        0.64334
     246 -> 248        0.27830
     246 <- 248        0.10027

 Excited State   3:      Singlet-A      3.0858 eV  401.79 nm  f=0.0073  <S**2>=0.000
     244 -> 247        0.68028

 Excited State   4:      Singlet-A      3.4245 eV  362.05 nm  f=0.0040  <S**2>=0.000
     241 -> 247        0.61835
     242 -> 247       -0.19102
     246 -> 248       -0.17671

 Excited State   5:      Singlet-A      3.4311 eV  361.35 nm  f=0.0002  <S**2>=0.000
     241 -> 247        0.22670
     242 -> 247        0.54664
     242 -> 249        0.22917
     242 -> 250       -0.25373

 The electronic state is 1-A.
 Alpha  occ. eigenvalues --  -46.95712 -19.31720 -19.30460 -19.25467 -19.25062
 Alpha  occ. eigenvalues --  -19.23977 -19.22449 -14.47555 -14.46638 -14.44573
 Alpha  occ. eigenvalues --  -14.43984 -10.43204 -10.43129 -10.40783 -10.37198
 Alpha  occ. eigenvalues --  -10.36630 -10.35836 -10.35799 -10.35797 -10.35520
 Alpha  occ. eigenvalues --  -10.34599 -10.34520 -10.34500 -10.33924 -10.33459
 Alpha  occ. eigenvalues --  -10.33429 -10.33090 -10.33056 -10.32801 -10.32557
 Alpha  occ. eigenvalues --  -10.32126 -10.31977 -10.31966 -10.31815 -10.31456
 Alpha  occ. eigenvalues --  -10.31382 -10.31331 -10.31084 -10.31080 -10.31002
 Alpha  occ. eigenvalues --  -10.30583 -10.30447 -10.30194 -10.30141 -10.30097
 Alpha  occ. eigenvalues --  -10.29975 -10.29875 -10.29864 -10.29838 -10.29713
 Alpha  occ. eigenvalues --  -10.29329 -10.29302 -10.29249 -10.28933 -10.28917
 Alpha  occ. eigenvalues --  -10.28699 -10.28258 -10.28206 -10.28201 -10.28136
 Alpha  occ. eigenvalues --  -10.28047 -10.27935 -10.27873 -10.27858 -10.27586
 Alpha  occ. eigenvalues --  -10.27497  -3.21646  -1.95210  -1.94785  -1.94604
 Alpha  occ. eigenvalues --   -1.20687  -1.19274  -1.12395  -1.12371  -1.10558
 Alpha  occ. eigenvalues --   -1.09353  -1.06430  -1.05781  -1.05387  -1.04645
 Alpha  occ. eigenvalues --   -0.95172  -0.92204  -0.92053  -0.91608  -0.91391
 Alpha  occ. eigenvalues --   -0.90738  -0.90374  -0.89915  -0.89470  -0.89397
 Alpha  occ. eigenvalues --   -0.87962  -0.87420  -0.86664  -0.86104  -0.85801
 Alpha  occ. eigenvalues --   -0.84613  -0.84295  -0.83585  -0.83033  -0.82703
 Alpha  occ. eigenvalues --   -0.82016  -0.80601  -0.80392  -0.79596  -0.78967
 Alpha  occ. eigenvalues --   -0.77684  -0.77466  -0.76845  -0.76654  -0.75996
 Alpha  occ. eigenvalues --   -0.75490  -0.75057  -0.74102  -0.73273  -0.71464
 Alpha  occ. eigenvalues --   -0.70928  -0.69851  -0.69663  -0.68209  -0.67942
 Alpha  occ. eigenvalues --   -0.67760  -0.67106  -0.66895  -0.66652  -0.66582
 Alpha  occ. eigenvalues --   -0.66407  -0.65398  -0.64482  -0.64332  -0.62542
 Alpha  occ. eigenvalues --   -0.61859  -0.61640  -0.61285  -0.60943  -0.60751
 Alpha  occ. eigenvalues --   -0.59803  -0.59478  -0.58365  -0.58157  -0.57792
 Alpha  occ. eigenvalues --   -0.57378  -0.56921  -0.56716  -0.56223  -0.56174
 Alpha  occ. eigenvalues --   -0.55802  -0.55593  -0.55373  -0.55121  -0.54876
 Alpha  occ. eigenvalues --   -0.54780  -0.54523  -0.53992  -0.53890  -0.53789
 Alpha  occ. eigenvalues --   -0.53600  -0.53324  -0.53313  -0.52915  -0.52860
 Alpha  occ. eigenvalues --   -0.52497  -0.52255  -0.52191  -0.52012  -0.51787
 Alpha  occ. eigenvalues --   -0.51690  -0.51571  -0.51309  -0.51162  -0.51063
 Alpha  occ. eigenvalues --   -0.50760  -0.50658  -0.50321  -0.50141  -0.49528
 Alpha  occ. eigenvalues --   -0.49389  -0.49219  -0.49055  -0.48850  -0.48539
 Alpha  occ. eigenvalues --   -0.48354  -0.48263  -0.47965  -0.47879  -0.47860
 Alpha  occ. eigenvalues --   -0.47735  -0.47644  -0.47256  -0.47199  -0.47057
 Alpha  occ. eigenvalues --   -0.46924  -0.46667  -0.46275  -0.46122  -0.45889
 Alpha  occ. eigenvalues --   -0.45826  -0.45708  -0.45148  -0.44989  -0.44930
 Alpha  occ. eigenvalues --   -0.44597  -0.44487  -0.44322  -0.44133  -0.44052
 Alpha  occ. eigenvalues --   -0.43965  -0.43923  -0.43565  -0.43405  -0.43241
 Alpha  occ. eigenvalues --   -0.43006  -0.42838  -0.42776  -0.42572  -0.42393
 Alpha  occ. eigenvalues --   -0.42388  -0.41593  -0.41327  -0.40825  -0.40798
 Alpha  occ. eigenvalues --   -0.40295  -0.40152  -0.40040  -0.39983  -0.39852
 Alpha  occ. eigenvalues --   -0.39388  -0.39140  -0.38677  -0.38577  -0.38336
 Alpha  occ. eigenvalues --   -0.37589  -0.37269  -0.37156  -0.36899  -0.35858
 Alpha  occ. eigenvalues --   -0.35833  -0.35192  -0.34579  -0.33995  -0.33517
 Alpha  occ. eigenvalues --   -0.32628  -0.32190  -0.32059  -0.31180  -0.26411
 Alpha  occ. eigenvalues --   -0.23548
 Alpha virt. eigenvalues --   -0.07811  -0.00112   0.02218   0.04230   0.04619
 Alpha virt. eigenvalues --    0.06765   0.07230   0.07654   0.08515   0.09512
 Alpha virt. eigenvalues --    0.10229   0.11060   0.11418   0.11605   0.11927

 Mulliken charges:
               1
     1  Mg   0.948796
     2  C   -0.071437
     3  C   -0.095051
     4  C   -0.083598
     5  C   -0.091971
     6  N   -0.337498
     7  C   -0.021133
     8  C   -0.021705
     9  C   -0.137759
    10  C    0.094761
    11  C    0.014741
    12  C    0.079226
    13  C    0.048854
    14  C    0.166486
    15  O   -0.298811
    16  O   -0.321177
    17  N   -0.451566
    18  C    0.166306
    19  C   -0.142990
    20  C   -0.045069
    21  C    0.193681
    22  C    0.077811
    23  C   -0.049163
    24  O   -0.236960
    25  C    0.009201
    26  N   -0.380820
    27  C    0.064322
    28  C   -0.124146
    29  C   -0.002258
    30  C    0.031628
    31  C    0.007084
    32  C   -0.027960
    33  C   -0.064340
    34  N   -0.453863
    35  C    0.166767
    36  C   -0.229563
    37  C   -0.090074
    38  C    0.189598
    39  C    0.090261
    40  C    0.213532
    41  O   -0.195828
    42  C   -0.066943
    43  C    0.243121
    44  O   -0.218012
    45  O   -0.389533
    46  C    0.130904
    47  C    0.265528
    48  C   -0.118928
    49  C   -0.240192
    50  C    0.033479
    51  C    0.023862
    52  C   -0.014152
    53  C    0.017998
    54  C   -0.193856
    55  C    0.014559
    56  C   -0.018391
    57  C   -0.037526
    58  C    0.055633
    59  C   -0.203364
    60  C    0.037635
    61  C    0.019539
    62  C   -0.048156
    63  C   -0.024175
    64  C   -0.222639
    65  C    0.009509
    66  C    0.004275
    67  H   -0.000526
    68  H   -0.019519
    69  H   -0.013352
    70  H    0.017465
    71  H    0.046530
    72  H    0.048897
    73  H    0.033047
    74  H    0.038582
    75  H    0.032480
    76  H    0.042806
    77  H    0.055517
    78  H    0.041914
    79  H    0.033689
    80  H    0.051566
    81  H    0.060375
    82  H    0.069432
    83  H    0.044858
    84  H    0.058436
    85  H    0.038993
    86  H    0.034317
    87  H    0.031985
    88  H    0.038474
    89  H    0.044555
    90  H    0.037063
    91  H    0.038571
    92  H    0.048193
    93  H    0.050071
    94  H    0.018977
    95  H    0.042874
    96  H    0.062852
    97  H    0.058843
    98  H    0.065888
    99  H    0.045546
   100  H    0.076790
   101  H    0.051337
   102  H    0.060702
   103  H    0.053405
   104  H    0.018126
   105  H    0.039801
   106  H    0.055647
   107  H    0.023140
   108  H    0.029564
   109  H    0.007907
   110  H    0.033135
   111  H    0.023251
   112  H    0.013247
   113  H    0.008507
   114  H    0.020777
   115  H    0.033986
   116  H    0.023812
   117  H    0.021273
   118  H    0.004982
   119  H    0.013939
   120  H    0.013820
   121  H    0.020873
   122  H    0.010106
   123  H    0.022583
   124  H    0.027235
   125  H    0.032219
   126  H    0.017179
   127  H    0.009072
   128  H    0.018070
   129  H    0.015918
   130  H    0.027827
   131  H    0.013712
   132  H    0.015673
   133  H    0.012498
   134  H    0.022593
   135  H    0.026517
   136  H    0.035182
   137  H    0.022851
   138  H    0.031628
   139  H    0.014357
   140  H    0.028876
 Sum of Mulliken charges =  -0.00000

 Dipole moment (field-independent basis, Debye):
    X=             -0.5652    Y=              2.4225    Z=              2.5097  Tot=              3.5336
 Quadrupole moment (field-independent basis, Debye-Ang):
   XX=           -404.3532   YY=           -427.3592   ZZ=           -387.7460
   XY=             44.6255   XZ=             -0.6343   YZ=             24.0798

 Normal termination of Gaussian 16 at Fri Apr 29 01:20:44 2022.
