 Gaussian 16, Revision A.03,
 Gaussian 16:  ES64L-G16RevA.03 25-Dec-2016

 --------------------
 #p ZINDO=(nstates=5)
 --------------------

 ------------------------------
 step_1801_chromophore_17 ZINDO
 ------------------------------
 Symbolic Z-matrix:
 Charge =  0 Multiplicity = 1

                         Standard orientation:
 ---------------------------------------------------------------------
 Center     Atomic      Atomic             Coordinates (Angstroms)
 Number     Number       Type             X           Y           Z
 ---------------------------------------------------------------------
      1         12           0        4.051691    1.207376   -0.334977
      2          6           0        4.023352   -2.286259   -0.448098
      3          6           0        1.577656    1.173867   -2.808314
      4          6           0        3.763488    4.477993    0.018413
      5          6           0        6.105076    1.024715    2.546435
      6          7           0        2.805428   -0.421077   -1.319555
      7          6           0        3.060352   -1.756310   -1.327781
      8          6           0        1.954845   -2.487518   -2.121492
      9          6           0        1.381131   -1.334717   -3.080368
     10          6           0        1.992143   -0.114322   -2.403030
     11          6           0        1.680591   -1.495586   -4.617912
     12          6           0        0.902385   -3.200869   -1.268439
     13          6           0        0.462248   -4.602295   -1.739201
     14          6           0       -0.966905   -5.045164   -1.716730
     15          8           0       -1.530311   -5.418247   -2.762990
     16          8           0       -1.532363   -5.027003   -0.516680
     17          7           0        2.784065    2.645275   -1.234518
     18          6           0        1.956357    2.413008   -2.305021
     19          6           0        1.472047    3.655134   -2.791945
     20          6           0        2.199038    4.703368   -2.002341
     21          6           0        2.999550    3.972769   -1.080241
     22          6           0        0.363294    3.862325   -3.825880
     23          6           0        2.107012    6.133871   -2.158205
     24          8           0        1.367541    6.585130   -2.999654
     25          6           0        2.972042    7.094108   -1.401879
     26          7           0        4.707820    2.501522    1.218339
     27          6           0        4.523478    3.841175    1.038681
     28          6           0        5.366918    4.592019    2.113684
     29          6           0        6.031963    3.472949    2.940141
     30          6           0        5.651491    2.265302    2.191623
     31          6           0        6.196139    5.803732    1.589637
     32          6           0        5.702642    3.570471    4.471326
     33          6           0        6.929053    3.571744    5.445809
     34          7           0        4.949232   -0.238593    0.806467
     35          6           0        5.790430   -0.228154    1.952695
     36          6           0        6.206657   -1.577371    2.259372
     37          6           0        5.640408   -2.401993    1.297075
     38          6           0        4.815855   -1.544837    0.508146
     39          6           0        7.118278   -1.943930    3.360003
     40          6           0        5.505248   -3.856042    0.816843
     41          8           0        6.081489   -4.875614    1.203837
     42          6           0        4.414075   -3.748156   -0.279257
     43          6           0        5.073507   -4.248201   -1.469685
     44          8           0        6.211893   -4.079321   -1.805131
     45          8           0        4.189060   -4.960504   -2.265538
     46          6           0        4.643919   -5.217966   -3.644603
     47          6           0       -2.945030   -5.292609   -0.511118
     48          6           0       -3.705444   -5.031168    0.777677
     49          6           0       -5.003067   -5.029091    1.083266
     50          6           0       -6.052125   -5.435689    0.152589
     51          6           0       -5.503910   -4.777768    2.588159
     52          6           0       -5.450816   -3.341569    3.175376
     53          6           0       -6.741838   -2.839389    3.856453
     54          6           0       -7.354062   -1.631837    3.038121
     55          6           0       -8.610325   -2.041201    2.271713
     56          6           0       -7.721131   -0.412453    4.028901
     57          6           0       -7.235132    0.953521    3.478382
     58          6           0       -8.452967    1.864490    3.132607
     59          6           0       -8.094789    2.487845    1.774173
     60          6           0       -7.816155    3.926335    1.886142
     61          6           0       -9.297924    2.268388    0.799911
     62          6           0       -8.818226    2.286906   -0.649841
     63          6           0       -9.448236    3.438063   -1.430330
     64          6           0       -9.490414    3.231349   -2.956927
     65          6           0       -9.035532    4.482357   -3.641127
     66          6           0      -10.932233    2.807789   -3.456446
     67          1           0        0.755331    1.204934   -3.525482
     68          1           0        3.776118    5.552738    0.208446
     69          1           0        6.677891    1.083475    3.474366
     70          1           0        2.533390   -3.185615   -2.726808
     71          1           0        0.292589   -1.295074   -3.039146
     72          1           0        2.479991   -0.856044   -4.993782
     73          1           0        0.748836   -1.248694   -5.128329
     74          1           0        1.826308   -2.526274   -4.939933
     75          1           0        0.032031   -2.544194   -1.263508
     76          1           0        1.259217   -3.191272   -0.238169
     77          1           0        0.933240   -5.406536   -1.173533
     78          1           0        0.854229   -4.816934   -2.733459
     79          1           0       -0.244822    3.029965   -4.179947
     80          1           0        0.906182    4.258642   -4.682804
     81          1           0       -0.321405    4.669919   -3.568223
     82          1           0        2.520936    7.247655   -0.421226
     83          1           0        2.833185    7.990203   -2.006932
     84          1           0        4.025052    6.826277   -1.488361
     85          1           0        4.726627    5.201411    2.751402
     86          1           0        7.112440    3.541152    2.812581
     87          1           0        6.145258    5.654792    0.510964
     88          1           0        7.243083    5.728703    1.885732
     89          1           0        5.766999    6.771089    1.848913
     90          1           0        5.133982    2.692126    4.776524
     91          1           0        5.071528    4.410386    4.764281
     92          1           0        7.043091    2.600756    5.929203
     93          1           0        6.926578    4.469893    6.063147
     94          1           0        7.814675    3.640366    4.814341
     95          1           0        6.917452   -1.261008    4.184462
     96          1           0        8.145087   -1.891810    2.997070
     97          1           0        6.900125   -2.995851    3.543363
     98          1           0        3.566889   -4.422914   -0.158669
     99          1           0        3.996018   -5.989376   -4.059557
    100          1           0        5.658192   -5.615805   -3.653498
    101          1           0        4.472391   -4.385737   -4.326519
    102          1           0       -3.114829   -6.316417   -0.843095
    103          1           0       -3.426032   -4.599942   -1.202467
    104          1           0       -3.137899   -4.701900    1.647310
    105          1           0       -6.760493   -4.607704    0.102618
    106          1           0       -6.512651   -6.372974    0.464349
    107          1           0       -5.702189   -5.548032   -0.873240
    108          1           0       -4.920648   -5.441738    3.225027
    109          1           0       -6.481734   -5.223969    2.773279
    110          1           0       -5.050530   -2.591185    2.494107
    111          1           0       -4.789874   -3.442928    4.037045
    112          1           0       -6.524913   -2.540808    4.882206
    113          1           0       -7.465588   -3.626135    4.067988
    114          1           0       -6.638284   -1.232738    2.320263
    115          1           0       -8.340884   -2.431355    1.290436
    116          1           0       -9.334985   -1.237025    2.146684
    117          1           0       -9.144816   -2.750132    2.903988
    118          1           0       -7.193525   -0.541147    4.974094
    119          1           0       -8.779542   -0.381741    4.288577
    120          1           0       -6.554589    0.695667    2.667510
    121          1           0       -6.621705    1.347949    4.288448
    122          1           0       -8.503639    2.653376    3.882959
    123          1           0       -9.393697    1.327784    3.258846
    124          1           0       -7.288307    1.948509    1.276047
    125          1           0       -7.902222    4.412879    2.857233
    126          1           0       -8.267897    4.483476    1.065906
    127          1           0       -6.762233    4.115712    1.682756
    128          1           0      -10.031374    3.071519    0.872051
    129          1           0       -9.742584    1.280436    0.920883
    130          1           0       -8.809272    1.306336   -1.125678
    131          1           0       -7.776254    2.605485   -0.691199
    132          1           0       -8.882270    4.351055   -1.245519
    133          1           0      -10.445775    3.686612   -1.067976
    134          1           0       -8.804615    2.409025   -3.162480
    135          1           0       -8.033087    4.202095   -3.964722
    136          1           0       -9.037870    5.337391   -2.965736
    137          1           0       -9.565873    4.735089   -4.559563
    138          1           0      -10.989329    1.965243   -4.145573
    139          1           0      -11.322185    3.615753   -4.076644
    140          1           0      -11.557556    2.682432   -2.572653
 ---------------------------------------------------------------------

 SCF Done:  E(RZINDO/S) =  -474.469437363     A.U. after   20 cycles

 Excitation energies and oscillator strengths:

 Excited State   1:      Singlet-A      1.2088 eV 1025.65 nm  f=0.5934  <S**2>=0.000
     175 ->178        -0.19597
     176 ->177         0.66169
 This state for optimization and/or second-order correction.
 Total Energy, E(CIS/TDA) =  -474.425013595
 Copying the excited state density for this state as the 1-particle RhoCI density.

 Excited State   2:      Singlet-A      1.8791 eV  659.80 nm  f=0.0736  <S**2>=0.000
     175 ->177         0.56571
     176 ->178         0.39892

 Excited State   3:      Singlet-A      2.8698 eV  432.03 nm  f=0.0126  <S**2>=0.000
     170 ->177         0.31946
     170 ->178         0.10544
     170 ->179         0.30055
     170 ->181        -0.32481
     170 ->185        -0.17993
     170 ->187        -0.21735
     174 ->177         0.20676

 Excited State   4:      Singlet-A      2.9399 eV  421.74 nm  f=0.1340  <S**2>=0.000
     170 ->177        -0.12345
     170 ->179        -0.10693
     170 ->181         0.11256
     172 ->177        -0.27834
     174 ->177         0.51984
     175 ->177        -0.14165
     176 ->178         0.16163
     176 ->179        -0.11666

 Excited State   5:      Singlet-A      3.0086 eV  412.10 nm  f=0.6921  <S**2>=0.000
     168 ->179         0.10040
     171 ->177         0.11274
     174 ->177        -0.26727
     175 ->177        -0.27909
     176 ->178         0.45622
     176 ->179        -0.22484

 The electronic state is 1-A.
 Alpha  occ. eigenvalues --   -1.83805  -1.81150  -1.80203  -1.76202  -1.73899
 Alpha  occ. eigenvalues --   -1.71139  -1.67300  -1.61761  -1.60719  -1.58026
 Alpha  occ. eigenvalues --   -1.55770  -1.51493  -1.48565  -1.47213  -1.47152
 Alpha  occ. eigenvalues --   -1.45091  -1.43697  -1.41784  -1.40808  -1.38796
 Alpha  occ. eigenvalues --   -1.36339  -1.35157  -1.33715  -1.30680  -1.28441
 Alpha  occ. eigenvalues --   -1.27630  -1.26935  -1.23338  -1.21571  -1.18556
 Alpha  occ. eigenvalues --   -1.18098  -1.15981  -1.15661  -1.14995  -1.13341
 Alpha  occ. eigenvalues --   -1.13113  -1.10455  -1.10047  -1.05344  -1.04614
 Alpha  occ. eigenvalues --   -1.02290  -1.01138  -0.99343  -0.98795  -0.97865
 Alpha  occ. eigenvalues --   -0.97418  -0.95000  -0.94854  -0.94127  -0.92759
 Alpha  occ. eigenvalues --   -0.91601  -0.91309  -0.89518  -0.88256  -0.86277
 Alpha  occ. eigenvalues --   -0.86112  -0.85225  -0.83633  -0.82605  -0.80530
 Alpha  occ. eigenvalues --   -0.79465  -0.78614  -0.77517  -0.77172  -0.76554
 Alpha  occ. eigenvalues --   -0.76274  -0.75256  -0.74666  -0.73595  -0.73182
 Alpha  occ. eigenvalues --   -0.72552  -0.72372  -0.72004  -0.71283  -0.70480
 Alpha  occ. eigenvalues --   -0.70176  -0.69238  -0.68993  -0.68493  -0.68307
 Alpha  occ. eigenvalues --   -0.67706  -0.67254  -0.66868  -0.66749  -0.66359
 Alpha  occ. eigenvalues --   -0.65893  -0.65197  -0.64774  -0.64448  -0.64202
 Alpha  occ. eigenvalues --   -0.63837  -0.63761  -0.63555  -0.63447  -0.62174
 Alpha  occ. eigenvalues --   -0.61440  -0.61142  -0.60956  -0.60583  -0.60212
 Alpha  occ. eigenvalues --   -0.60147  -0.59874  -0.58625  -0.58365  -0.58115
 Alpha  occ. eigenvalues --   -0.57801  -0.57666  -0.57250  -0.57106  -0.56997
 Alpha  occ. eigenvalues --   -0.56289  -0.56086  -0.55855  -0.54944  -0.54862
 Alpha  occ. eigenvalues --   -0.54645  -0.54266  -0.53587  -0.53058  -0.52749
 Alpha  occ. eigenvalues --   -0.52583  -0.52114  -0.52019  -0.51939  -0.51772
 Alpha  occ. eigenvalues --   -0.51503  -0.51012  -0.50556  -0.50388  -0.50183
 Alpha  occ. eigenvalues --   -0.50074  -0.49858  -0.49449  -0.49205  -0.49098
 Alpha  occ. eigenvalues --   -0.48999  -0.48760  -0.48470  -0.48146  -0.47721
 Alpha  occ. eigenvalues --   -0.47257  -0.47090  -0.46948  -0.46805  -0.46669
 Alpha  occ. eigenvalues --   -0.46328  -0.46111  -0.45972  -0.45948  -0.45247
 Alpha  occ. eigenvalues --   -0.45138  -0.45094  -0.44775  -0.44620  -0.44225
 Alpha  occ. eigenvalues --   -0.43186  -0.42948  -0.42598  -0.42380  -0.42243
 Alpha  occ. eigenvalues --   -0.42187  -0.41748  -0.39938  -0.39380  -0.38667
 Alpha  occ. eigenvalues --   -0.38380  -0.37708  -0.36316  -0.35403  -0.34166
 Alpha  occ. eigenvalues --   -0.33717  -0.32812  -0.32624  -0.31674  -0.27001
 Alpha  occ. eigenvalues --   -0.22335
 Alpha virt. eigenvalues --   -0.09334  -0.02501  -0.00637   0.00993   0.01278
 Alpha virt. eigenvalues --    0.01443   0.02223   0.02748   0.04330   0.04966
 Alpha virt. eigenvalues --    0.05755   0.06468   0.07157   0.07597   0.07705

 Mulliken charges:
               1
     1  Mg   0.438047
     2  C   -0.049106
     3  C   -0.062459
     4  C   -0.093222
     5  C   -0.065464
     6  N   -0.282251
     7  C    0.124434
     8  C    0.006025
     9  C   -0.001478
    10  C    0.116536
    11  C   -0.052456
    12  C   -0.007915
    13  C    0.004611
    14  C    0.478983
    15  O   -0.543783
    16  O   -0.247212
    17  N   -0.329755
    18  C    0.106725
    19  C    0.035947
    20  C   -0.065086
    21  C    0.139206
    22  C   -0.037456
    23  C    0.327137
    24  O   -0.538720
    25  C   -0.037425
    26  N   -0.279309
    27  C    0.128964
    28  C   -0.008612
    29  C    0.016544
    30  C    0.139473
    31  C   -0.055900
    32  C   -0.031860
    33  C   -0.064744
    34  N   -0.327594
    35  C    0.090181
    36  C    0.044417
    37  C   -0.057453
    38  C    0.124591
    39  C   -0.040253
    40  C    0.344271
    41  O   -0.500750
    42  C    0.062198
    43  C    0.494974
    44  O   -0.509302
    45  O   -0.293501
    46  C    0.074470
    47  C    0.116472
    48  C   -0.084471
    49  C   -0.011309
    50  C   -0.038818
    51  C   -0.028947
    52  C   -0.029865
    53  C   -0.035882
    54  C   -0.017624
    55  C   -0.055928
    56  C   -0.051292
    57  C   -0.046137
    58  C   -0.035032
    59  C   -0.000739
    60  C   -0.053342
    61  C   -0.042892
    62  C   -0.043068
    63  C   -0.032860
    64  C   -0.012195
    65  C   -0.054588
    66  C   -0.066757
    67  H    0.031436
    68  H    0.025624
    69  H    0.022731
    70  H    0.029477
    71  H    0.035148
    72  H    0.030715
    73  H    0.016172
    74  H    0.023222
    75  H    0.025602
    76  H    0.026701
    77  H    0.039708
    78  H    0.037218
    79  H    0.026472
    80  H    0.034347
    81  H    0.040261
    82  H    0.047457
    83  H    0.030497
    84  H    0.039000
    85  H    0.025471
    86  H    0.030880
    87  H    0.019646
    88  H    0.022250
    89  H    0.027537
    90  H    0.016948
    91  H    0.025327
    92  H    0.028688
    93  H    0.029428
    94  H    0.010856
    95  H    0.030853
    96  H    0.040766
    97  H    0.036320
    98  H    0.054729
    99  H    0.022474
   100  H    0.057155
   101  H    0.041306
   102  H    0.055471
   103  H    0.047938
   104  H    0.019832
   105  H    0.025007
   106  H    0.033310
   107  H    0.015981
   108  H    0.017416
   109  H    0.019308
   110  H    0.031909
   111  H    0.012464
   112  H    0.014837
   113  H    0.022523
   114  H    0.027054
   115  H    0.018873
   116  H    0.015538
   117  H    0.017989
   118  H    0.008667
   119  H    0.022689
   120  H    0.027668
   121  H    0.015119
   122  H    0.014220
   123  H    0.030351
   124  H    0.030111
   125  H    0.026785
   126  H    0.020196
   127  H    0.001264
   128  H    0.025951
   129  H    0.014299
   130  H    0.024770
   131  H    0.009386
   132  H    0.015227
   133  H    0.015281
   134  H    0.019425
   135  H    0.012309
   136  H    0.025377
   137  H    0.016109
   138  H    0.021369
   139  H    0.014533
   140  H    0.021628
 Sum of Mulliken charges =  -0.00000

 Dipole moment (field-independent basis, Debye):
    X=             -0.2941    Y=              3.1363    Z=              3.7931  Tot=              4.9305
 N-N= 4.403875386525D+03 E-N= 0.000000000000D+00  KE=-9.481454349311D+03
 Leave Link  601 at Fri Apr 29 01:39:07 2022, MaxMem=  6710886400 cpu:               0.7 elap:               0.0
 (Enter /sw/apps/gaussian-16.0/g16/l9999.exe)
 1\1\GINC-BP1-COMPUTE190\SP\RZINDO CIS\STO-3G\C55H74Mg1N4O6\OF15641\29-
 Apr-2022\0\\#p ZINDO=(nstates=5)\\step_1801_chromophore_17 ZINDO\\0,1\
 Mg,0,29.381,59.387,40.603\C,0,26.352,57.707,40.132\C,0,30.986,56.603,3
 9.22\C,0,32.212,61.086,40.664\C,0,27.55,62.308,41.42\N,0,28.67,57.48,3
 9.587\C,0,27.424,56.939,39.639\C,0,27.392,55.637,38.808\C,0,28.933,55.
 187,38.789\C,0,29.58,56.478,39.275\C,0,29.288,53.886,39.602\C,0,26.738
 ,55.759,37.429\C,0,25.805,54.608,37.\C,0,25.81,54.044,35.614\O,0,26.03

 Normal termination of Gaussian 16 at Fri Apr 29 01:39:07 2022.
