 Gaussian 16, Revision A.03,
 Gaussian 16:  ES64L-G16RevA.03 25-Dec-2016

 ------------------------------
 #p blyp/Def2SVP td=(nstates=5)
 ------------------------------

 ---------------------------------------------------
 step_1301_chromophore_16 TDDFT with blyp functional
 ---------------------------------------------------
 Symbolic Z-matrix:
 Charge =  0 Multiplicity = 1

                         Standard orientation:
 ---------------------------------------------------------------------
 Center     Atomic      Atomic             Coordinates (Angstroms)
 Number     Number       Type             X           Y           Z
 ---------------------------------------------------------------------
      1         12           0        6.314996    0.542438    0.092106
      2          6           0        4.021580   -2.127356    0.076195
      3          6           0        3.841141    2.660832   -1.076160
      4          6           0        8.658948    3.041512    0.001700
      5          6           0        8.723515   -1.563509    1.445255
      6          7           0        4.117507    0.191198   -0.649524
      7          6           0        3.374124   -0.931313   -0.430407
      8          6           0        1.920640   -0.654807   -0.764919
      9          6           0        1.962358    0.893284   -1.153365
     10          6           0        3.430052    1.270143   -0.956003
     11          6           0        1.360426    1.154519   -2.630193
     12          6           0        0.928948   -1.033529    0.378116
     13          6           0       -0.558197   -0.591267    0.247511
     14          6           0       -1.533262   -1.809462    0.415617
     15          8           0       -1.928810   -2.307976    1.484079
     16          8           0       -1.811128   -2.294690   -0.870060
     17          7           0        6.227619    2.599399   -0.566403
     18          6           0        5.100511    3.247257   -1.045436
     19          6           0        5.452983    4.691131   -1.267364
     20          6           0        6.841164    4.795100   -0.918876
     21          6           0        7.310570    3.454286   -0.478488
     22          6           0        4.518080    5.756781   -1.837408
     23          6           0        7.801265    5.981084   -1.013740
     24          8           0        8.997796    5.944854   -0.793347
     25          6           0        7.262777    7.396704   -1.263652
     26          7           0        8.441963    0.699508    0.582367
     27          6           0        9.123288    1.836026    0.439949
     28          6           0       10.504800    1.753842    1.062428
     29          6           0       10.421406    0.371103    1.760471
     30          6           0        9.188635   -0.226973    1.210918
     31          6           0       11.745064    1.903028    0.185986
     32          6           0       10.667580    0.402186    3.332291
     33          6           0        9.744151    1.191053    4.089987
     34          7           0        6.410845   -1.400166    0.602306
     35          6           0        7.480309   -2.145082    1.119335
     36          6           0        7.120606   -3.501830    1.324064
     37          6           0        5.735715   -3.496403    0.939902
     38          6           0        5.387185   -2.231931    0.464203
     39          6           0        8.024604   -4.692199    1.830745
     40          6           0        4.529194   -4.356700    1.061423
     41          8           0        4.362197   -5.481430    1.579679
     42          6           0        3.367566   -3.482437    0.420605
     43          6           0        2.813935   -4.246294   -0.734762
     44          8           0        3.464657   -4.493825   -1.760135
     45          8           0        1.560085   -4.762414   -0.523124
     46          6           0        0.997027   -5.769892   -1.425544
     47          6           0       -2.997256   -3.241755   -0.800705
     48          6           0       -4.239976   -2.591947   -1.442597
     49          6           0       -5.462393   -3.130051   -1.820327
     50          6           0       -5.670111   -4.637776   -1.729438
     51          6           0       -6.569769   -2.304780   -2.513988
     52          6           0       -7.547098   -1.765751   -1.572537
     53          6           0       -8.202719   -0.394288   -2.104105
     54          6           0       -9.766603   -0.326167   -2.213686
     55          6           0      -10.170905    0.320434   -3.549384
     56          6           0      -10.151197    0.668166   -1.065265
     57          6           0      -11.663788    0.420584   -0.757491
     58          6           0      -12.407180    1.731310   -0.910616
     59          6           0      -13.919791    1.550849   -0.585273
     60          6           0      -14.794112    2.688611   -1.311559
     61          6           0      -14.076407    1.800387    0.908784
     62          6           0      -15.360825    1.125294    1.516623
     63          6           0      -15.415055    1.211726    3.038002
     64          6           0      -16.510160    2.061329    3.611043
     65          6           0      -17.251762    1.418715    4.908782
     66          6           0      -16.042064    3.543142    3.957942
     67          1           0        3.027100    3.294362   -1.433156
     68          1           0        9.343545    3.884893    0.114440
     69          1           0        9.490299   -2.192489    1.900983
     70          1           0        1.658159   -1.291516   -1.609885
     71          1           0        1.336473    1.457403   -0.462175
     72          1           0        0.834990    2.107933   -2.686341
     73          1           0        0.767280    0.320756   -3.006505
     74          1           0        2.234107    1.359210   -3.249144
     75          1           0        1.330370   -0.835808    1.372115
     76          1           0        0.971445   -2.116878    0.272824
     77          1           0       -0.796764   -0.145712   -0.719138
     78          1           0       -0.606449    0.136517    1.056594
     79          1           0        4.708308    5.794351   -2.909848
     80          1           0        4.722499    6.715089   -1.360104
     81          1           0        3.470292    5.578712   -1.594029
     82          1           0        8.011847    8.182831   -1.165240
     83          1           0        6.444705    7.501300   -0.552201
     84          1           0        6.893794    7.527317   -2.280742
     85          1           0       10.558161    2.540015    1.815838
     86          1           0       11.203009   -0.335887    1.484778
     87          1           0       11.483115    2.183565   -0.834518
     88          1           0       12.236068    0.934126    0.280716
     89          1           0       12.438196    2.614960    0.635409
     90          1           0       11.611411    0.946615    3.351485
     91          1           0       10.680500   -0.571379    3.823125
     92          1           0        9.006723    0.497862    4.494737
     93          1           0        9.254921    1.845707    3.367847
     94          1           0       10.323857    1.752038    4.822433
     95          1           0        8.024564   -4.726168    2.920893
     96          1           0        8.982770   -4.609130    1.318870
     97          1           0        7.479879   -5.576992    1.501574
     98          1           0        2.608645   -3.350615    1.190329
     99          1           0        0.665864   -5.468561   -2.419587
    100          1           0        0.269693   -6.346215   -0.854147
    101          1           0        1.802123   -6.492800   -1.555928
    102          1           0       -3.317063   -3.718229    0.126041
    103          1           0       -2.660674   -4.040282   -1.462129
    104          1           0       -4.074090   -1.521097   -1.567012
    105          1           0       -4.708021   -5.076533   -1.996117
    106          1           0       -6.467491   -5.025346   -2.362411
    107          1           0       -5.938062   -4.994812   -0.735063
    108          1           0       -7.054133   -2.923426   -3.269872
    109          1           0       -6.067312   -1.481141   -3.021741
    110          1           0       -7.167406   -1.480528   -0.590875
    111          1           0       -8.412955   -2.408555   -1.406538
    112          1           0       -7.830982   -0.232666   -3.115691
    113          1           0       -7.824873    0.364304   -1.418153
    114          1           0      -10.158946   -1.336127   -2.097959
    115          1           0      -11.047183   -0.164976   -3.978790
    116          1           0       -9.412544    0.029896   -4.277028
    117          1           0      -10.496448    1.360613   -3.553607
    118          1           0      -10.070931    1.709884   -1.374228
    119          1           0       -9.495075    0.458275   -0.219891
    120          1           0      -11.800245   -0.043364    0.218942
    121          1           0      -12.085403   -0.326762   -1.430456
    122          1           0      -12.378242    2.081820   -1.941580
    123          1           0      -12.072160    2.436277   -0.148932
    124          1           0      -14.215276    0.580856   -0.984004
    125          1           0      -14.998695    3.543024   -0.666840
    126          1           0      -15.821043    2.416496   -1.555797
    127          1           0      -14.227708    3.023538   -2.180598
    128          1           0      -14.242841    2.857860    1.116036
    129          1           0      -13.157176    1.481256    1.399602
    130          1           0      -15.374755    0.089359    1.179579
    131          1           0      -16.272957    1.618695    1.179074
    132          1           0      -14.456844    1.591209    3.391686
    133          1           0      -15.444666    0.156968    3.310837
    134          1           0      -17.292977    2.155341    2.858353
    135          1           0      -17.721735    2.112297    5.605684
    136          1           0      -16.475220    0.827145    5.395027
    137          1           0      -17.928154    0.662108    4.511493
    138          1           0      -15.787111    3.553187    5.018374
    139          1           0      -16.878674    4.174572    3.660906
    140          1           0      -15.256404    3.876966    3.280629
 ---------------------------------------------------------------------

 SCF Done:  E(RB-LYP) =  -3007.36402511     A.U. after   21 cycles

 Excitation energies and oscillator strengths:

 Excited State   1:      Singlet-A      1.7870 eV  693.82 nm  f=0.2539  <S**2>=0.000
     244 -> 247       -0.11252
     245 -> 248        0.19659
     246 -> 247        0.67836
     246 <- 247       -0.14326
 This state for optimization and/or second-order correction.
 Total Energy, E(TD-HF/TD-DFT) =  -3007.29835439
 Copying the excited state density for this state as the 1-particle RhoCI density.

 Excited State   2:      Singlet-A      1.9311 eV  642.05 nm  f=0.0285  <S**2>=0.000
     244 -> 247        0.63991
     245 -> 247       -0.26280
     246 -> 247        0.10674

 Excited State   3:      Singlet-A      2.0157 eV  615.10 nm  f=0.0066  <S**2>=0.000
     243 -> 247        0.66754
     245 -> 247       -0.19195

 Excited State   4:      Singlet-A      2.0218 eV  613.25 nm  f=0.0671  <S**2>=0.000
     243 -> 247        0.23132
     244 -> 247        0.25815
     245 -> 247        0.55780
     246 -> 248       -0.24022

 Excited State   5:      Singlet-A      2.2184 eV  558.89 nm  f=0.0000  <S**2>=0.000
     242 -> 247        0.70710

 The electronic state is 1-A.
 Alpha  occ. eigenvalues --  -46.28189 -18.83235 -18.81902 -18.77592 -18.76101
 Alpha  occ. eigenvalues --  -18.75857 -18.75794 -14.03528 -14.02847 -14.01726
 Alpha  occ. eigenvalues --  -14.01048 -10.04917 -10.03708 -10.00227 -10.00127
 Alpha  occ. eigenvalues --   -9.98596  -9.97762  -9.97251  -9.97051  -9.96838
 Alpha  occ. eigenvalues --   -9.96313  -9.96288  -9.95727  -9.95554  -9.95114
 Alpha  occ. eigenvalues --   -9.94779  -9.94692  -9.94500  -9.94336  -9.94308
 Alpha  occ. eigenvalues --   -9.94270  -9.93786  -9.93692  -9.93660  -9.93583
 Alpha  occ. eigenvalues --   -9.93580  -9.93542  -9.93358  -9.93268  -9.92938
 Alpha  occ. eigenvalues --   -9.92900  -9.92871  -9.92452  -9.92419  -9.92341
 Alpha  occ. eigenvalues --   -9.92212  -9.92204  -9.92172  -9.92078  -9.92017
 Alpha  occ. eigenvalues --   -9.91846  -9.91630  -9.91451  -9.91425  -9.91120
 Alpha  occ. eigenvalues --   -9.91070  -9.91068  -9.91011  -9.90990  -9.90898
 Alpha  occ. eigenvalues --   -9.90885  -9.90872  -9.90801  -9.90752  -9.90699
 Alpha  occ. eigenvalues --   -9.90310  -2.92617  -1.73057  -1.72507  -1.72318
 Alpha  occ. eigenvalues --   -0.96819  -0.96685  -0.92150  -0.89970  -0.89318
 Alpha  occ. eigenvalues --   -0.88387  -0.87415  -0.87006  -0.86102  -0.84287
 Alpha  occ. eigenvalues --   -0.74891  -0.73601  -0.73361  -0.72980  -0.72552
 Alpha  occ. eigenvalues --   -0.71812  -0.71615  -0.70575  -0.70547  -0.70070
 Alpha  occ. eigenvalues --   -0.69523  -0.68737  -0.68469  -0.67751  -0.66960
 Alpha  occ. eigenvalues --   -0.66329  -0.65910  -0.64950  -0.64607  -0.64308
 Alpha  occ. eigenvalues --   -0.63863  -0.62513  -0.62200  -0.62142  -0.61021
 Alpha  occ. eigenvalues --   -0.60349  -0.60111  -0.59618  -0.59203  -0.58715
 Alpha  occ. eigenvalues --   -0.57932  -0.57583  -0.56986  -0.55868  -0.54828
 Alpha  occ. eigenvalues --   -0.53826  -0.53584  -0.52473  -0.52013  -0.51443
 Alpha  occ. eigenvalues --   -0.51093  -0.51001  -0.50531  -0.50366  -0.50089
 Alpha  occ. eigenvalues --   -0.49249  -0.49087  -0.48564  -0.48410  -0.46568
 Alpha  occ. eigenvalues --   -0.46288  -0.46050  -0.45844  -0.45370  -0.44626
 Alpha  occ. eigenvalues --   -0.44059  -0.43673  -0.42759  -0.42577  -0.42148
 Alpha  occ. eigenvalues --   -0.41957  -0.41833  -0.41655  -0.41489  -0.41303
 Alpha  occ. eigenvalues --   -0.41084  -0.40831  -0.40625  -0.40374  -0.40005
 Alpha  occ. eigenvalues --   -0.39784  -0.39595  -0.39349  -0.39340  -0.39171
 Alpha  occ. eigenvalues --   -0.38976  -0.38584  -0.38453  -0.38359  -0.38163
 Alpha  occ. eigenvalues --   -0.38072  -0.37934  -0.37755  -0.37648  -0.37439
 Alpha  occ. eigenvalues --   -0.37056  -0.36981  -0.36937  -0.36823  -0.36393
 Alpha  occ. eigenvalues --   -0.36171  -0.36066  -0.35964  -0.35801  -0.35694
 Alpha  occ. eigenvalues --   -0.35485  -0.35197  -0.35024  -0.34915  -0.34861
 Alpha  occ. eigenvalues --   -0.34592  -0.34440  -0.34099  -0.34004  -0.33965
 Alpha  occ. eigenvalues --   -0.33820  -0.33399  -0.33274  -0.33141  -0.32899
 Alpha  occ. eigenvalues --   -0.32793  -0.32712  -0.32651  -0.32463  -0.32354
 Alpha  occ. eigenvalues --   -0.32242  -0.31859  -0.31802  -0.31684  -0.31590
 Alpha  occ. eigenvalues --   -0.31537  -0.31031  -0.30963  -0.30890  -0.30632
 Alpha  occ. eigenvalues --   -0.30465  -0.30268  -0.30206  -0.30120  -0.30029
 Alpha  occ. eigenvalues --   -0.29806  -0.29425  -0.29362  -0.29334  -0.28978
 Alpha  occ. eigenvalues --   -0.28672  -0.28661  -0.28478  -0.28071  -0.28004
 Alpha  occ. eigenvalues --   -0.27697  -0.27392  -0.26864  -0.26634  -0.26439
 Alpha  occ. eigenvalues --   -0.26268  -0.26106  -0.26037  -0.25732  -0.25347
 Alpha  occ. eigenvalues --   -0.25234  -0.24635  -0.24075  -0.23881  -0.23583
 Alpha  occ. eigenvalues --   -0.22689  -0.22159  -0.21901  -0.21090  -0.20828
 Alpha  occ. eigenvalues --   -0.20572  -0.19754  -0.18907  -0.18645  -0.17371
 Alpha  occ. eigenvalues --   -0.15879
 Alpha virt. eigenvalues --   -0.11602  -0.07128  -0.06488  -0.04814  -0.03994
 Alpha virt. eigenvalues --   -0.02611  -0.02309  -0.02083  -0.01407  -0.00307
 Alpha virt. eigenvalues --    0.00869   0.01174   0.02346   0.02584   0.02721

 Mulliken charges:
               1
     1  Mg   0.681563
     2  C   -0.007920
     3  C   -0.044581
     4  C   -0.045999
     5  C   -0.105223
     6  N   -0.151837
     7  C   -0.093002
     8  C    0.056044
     9  C   -0.026256
    10  C    0.002411
    11  C    0.097920
    12  C    0.014150
    13  C    0.181588
    14  C    0.102438
    15  O   -0.194773
    16  O   -0.301341
    17  N   -0.291538
    18  C    0.135720
    19  C   -0.144896
    20  C    0.026047
    21  C    0.061525
    22  C    0.169177
    23  C   -0.064145
    24  O   -0.153301
    25  C    0.107785
    26  N   -0.180724
    27  C    0.070933
    28  C   -0.041290
    29  C    0.027686
    30  C    0.006258
    31  C    0.172358
    32  C    0.069354
    33  C    0.093288
    34  N   -0.288128
    35  C    0.158515
    36  C   -0.186483
    37  C    0.028887
    38  C    0.126373
    39  C    0.183059
    40  C   -0.013933
    41  O   -0.155985
    42  C    0.049340
    43  C    0.121761
    44  O   -0.203279
    45  O   -0.271786
    46  C    0.224873
    47  C    0.299715
    48  C   -0.119474
    49  C   -0.150129
    50  C    0.122984
    51  C    0.167729
    52  C    0.087262
    53  C    0.072079
    54  C   -0.094333
    55  C    0.111932
    56  C    0.119859
    57  C    0.069427
    58  C    0.093865
    59  C   -0.063713
    60  C    0.096982
    61  C    0.065234
    62  C    0.064090
    63  C    0.140268
    64  C   -0.104036
    65  C    0.080796
    66  C    0.096047
    67  H   -0.061041
    68  H   -0.039431
    69  H   -0.067521
    70  H   -0.011625
    71  H   -0.017579
    72  H   -0.010590
    73  H    0.015257
    74  H   -0.007938
    75  H   -0.011101
    76  H    0.018262
    77  H   -0.006677
    78  H   -0.001808
    79  H    0.022625
    80  H   -0.014394
    81  H   -0.005332
    82  H   -0.008294
    83  H    0.015528
    84  H    0.001180
    85  H   -0.014836
    86  H   -0.032146
    87  H    0.006448
    88  H   -0.021402
    89  H   -0.012993
    90  H   -0.028692
    91  H   -0.017717
    92  H   -0.008884
    93  H   -0.006834
    94  H   -0.005364
    95  H    0.011996
    96  H    0.010429
    97  H    0.009457
    98  H    0.000569
    99  H    0.025636
   100  H    0.014768
   101  H    0.006275
   102  H    0.033727
   103  H   -0.001842
   104  H   -0.035874
   105  H   -0.004679
   106  H   -0.016455
   107  H    0.003740
   108  H   -0.029869
   109  H   -0.023765
   110  H   -0.026129
   111  H   -0.039598
   112  H   -0.043503
   113  H   -0.023294
   114  H   -0.028531
   115  H   -0.035652
   116  H   -0.022718
   117  H    0.002499
   118  H   -0.020228
   119  H   -0.031268
   120  H   -0.038203
   121  H   -0.034535
   122  H   -0.035903
   123  H   -0.027598
   124  H   -0.039664
   125  H   -0.027956
   126  H   -0.015767
   127  H   -0.023446
   128  H   -0.023491
   129  H   -0.028437
   130  H   -0.037671
   131  H   -0.039813
   132  H   -0.039747
   133  H   -0.044902
   134  H   -0.034672
   135  H   -0.001955
   136  H   -0.016832
   137  H   -0.015553
   138  H    0.001768
   139  H   -0.018255
   140  H   -0.019379
 Sum of Mulliken charges =  -0.00000

 Dipole moment (field-independent basis, Debye):
    X=             -2.4125    Y=              3.0425    Z=             -0.9438  Tot=              3.9959
 Quadrupole moment (field-independent basis, Debye-Ang):
   XX=           -388.6871   YY=           -417.2578   ZZ=           -409.0935
   XY=             11.8767   XZ=             30.5351   YZ=              6.8655

 Normal termination of Gaussian 16 at Wed May  4 03:31:19 2022.
