 Gaussian 16, Revision A.03,
 Gaussian 16:  ES64L-G16RevA.03 25-Dec-2016

 -----------------------------------
 #p cam-b3lyp/Def2SVP td=(nstates=5)
 -----------------------------------

 --------------------------------------------------------
 step_1301_chromophore_16 TDDFT with cam-b3lyp functional
 --------------------------------------------------------
 Symbolic Z-matrix:
 Charge =  0 Multiplicity = 1

                         Standard orientation:
 ---------------------------------------------------------------------
 Center     Atomic      Atomic             Coordinates (Angstroms)
 Number     Number       Type             X           Y           Z
 ---------------------------------------------------------------------
      1         12           0        6.314996    0.542438    0.092106
      2          6           0        4.021580   -2.127356    0.076195
      3          6           0        3.841141    2.660832   -1.076160
      4          6           0        8.658948    3.041512    0.001700
      5          6           0        8.723515   -1.563509    1.445255
      6          7           0        4.117507    0.191198   -0.649524
      7          6           0        3.374124   -0.931313   -0.430407
      8          6           0        1.920640   -0.654807   -0.764919
      9          6           0        1.962358    0.893284   -1.153365
     10          6           0        3.430052    1.270143   -0.956003
     11          6           0        1.360426    1.154519   -2.630193
     12          6           0        0.928948   -1.033529    0.378116
     13          6           0       -0.558197   -0.591267    0.247511
     14          6           0       -1.533262   -1.809462    0.415617
     15          8           0       -1.928810   -2.307976    1.484079
     16          8           0       -1.811128   -2.294690   -0.870060
     17          7           0        6.227619    2.599399   -0.566403
     18          6           0        5.100511    3.247257   -1.045436
     19          6           0        5.452983    4.691131   -1.267364
     20          6           0        6.841164    4.795100   -0.918876
     21          6           0        7.310570    3.454286   -0.478488
     22          6           0        4.518080    5.756781   -1.837408
     23          6           0        7.801265    5.981084   -1.013740
     24          8           0        8.997796    5.944854   -0.793347
     25          6           0        7.262777    7.396704   -1.263652
     26          7           0        8.441963    0.699508    0.582367
     27          6           0        9.123288    1.836026    0.439949
     28          6           0       10.504800    1.753842    1.062428
     29          6           0       10.421406    0.371103    1.760471
     30          6           0        9.188635   -0.226973    1.210918
     31          6           0       11.745064    1.903028    0.185986
     32          6           0       10.667580    0.402186    3.332291
     33          6           0        9.744151    1.191053    4.089987
     34          7           0        6.410845   -1.400166    0.602306
     35          6           0        7.480309   -2.145082    1.119335
     36          6           0        7.120606   -3.501830    1.324064
     37          6           0        5.735715   -3.496403    0.939902
     38          6           0        5.387185   -2.231931    0.464203
     39          6           0        8.024604   -4.692199    1.830745
     40          6           0        4.529194   -4.356700    1.061423
     41          8           0        4.362197   -5.481430    1.579679
     42          6           0        3.367566   -3.482437    0.420605
     43          6           0        2.813935   -4.246294   -0.734762
     44          8           0        3.464657   -4.493825   -1.760135
     45          8           0        1.560085   -4.762414   -0.523124
     46          6           0        0.997027   -5.769892   -1.425544
     47          6           0       -2.997256   -3.241755   -0.800705
     48          6           0       -4.239976   -2.591947   -1.442597
     49          6           0       -5.462393   -3.130051   -1.820327
     50          6           0       -5.670111   -4.637776   -1.729438
     51          6           0       -6.569769   -2.304780   -2.513988
     52          6           0       -7.547098   -1.765751   -1.572537
     53          6           0       -8.202719   -0.394288   -2.104105
     54          6           0       -9.766603   -0.326167   -2.213686
     55          6           0      -10.170905    0.320434   -3.549384
     56          6           0      -10.151197    0.668166   -1.065265
     57          6           0      -11.663788    0.420584   -0.757491
     58          6           0      -12.407180    1.731310   -0.910616
     59          6           0      -13.919791    1.550849   -0.585273
     60          6           0      -14.794112    2.688611   -1.311559
     61          6           0      -14.076407    1.800387    0.908784
     62          6           0      -15.360825    1.125294    1.516623
     63          6           0      -15.415055    1.211726    3.038002
     64          6           0      -16.510160    2.061329    3.611043
     65          6           0      -17.251762    1.418715    4.908782
     66          6           0      -16.042064    3.543142    3.957942
     67          1           0        3.027100    3.294362   -1.433156
     68          1           0        9.343545    3.884893    0.114440
     69          1           0        9.490299   -2.192489    1.900983
     70          1           0        1.658159   -1.291516   -1.609885
     71          1           0        1.336473    1.457403   -0.462175
     72          1           0        0.834990    2.107933   -2.686341
     73          1           0        0.767280    0.320756   -3.006505
     74          1           0        2.234107    1.359210   -3.249144
     75          1           0        1.330370   -0.835808    1.372115
     76          1           0        0.971445   -2.116878    0.272824
     77          1           0       -0.796764   -0.145712   -0.719138
     78          1           0       -0.606449    0.136517    1.056594
     79          1           0        4.708308    5.794351   -2.909848
     80          1           0        4.722499    6.715089   -1.360104
     81          1           0        3.470292    5.578712   -1.594029
     82          1           0        8.011847    8.182831   -1.165240
     83          1           0        6.444705    7.501300   -0.552201
     84          1           0        6.893794    7.527317   -2.280742
     85          1           0       10.558161    2.540015    1.815838
     86          1           0       11.203009   -0.335887    1.484778
     87          1           0       11.483115    2.183565   -0.834518
     88          1           0       12.236068    0.934126    0.280716
     89          1           0       12.438196    2.614960    0.635409
     90          1           0       11.611411    0.946615    3.351485
     91          1           0       10.680500   -0.571379    3.823125
     92          1           0        9.006723    0.497862    4.494737
     93          1           0        9.254921    1.845707    3.367847
     94          1           0       10.323857    1.752038    4.822433
     95          1           0        8.024564   -4.726168    2.920893
     96          1           0        8.982770   -4.609130    1.318870
     97          1           0        7.479879   -5.576992    1.501574
     98          1           0        2.608645   -3.350615    1.190329
     99          1           0        0.665864   -5.468561   -2.419587
    100          1           0        0.269693   -6.346215   -0.854147
    101          1           0        1.802123   -6.492800   -1.555928
    102          1           0       -3.317063   -3.718229    0.126041
    103          1           0       -2.660674   -4.040282   -1.462129
    104          1           0       -4.074090   -1.521097   -1.567012
    105          1           0       -4.708021   -5.076533   -1.996117
    106          1           0       -6.467491   -5.025346   -2.362411
    107          1           0       -5.938062   -4.994812   -0.735063
    108          1           0       -7.054133   -2.923426   -3.269872
    109          1           0       -6.067312   -1.481141   -3.021741
    110          1           0       -7.167406   -1.480528   -0.590875
    111          1           0       -8.412955   -2.408555   -1.406538
    112          1           0       -7.830982   -0.232666   -3.115691
    113          1           0       -7.824873    0.364304   -1.418153
    114          1           0      -10.158946   -1.336127   -2.097959
    115          1           0      -11.047183   -0.164976   -3.978790
    116          1           0       -9.412544    0.029896   -4.277028
    117          1           0      -10.496448    1.360613   -3.553607
    118          1           0      -10.070931    1.709884   -1.374228
    119          1           0       -9.495075    0.458275   -0.219891
    120          1           0      -11.800245   -0.043364    0.218942
    121          1           0      -12.085403   -0.326762   -1.430456
    122          1           0      -12.378242    2.081820   -1.941580
    123          1           0      -12.072160    2.436277   -0.148932
    124          1           0      -14.215276    0.580856   -0.984004
    125          1           0      -14.998695    3.543024   -0.666840
    126          1           0      -15.821043    2.416496   -1.555797
    127          1           0      -14.227708    3.023538   -2.180598
    128          1           0      -14.242841    2.857860    1.116036
    129          1           0      -13.157176    1.481256    1.399602
    130          1           0      -15.374755    0.089359    1.179579
    131          1           0      -16.272957    1.618695    1.179074
    132          1           0      -14.456844    1.591209    3.391686
    133          1           0      -15.444666    0.156968    3.310837
    134          1           0      -17.292977    2.155341    2.858353
    135          1           0      -17.721735    2.112297    5.605684
    136          1           0      -16.475220    0.827145    5.395027
    137          1           0      -17.928154    0.662108    4.511493
    138          1           0      -15.787111    3.553187    5.018374
    139          1           0      -16.878674    4.174572    3.660906
    140          1           0      -15.256404    3.876966    3.280629
 ---------------------------------------------------------------------

 SCF Done:  E(RCAM-B3LYP) =  -3007.14062125     A.U. after   17 cycles

 Excitation energies and oscillator strengths:

 Excited State   1:      Singlet-A      1.7114 eV  724.45 nm  f=0.3587  <S**2>=0.000
     245 -> 248       -0.18939
     246 -> 247        0.68127
     245 <- 248       -0.11016
 This state for optimization and/or second-order correction.
 Total Energy, E(TD-HF/TD-DFT) =  -3007.07772785
 Copying the excited state density for this state as the 1-particle RhoCI density.

 Excited State   2:      Singlet-A      2.2294 eV  556.14 nm  f=0.0938  <S**2>=0.000
     245 -> 247        0.62617
     246 -> 248        0.31374

 Excited State   3:      Singlet-A      3.4524 eV  359.12 nm  f=0.4680  <S**2>=0.000
     239 -> 247        0.16520
     242 -> 247       -0.28575
     243 -> 247        0.29317
     245 -> 247       -0.22871
     246 -> 248        0.48739

 Excited State   4:      Singlet-A      3.4870 eV  355.56 nm  f=0.2173  <S**2>=0.000
     241 -> 247        0.12560
     243 -> 247        0.56987
     245 -> 247        0.14943
     246 -> 248       -0.32671

 Excited State   5:      Singlet-A      3.5435 eV  349.90 nm  f=0.0338  <S**2>=0.000
     241 -> 247        0.50555
     241 -> 248       -0.11833
     241 -> 249       -0.28620
     241 -> 250       -0.20543
     242 -> 247        0.21876
     243 -> 247       -0.10449
     246 -> 248        0.10873

 The electronic state is 1-A.
 Alpha  occ. eigenvalues --  -46.89778 -19.26158 -19.24860 -19.20626 -19.19264
 Alpha  occ. eigenvalues --  -19.19146 -19.18932 -14.42540 -14.41464 -14.40328
 Alpha  occ. eigenvalues --  -14.39294 -10.40366 -10.39228 -10.35612 -10.35475
 Alpha  occ. eigenvalues --  -10.32720 -10.31740 -10.31699 -10.31673 -10.31645
 Alpha  occ. eigenvalues --  -10.30959 -10.30483 -10.30198 -10.30133 -10.29522
 Alpha  occ. eigenvalues --  -10.29172 -10.28861 -10.28709 -10.28567 -10.28481
 Alpha  occ. eigenvalues --  -10.28351 -10.28303 -10.28092 -10.27978 -10.27829
 Alpha  occ. eigenvalues --  -10.27774 -10.27563 -10.27146 -10.26970 -10.26760
 Alpha  occ. eigenvalues --  -10.26707 -10.26517 -10.26491 -10.26183 -10.26082
 Alpha  occ. eigenvalues --  -10.26016 -10.25978 -10.25912 -10.25912 -10.25879
 Alpha  occ. eigenvalues --  -10.25577 -10.25405 -10.25381 -10.25084 -10.24822
 Alpha  occ. eigenvalues --  -10.24732 -10.24628 -10.24622 -10.24607 -10.24556
 Alpha  occ. eigenvalues --  -10.24552 -10.24550 -10.24449 -10.24433 -10.24362
 Alpha  occ. eigenvalues --  -10.23935  -3.18103  -1.93021  -1.92551  -1.92400
 Alpha  occ. eigenvalues --   -1.15335  -1.15096  -1.10759  -1.08180  -1.07166
 Alpha  occ. eigenvalues --   -1.06344  -1.05068  -1.04772  -1.03512  -1.01995
 Alpha  occ. eigenvalues --   -0.91961  -0.90487  -0.89918  -0.89823  -0.89351
 Alpha  occ. eigenvalues --   -0.88534  -0.88263  -0.87171  -0.87138  -0.86971
 Alpha  occ. eigenvalues --   -0.85842  -0.85057  -0.84594  -0.84014  -0.83063
 Alpha  occ. eigenvalues --   -0.82415  -0.82026  -0.80894  -0.80538  -0.80176
 Alpha  occ. eigenvalues --   -0.79649  -0.78376  -0.77773  -0.77657  -0.76407
 Alpha  occ. eigenvalues --   -0.75726  -0.75373  -0.74950  -0.74492  -0.73955
 Alpha  occ. eigenvalues --   -0.72950  -0.72599  -0.71908  -0.70717  -0.69336
 Alpha  occ. eigenvalues --   -0.68405  -0.68130  -0.67015  -0.66396  -0.65609
 Alpha  occ. eigenvalues --   -0.65304  -0.64894  -0.64474  -0.64382  -0.64194
 Alpha  occ. eigenvalues --   -0.63085  -0.63039  -0.62478  -0.61967  -0.60068
 Alpha  occ. eigenvalues --   -0.59967  -0.59639  -0.59312  -0.58676  -0.58177
 Alpha  occ. eigenvalues --   -0.57558  -0.57019  -0.55865  -0.55458  -0.55327
 Alpha  occ. eigenvalues --   -0.55055  -0.54975  -0.54772  -0.54259  -0.54031
 Alpha  occ. eigenvalues --   -0.53898  -0.53805  -0.53568  -0.53000  -0.52929
 Alpha  occ. eigenvalues --   -0.52599  -0.52448  -0.52198  -0.51828  -0.51730
 Alpha  occ. eigenvalues --   -0.51457  -0.51080  -0.51018  -0.50821  -0.50689
 Alpha  occ. eigenvalues --   -0.50569  -0.50225  -0.49995  -0.49870  -0.49735
 Alpha  occ. eigenvalues --   -0.49576  -0.49221  -0.49118  -0.48971  -0.48890
 Alpha  occ. eigenvalues --   -0.48751  -0.48544  -0.48194  -0.47990  -0.47912
 Alpha  occ. eigenvalues --   -0.47648  -0.47584  -0.47170  -0.46807  -0.46709
 Alpha  occ. eigenvalues --   -0.46610  -0.46262  -0.45794  -0.45722  -0.45643
 Alpha  occ. eigenvalues --   -0.45604  -0.45206  -0.45013  -0.44866  -0.44756
 Alpha  occ. eigenvalues --   -0.44731  -0.44442  -0.44281  -0.44203  -0.44135
 Alpha  occ. eigenvalues --   -0.43816  -0.43580  -0.43552  -0.43156  -0.43111
 Alpha  occ. eigenvalues --   -0.43021  -0.42504  -0.42427  -0.42291  -0.42175
 Alpha  occ. eigenvalues --   -0.41839  -0.41534  -0.41439  -0.41418  -0.41270
 Alpha  occ. eigenvalues --   -0.41048  -0.40879  -0.40710  -0.40492  -0.40219
 Alpha  occ. eigenvalues --   -0.39996  -0.39664  -0.39438  -0.39043  -0.38829
 Alpha  occ. eigenvalues --   -0.38711  -0.38250  -0.37818  -0.37714  -0.37434
 Alpha  occ. eigenvalues --   -0.37222  -0.36866  -0.36834  -0.36415  -0.36266
 Alpha  occ. eigenvalues --   -0.36176  -0.35990  -0.34678  -0.34336  -0.34032
 Alpha  occ. eigenvalues --   -0.33683  -0.33327  -0.32957  -0.31235  -0.30939
 Alpha  occ. eigenvalues --   -0.30740  -0.30243  -0.29763  -0.29366  -0.24076
 Alpha  occ. eigenvalues --   -0.21112
 Alpha virt. eigenvalues --   -0.08670  -0.02134   0.00038   0.02163   0.02979
 Alpha virt. eigenvalues --    0.03805   0.05039   0.05113   0.05539   0.06146
 Alpha virt. eigenvalues --    0.07683   0.08212   0.08791   0.09093   0.09283

 Mulliken charges:
               1
     1  Mg   0.813203
     2  C   -0.024987
     3  C   -0.055159
     4  C   -0.066434
     5  C   -0.110866
     6  N   -0.219905
     7  C   -0.052548
     8  C    0.013042
     9  C   -0.085869
    10  C    0.023631
    11  C    0.042312
    12  C   -0.030908
    13  C    0.112013
    14  C    0.179615
    15  O   -0.236529
    16  O   -0.363881
    17  N   -0.378262
    18  C    0.147298
    19  C   -0.148335
    20  C   -0.046925
    21  C    0.093097
    22  C    0.115901
    23  C    0.015282
    24  O   -0.192892
    25  C    0.029419
    26  N   -0.256036
    27  C    0.091076
    28  C   -0.099167
    29  C   -0.034035
    30  C    0.027336
    31  C    0.113615
    32  C    0.023224
    33  C    0.029487
    34  N   -0.381231
    35  C    0.156460
    36  C   -0.181661
    37  C   -0.048432
    38  C    0.155146
    39  C    0.136342
    40  C    0.083715
    41  O   -0.195964
    42  C   -0.030102
    43  C    0.211144
    44  O   -0.239339
    45  O   -0.336884
    46  C    0.186177
    47  C    0.264855
    48  C   -0.136364
    49  C   -0.174755
    50  C    0.061398
    51  C    0.104397
    52  C    0.034763
    53  C    0.021191
    54  C   -0.151083
    55  C    0.052326
    56  C    0.064797
    57  C    0.019129
    58  C    0.039098
    59  C   -0.124068
    60  C    0.044144
    61  C    0.014844
    62  C    0.016827
    63  C    0.075855
    64  C   -0.162099
    65  C    0.023362
    66  C    0.039631
    67  H   -0.027543
    68  H    0.000221
    69  H   -0.032612
    70  H    0.022325
    71  H    0.015102
    72  H    0.013030
    73  H    0.038694
    74  H    0.018016
    75  H    0.019971
    76  H    0.042016
    77  H    0.025814
    78  H    0.031382
    79  H    0.049906
    80  H    0.013187
    81  H    0.022194
    82  H    0.027650
    83  H    0.038751
    84  H    0.028837
    85  H    0.019571
    86  H    0.003597
    87  H    0.031739
    88  H    0.003959
    89  H    0.011900
    90  H   -0.001585
    91  H    0.009402
    92  H    0.015277
    93  H    0.012134
    94  H    0.018381
    95  H    0.037035
    96  H    0.032916
    97  H    0.035384
    98  H    0.045323
    99  H    0.047090
   100  H    0.038064
   101  H    0.031335
   102  H    0.065525
   103  H    0.025120
   104  H   -0.004248
   105  H    0.017716
   106  H    0.009464
   107  H    0.028250
   108  H    0.000549
   109  H    0.007583
   110  H    0.003844
   111  H   -0.011460
   112  H   -0.015881
   113  H    0.004722
   114  H    0.002734
   115  H   -0.009739
   116  H    0.002679
   117  H    0.024175
   118  H    0.008786
   119  H   -0.002166
   120  H   -0.009025
   121  H   -0.007070
   122  H   -0.009595
   123  H    0.000972
   124  H   -0.007440
   125  H   -0.004348
   126  H    0.008600
   127  H    0.000506
   128  H    0.000892
   129  H   -0.001555
   130  H   -0.008834
   131  H   -0.012666
   132  H   -0.009670
   133  H   -0.012634
   134  H   -0.003743
   135  H    0.021987
   136  H    0.006070
   137  H    0.008219
   138  H    0.024265
   139  H    0.006176
   140  H    0.002346
 Sum of Mulliken charges =  -0.00000

 Dipole moment (field-independent basis, Debye):
    X=             -2.8835    Y=              3.9988    Z=             -1.3036  Tot=              5.0994
 Quadrupole moment (field-independent basis, Debye-Ang):
   XX=           -390.5405   YY=           -411.5060   ZZ=           -409.5192
   XY=             17.3293   XZ=             30.0125   YZ=              5.8163

 Normal termination of Gaussian 16 at Wed May  4 02:30:19 2022.
