 Gaussian 16, Revision A.03,
 Gaussian 16:  ES64L-G16RevA.03 25-Dec-2016

 ---------------------------------
 #p PBE1PBE/Def2SVP td=(nstates=5)
 ---------------------------------

 ------------------------------------------------------
 step_1301_chromophore_16 TDDFT with PBE1PBE functional
 ------------------------------------------------------
 Symbolic Z-matrix:
 Charge =  0 Multiplicity = 1

                         Standard orientation:
 ---------------------------------------------------------------------
 Center     Atomic      Atomic             Coordinates (Angstroms)
 Number     Number       Type             X           Y           Z
 ---------------------------------------------------------------------
      1         12           0        6.314996    0.542438    0.092106
      2          6           0        4.021580   -2.127356    0.076195
      3          6           0        3.841141    2.660832   -1.076160
      4          6           0        8.658948    3.041512    0.001700
      5          6           0        8.723515   -1.563509    1.445255
      6          7           0        4.117507    0.191198   -0.649524
      7          6           0        3.374124   -0.931313   -0.430407
      8          6           0        1.920640   -0.654807   -0.764919
      9          6           0        1.962358    0.893284   -1.153365
     10          6           0        3.430052    1.270143   -0.956003
     11          6           0        1.360426    1.154519   -2.630193
     12          6           0        0.928948   -1.033529    0.378116
     13          6           0       -0.558197   -0.591267    0.247511
     14          6           0       -1.533262   -1.809462    0.415617
     15          8           0       -1.928810   -2.307976    1.484079
     16          8           0       -1.811128   -2.294690   -0.870060
     17          7           0        6.227619    2.599399   -0.566403
     18          6           0        5.100511    3.247257   -1.045436
     19          6           0        5.452983    4.691131   -1.267364
     20          6           0        6.841164    4.795100   -0.918876
     21          6           0        7.310570    3.454286   -0.478488
     22          6           0        4.518080    5.756781   -1.837408
     23          6           0        7.801265    5.981084   -1.013740
     24          8           0        8.997796    5.944854   -0.793347
     25          6           0        7.262777    7.396704   -1.263652
     26          7           0        8.441963    0.699508    0.582367
     27          6           0        9.123288    1.836026    0.439949
     28          6           0       10.504800    1.753842    1.062428
     29          6           0       10.421406    0.371103    1.760471
     30          6           0        9.188635   -0.226973    1.210918
     31          6           0       11.745064    1.903028    0.185986
     32          6           0       10.667580    0.402186    3.332291
     33          6           0        9.744151    1.191053    4.089987
     34          7           0        6.410845   -1.400166    0.602306
     35          6           0        7.480309   -2.145082    1.119335
     36          6           0        7.120606   -3.501830    1.324064
     37          6           0        5.735715   -3.496403    0.939902
     38          6           0        5.387185   -2.231931    0.464203
     39          6           0        8.024604   -4.692199    1.830745
     40          6           0        4.529194   -4.356700    1.061423
     41          8           0        4.362197   -5.481430    1.579679
     42          6           0        3.367566   -3.482437    0.420605
     43          6           0        2.813935   -4.246294   -0.734762
     44          8           0        3.464657   -4.493825   -1.760135
     45          8           0        1.560085   -4.762414   -0.523124
     46          6           0        0.997027   -5.769892   -1.425544
     47          6           0       -2.997256   -3.241755   -0.800705
     48          6           0       -4.239976   -2.591947   -1.442597
     49          6           0       -5.462393   -3.130051   -1.820327
     50          6           0       -5.670111   -4.637776   -1.729438
     51          6           0       -6.569769   -2.304780   -2.513988
     52          6           0       -7.547098   -1.765751   -1.572537
     53          6           0       -8.202719   -0.394288   -2.104105
     54          6           0       -9.766603   -0.326167   -2.213686
     55          6           0      -10.170905    0.320434   -3.549384
     56          6           0      -10.151197    0.668166   -1.065265
     57          6           0      -11.663788    0.420584   -0.757491
     58          6           0      -12.407180    1.731310   -0.910616
     59          6           0      -13.919791    1.550849   -0.585273
     60          6           0      -14.794112    2.688611   -1.311559
     61          6           0      -14.076407    1.800387    0.908784
     62          6           0      -15.360825    1.125294    1.516623
     63          6           0      -15.415055    1.211726    3.038002
     64          6           0      -16.510160    2.061329    3.611043
     65          6           0      -17.251762    1.418715    4.908782
     66          6           0      -16.042064    3.543142    3.957942
     67          1           0        3.027100    3.294362   -1.433156
     68          1           0        9.343545    3.884893    0.114440
     69          1           0        9.490299   -2.192489    1.900983
     70          1           0        1.658159   -1.291516   -1.609885
     71          1           0        1.336473    1.457403   -0.462175
     72          1           0        0.834990    2.107933   -2.686341
     73          1           0        0.767280    0.320756   -3.006505
     74          1           0        2.234107    1.359210   -3.249144
     75          1           0        1.330370   -0.835808    1.372115
     76          1           0        0.971445   -2.116878    0.272824
     77          1           0       -0.796764   -0.145712   -0.719138
     78          1           0       -0.606449    0.136517    1.056594
     79          1           0        4.708308    5.794351   -2.909848
     80          1           0        4.722499    6.715089   -1.360104
     81          1           0        3.470292    5.578712   -1.594029
     82          1           0        8.011847    8.182831   -1.165240
     83          1           0        6.444705    7.501300   -0.552201
     84          1           0        6.893794    7.527317   -2.280742
     85          1           0       10.558161    2.540015    1.815838
     86          1           0       11.203009   -0.335887    1.484778
     87          1           0       11.483115    2.183565   -0.834518
     88          1           0       12.236068    0.934126    0.280716
     89          1           0       12.438196    2.614960    0.635409
     90          1           0       11.611411    0.946615    3.351485
     91          1           0       10.680500   -0.571379    3.823125
     92          1           0        9.006723    0.497862    4.494737
     93          1           0        9.254921    1.845707    3.367847
     94          1           0       10.323857    1.752038    4.822433
     95          1           0        8.024564   -4.726168    2.920893
     96          1           0        8.982770   -4.609130    1.318870
     97          1           0        7.479879   -5.576992    1.501574
     98          1           0        2.608645   -3.350615    1.190329
     99          1           0        0.665864   -5.468561   -2.419587
    100          1           0        0.269693   -6.346215   -0.854147
    101          1           0        1.802123   -6.492800   -1.555928
    102          1           0       -3.317063   -3.718229    0.126041
    103          1           0       -2.660674   -4.040282   -1.462129
    104          1           0       -4.074090   -1.521097   -1.567012
    105          1           0       -4.708021   -5.076533   -1.996117
    106          1           0       -6.467491   -5.025346   -2.362411
    107          1           0       -5.938062   -4.994812   -0.735063
    108          1           0       -7.054133   -2.923426   -3.269872
    109          1           0       -6.067312   -1.481141   -3.021741
    110          1           0       -7.167406   -1.480528   -0.590875
    111          1           0       -8.412955   -2.408555   -1.406538
    112          1           0       -7.830982   -0.232666   -3.115691
    113          1           0       -7.824873    0.364304   -1.418153
    114          1           0      -10.158946   -1.336127   -2.097959
    115          1           0      -11.047183   -0.164976   -3.978790
    116          1           0       -9.412544    0.029896   -4.277028
    117          1           0      -10.496448    1.360613   -3.553607
    118          1           0      -10.070931    1.709884   -1.374228
    119          1           0       -9.495075    0.458275   -0.219891
    120          1           0      -11.800245   -0.043364    0.218942
    121          1           0      -12.085403   -0.326762   -1.430456
    122          1           0      -12.378242    2.081820   -1.941580
    123          1           0      -12.072160    2.436277   -0.148932
    124          1           0      -14.215276    0.580856   -0.984004
    125          1           0      -14.998695    3.543024   -0.666840
    126          1           0      -15.821043    2.416496   -1.555797
    127          1           0      -14.227708    3.023538   -2.180598
    128          1           0      -14.242841    2.857860    1.116036
    129          1           0      -13.157176    1.481256    1.399602
    130          1           0      -15.374755    0.089359    1.179579
    131          1           0      -16.272957    1.618695    1.179074
    132          1           0      -14.456844    1.591209    3.391686
    133          1           0      -15.444666    0.156968    3.310837
    134          1           0      -17.292977    2.155341    2.858353
    135          1           0      -17.721735    2.112297    5.605684
    136          1           0      -16.475220    0.827145    5.395027
    137          1           0      -17.928154    0.662108    4.511493
    138          1           0      -15.787111    3.553187    5.018374
    139          1           0      -16.878674    4.174572    3.660906
    140          1           0      -15.256404    3.876966    3.280629
 ---------------------------------------------------------------------

 SCF Done:  E(RPBE1PBE) =  -3005.33022134     A.U. after   15 cycles

 Excitation energies and oscillator strengths:

 Excited State   1:      Singlet-A      1.8556 eV  668.15 nm  f=0.3408  <S**2>=0.000
     245 -> 248        0.18349
     246 -> 247        0.68903
     246 <- 247       -0.10364
 This state for optimization and/or second-order correction.
 Total Energy, E(TD-HF/TD-DFT) =  -3005.26202807
 Copying the excited state density for this state as the 1-particle RhoCI density.

 Excited State   2:      Singlet-A      2.2334 eV  555.15 nm  f=0.1012  <S**2>=0.000
     245 -> 247        0.64243
     246 -> 248       -0.28357

 Excited State   3:      Singlet-A      3.0439 eV  407.32 nm  f=0.0004  <S**2>=0.000
     240 -> 247       -0.16074
     241 -> 247        0.46947
     241 -> 249        0.11352
     242 -> 247       -0.15542
     243 -> 247        0.42818

 Excited State   4:      Singlet-A      3.0539 eV  405.99 nm  f=0.0004  <S**2>=0.000
     240 -> 247        0.12447
     242 -> 247        0.62691
     242 -> 249       -0.13101
     243 -> 247        0.19256

 Excited State   5:      Singlet-A      3.1390 eV  394.97 nm  f=0.0022  <S**2>=0.000
     241 -> 247       -0.47491
     243 -> 247        0.50347

 The electronic state is 1-A.
 Alpha  occ. eigenvalues --  -46.93178 -19.26918 -19.25498 -19.20959 -19.19509
 Alpha  occ. eigenvalues --  -19.19352 -19.19155 -14.41926 -14.41078 -14.39923
 Alpha  occ. eigenvalues --  -14.39056 -10.37484 -10.36235 -10.32755 -10.32634
 Alpha  occ. eigenvalues --  -10.30194 -10.29524 -10.29289 -10.29193 -10.28958
 Alpha  occ. eigenvalues --  -10.28471 -10.28330 -10.27760 -10.27655 -10.27426
 Alpha  occ. eigenvalues --  -10.26959 -10.26681 -10.26385 -10.26372 -10.26250
 Alpha  occ. eigenvalues --  -10.25872 -10.25850 -10.25792 -10.25572 -10.25472
 Alpha  occ. eigenvalues --  -10.25238 -10.25208 -10.25018 -10.24929 -10.24539
 Alpha  occ. eigenvalues --  -10.24205 -10.24099 -10.24073 -10.23938 -10.23671
 Alpha  occ. eigenvalues --  -10.23655 -10.23561 -10.23431 -10.23395 -10.23296
 Alpha  occ. eigenvalues --  -10.23259 -10.23119 -10.23093 -10.22621 -10.22425
 Alpha  occ. eigenvalues --  -10.22192 -10.22178 -10.22140 -10.22124 -10.22097
 Alpha  occ. eigenvalues --  -10.22042 -10.22015 -10.21974 -10.21865 -10.21789
 Alpha  occ. eigenvalues --  -10.21449  -3.15092  -1.87950  -1.87458  -1.87311
 Alpha  occ. eigenvalues --   -1.10095  -1.09929  -1.05378  -1.03010  -1.02071
 Alpha  occ. eigenvalues --   -1.01144  -0.99756  -0.99389  -0.98335  -0.96518
 Alpha  occ. eigenvalues --   -0.86345  -0.84589  -0.84267  -0.83933  -0.83545
 Alpha  occ. eigenvalues --   -0.82640  -0.82606  -0.81438  -0.81281  -0.81058
 Alpha  occ. eigenvalues --   -0.80307  -0.79269  -0.78930  -0.78244  -0.77385
 Alpha  occ. eigenvalues --   -0.76625  -0.76247  -0.75073  -0.74817  -0.74390
 Alpha  occ. eigenvalues --   -0.73814  -0.72554  -0.72083  -0.72003  -0.70771
 Alpha  occ. eigenvalues --   -0.69866  -0.69747  -0.69016  -0.68627  -0.68127
 Alpha  occ. eigenvalues --   -0.67394  -0.66942  -0.66341  -0.65041  -0.63734
 Alpha  occ. eigenvalues --   -0.62907  -0.62408  -0.61419  -0.60652  -0.60018
 Alpha  occ. eigenvalues --   -0.59538  -0.59453  -0.59010  -0.58920  -0.58317
 Alpha  occ. eigenvalues --   -0.57585  -0.57216  -0.56660  -0.56604  -0.54454
 Alpha  occ. eigenvalues --   -0.54445  -0.54199  -0.53940  -0.53320  -0.52700
 Alpha  occ. eigenvalues --   -0.52067  -0.51450  -0.50441  -0.50030  -0.49933
 Alpha  occ. eigenvalues --   -0.49532  -0.49426  -0.49272  -0.48798  -0.48543
 Alpha  occ. eigenvalues --   -0.48434  -0.48359  -0.48069  -0.47402  -0.47314
 Alpha  occ. eigenvalues --   -0.47153  -0.46935  -0.46675  -0.46496  -0.46266
 Alpha  occ. eigenvalues --   -0.45969  -0.45695  -0.45570  -0.45402  -0.45276
 Alpha  occ. eigenvalues --   -0.44995  -0.44744  -0.44572  -0.44520  -0.44342
 Alpha  occ. eigenvalues --   -0.44134  -0.43879  -0.43626  -0.43598  -0.43524
 Alpha  occ. eigenvalues --   -0.43380  -0.43012  -0.42790  -0.42628  -0.42558
 Alpha  occ. eigenvalues --   -0.42292  -0.42234  -0.41819  -0.41507  -0.41355
 Alpha  occ. eigenvalues --   -0.41315  -0.41035  -0.40558  -0.40445  -0.40407
 Alpha  occ. eigenvalues --   -0.40340  -0.39981  -0.39742  -0.39565  -0.39519
 Alpha  occ. eigenvalues --   -0.39392  -0.39238  -0.39003  -0.38945  -0.38864
 Alpha  occ. eigenvalues --   -0.38539  -0.38403  -0.38222  -0.38111  -0.37931
 Alpha  occ. eigenvalues --   -0.37771  -0.37330  -0.37249  -0.37049  -0.36954
 Alpha  occ. eigenvalues --   -0.36760  -0.36290  -0.36244  -0.36156  -0.36098
 Alpha  occ. eigenvalues --   -0.35876  -0.35676  -0.35521  -0.35316  -0.35206
 Alpha  occ. eigenvalues --   -0.34755  -0.34598  -0.34213  -0.33812  -0.33783
 Alpha  occ. eigenvalues --   -0.33711  -0.33032  -0.32829  -0.32539  -0.32242
 Alpha  occ. eigenvalues --   -0.32124  -0.31919  -0.31705  -0.31291  -0.31247
 Alpha  occ. eigenvalues --   -0.31141  -0.31014  -0.29827  -0.29281  -0.29176
 Alpha  occ. eigenvalues --   -0.28941  -0.28215  -0.28001  -0.26768  -0.25948
 Alpha  occ. eigenvalues --   -0.25737  -0.25606  -0.25469  -0.24661  -0.21038
 Alpha  occ. eigenvalues --   -0.18792
 Alpha virt. eigenvalues --   -0.11168  -0.05572  -0.04192  -0.02232  -0.00857
 Alpha virt. eigenvalues --    0.00114   0.00449   0.00673   0.01414   0.02462
 Alpha virt. eigenvalues --    0.03611   0.04212   0.05321   0.05579   0.05885

 Mulliken charges:
               1
     1  Mg   0.957996
     2  C   -0.027922
     3  C   -0.050061
     4  C   -0.051623
     5  C   -0.095662
     6  N   -0.328474
     7  C    0.027468
     8  C   -0.054140
     9  C   -0.162202
    10  C    0.064981
    11  C   -0.016487
    12  C   -0.085522
    13  C    0.037259
    14  C    0.237707
    15  O   -0.267755
    16  O   -0.388003
    17  N   -0.486827
    18  C    0.171921
    19  C   -0.175379
    20  C   -0.102565
    21  C    0.133300
    22  C    0.057714
    23  C    0.068384
    24  O   -0.231346
    25  C   -0.046245
    26  N   -0.363757
    27  C    0.116586
    28  C   -0.174792
    29  C   -0.110276
    30  C    0.073239
    31  C    0.056509
    32  C   -0.041081
    33  C   -0.044109
    34  N   -0.514169
    35  C    0.161531
    36  C   -0.178563
    37  C   -0.097209
    38  C    0.201091
    39  C    0.076291
    40  C    0.169210
    41  O   -0.239368
    42  C   -0.137672
    43  C    0.304312
    44  O   -0.274032
    45  O   -0.371960
    46  C    0.132739
    47  C    0.217234
    48  C   -0.140311
    49  C   -0.221917
    50  C    0.001086
    51  C    0.034022
    52  C   -0.023238
    53  C   -0.029401
    54  C   -0.242670
    55  C   -0.001591
    56  C    0.006964
    57  C   -0.033163
    58  C   -0.026175
    59  C   -0.209764
    60  C   -0.010049
    61  C   -0.046426
    62  C   -0.040603
    63  C    0.020870
    64  C   -0.250747
    65  C   -0.041508
    66  C   -0.024968
    67  H    0.004032
    68  H    0.031879
    69  H    0.000297
    70  H    0.059853
    71  H    0.052544
    72  H    0.040029
    73  H    0.063602
    74  H    0.046885
    75  H    0.051271
    76  H    0.082737
    77  H    0.058960
    78  H    0.064030
    79  H    0.076749
    80  H    0.039678
    81  H    0.047810
    82  H    0.054732
    83  H    0.065030
    84  H    0.055626
    85  H    0.055668
    86  H    0.041726
    87  H    0.059062
    88  H    0.031673
    89  H    0.039556
    90  H    0.033725
    91  H    0.040628
    92  H    0.043729
    93  H    0.043788
    94  H    0.046665
    95  H    0.065304
    96  H    0.059428
    97  H    0.064460
    98  H    0.080959
    99  H    0.067922
   100  H    0.059440
   101  H    0.052870
   102  H    0.091554
   103  H    0.052307
   104  H    0.026353
   105  H    0.044789
   106  H    0.036036
   107  H    0.055567
   108  H    0.033132
   109  H    0.039792
   110  H    0.036711
   111  H    0.021735
   112  H    0.015873
   113  H    0.036934
   114  H    0.038146
   115  H    0.018692
   116  H    0.030341
   117  H    0.049445
   118  H    0.041347
   119  H    0.032082
   120  H    0.023497
   121  H    0.025242
   122  H    0.024598
   123  H    0.035112
   124  H    0.028402
   125  H    0.022161
   126  H    0.035837
   127  H    0.027361
   128  H    0.036456
   129  H    0.030873
   130  H    0.023942
   131  H    0.020083
   132  H    0.023659
   133  H    0.020165
   134  H    0.033885
   135  H    0.048457
   136  H    0.034521
   137  H    0.036874
   138  H    0.051313
   139  H    0.034417
   140  H    0.031282
 Sum of Mulliken charges =  -0.00000

 Dipole moment (field-independent basis, Debye):
    X=             -2.6733    Y=              3.6352    Z=             -1.0909  Tot=              4.6423
 Quadrupole moment (field-independent basis, Debye-Ang):
   XX=           -382.8205   YY=           -409.5497   ZZ=           -406.7958
   XY=             15.0174   XZ=             32.6254   YZ=              5.7091

 Normal termination of Gaussian 16 at Wed May  4 02:49:17 2022.
