 Gaussian 16, Revision A.03,
 Gaussian 16:  ES64L-G16RevA.03 25-Dec-2016

 --------------------------------
 #p wB97XD/Def2SVP td=(nstates=5)
 --------------------------------

 -----------------------------------------------------
 step_1301_chromophore_16 TDDFT with wB97XD functional
 -----------------------------------------------------
 Symbolic Z-matrix:
 Charge =  0 Multiplicity = 1

                         Standard orientation:
 ---------------------------------------------------------------------
 Center     Atomic      Atomic             Coordinates (Angstroms)
 Number     Number       Type             X           Y           Z
 ---------------------------------------------------------------------
      1         12           0        6.314996    0.542438    0.092106
      2          6           0        4.021580   -2.127356    0.076195
      3          6           0        3.841141    2.660832   -1.076160
      4          6           0        8.658948    3.041512    0.001700
      5          6           0        8.723515   -1.563509    1.445255
      6          7           0        4.117507    0.191198   -0.649524
      7          6           0        3.374124   -0.931313   -0.430407
      8          6           0        1.920640   -0.654807   -0.764919
      9          6           0        1.962358    0.893284   -1.153365
     10          6           0        3.430052    1.270143   -0.956003
     11          6           0        1.360426    1.154519   -2.630193
     12          6           0        0.928948   -1.033529    0.378116
     13          6           0       -0.558197   -0.591267    0.247511
     14          6           0       -1.533262   -1.809462    0.415617
     15          8           0       -1.928810   -2.307976    1.484079
     16          8           0       -1.811128   -2.294690   -0.870060
     17          7           0        6.227619    2.599399   -0.566403
     18          6           0        5.100511    3.247257   -1.045436
     19          6           0        5.452983    4.691131   -1.267364
     20          6           0        6.841164    4.795100   -0.918876
     21          6           0        7.310570    3.454286   -0.478488
     22          6           0        4.518080    5.756781   -1.837408
     23          6           0        7.801265    5.981084   -1.013740
     24          8           0        8.997796    5.944854   -0.793347
     25          6           0        7.262777    7.396704   -1.263652
     26          7           0        8.441963    0.699508    0.582367
     27          6           0        9.123288    1.836026    0.439949
     28          6           0       10.504800    1.753842    1.062428
     29          6           0       10.421406    0.371103    1.760471
     30          6           0        9.188635   -0.226973    1.210918
     31          6           0       11.745064    1.903028    0.185986
     32          6           0       10.667580    0.402186    3.332291
     33          6           0        9.744151    1.191053    4.089987
     34          7           0        6.410845   -1.400166    0.602306
     35          6           0        7.480309   -2.145082    1.119335
     36          6           0        7.120606   -3.501830    1.324064
     37          6           0        5.735715   -3.496403    0.939902
     38          6           0        5.387185   -2.231931    0.464203
     39          6           0        8.024604   -4.692199    1.830745
     40          6           0        4.529194   -4.356700    1.061423
     41          8           0        4.362197   -5.481430    1.579679
     42          6           0        3.367566   -3.482437    0.420605
     43          6           0        2.813935   -4.246294   -0.734762
     44          8           0        3.464657   -4.493825   -1.760135
     45          8           0        1.560085   -4.762414   -0.523124
     46          6           0        0.997027   -5.769892   -1.425544
     47          6           0       -2.997256   -3.241755   -0.800705
     48          6           0       -4.239976   -2.591947   -1.442597
     49          6           0       -5.462393   -3.130051   -1.820327
     50          6           0       -5.670111   -4.637776   -1.729438
     51          6           0       -6.569769   -2.304780   -2.513988
     52          6           0       -7.547098   -1.765751   -1.572537
     53          6           0       -8.202719   -0.394288   -2.104105
     54          6           0       -9.766603   -0.326167   -2.213686
     55          6           0      -10.170905    0.320434   -3.549384
     56          6           0      -10.151197    0.668166   -1.065265
     57          6           0      -11.663788    0.420584   -0.757491
     58          6           0      -12.407180    1.731310   -0.910616
     59          6           0      -13.919791    1.550849   -0.585273
     60          6           0      -14.794112    2.688611   -1.311559
     61          6           0      -14.076407    1.800387    0.908784
     62          6           0      -15.360825    1.125294    1.516623
     63          6           0      -15.415055    1.211726    3.038002
     64          6           0      -16.510160    2.061329    3.611043
     65          6           0      -17.251762    1.418715    4.908782
     66          6           0      -16.042064    3.543142    3.957942
     67          1           0        3.027100    3.294362   -1.433156
     68          1           0        9.343545    3.884893    0.114440
     69          1           0        9.490299   -2.192489    1.900983
     70          1           0        1.658159   -1.291516   -1.609885
     71          1           0        1.336473    1.457403   -0.462175
     72          1           0        0.834990    2.107933   -2.686341
     73          1           0        0.767280    0.320756   -3.006505
     74          1           0        2.234107    1.359210   -3.249144
     75          1           0        1.330370   -0.835808    1.372115
     76          1           0        0.971445   -2.116878    0.272824
     77          1           0       -0.796764   -0.145712   -0.719138
     78          1           0       -0.606449    0.136517    1.056594
     79          1           0        4.708308    5.794351   -2.909848
     80          1           0        4.722499    6.715089   -1.360104
     81          1           0        3.470292    5.578712   -1.594029
     82          1           0        8.011847    8.182831   -1.165240
     83          1           0        6.444705    7.501300   -0.552201
     84          1           0        6.893794    7.527317   -2.280742
     85          1           0       10.558161    2.540015    1.815838
     86          1           0       11.203009   -0.335887    1.484778
     87          1           0       11.483115    2.183565   -0.834518
     88          1           0       12.236068    0.934126    0.280716
     89          1           0       12.438196    2.614960    0.635409
     90          1           0       11.611411    0.946615    3.351485
     91          1           0       10.680500   -0.571379    3.823125
     92          1           0        9.006723    0.497862    4.494737
     93          1           0        9.254921    1.845707    3.367847
     94          1           0       10.323857    1.752038    4.822433
     95          1           0        8.024564   -4.726168    2.920893
     96          1           0        8.982770   -4.609130    1.318870
     97          1           0        7.479879   -5.576992    1.501574
     98          1           0        2.608645   -3.350615    1.190329
     99          1           0        0.665864   -5.468561   -2.419587
    100          1           0        0.269693   -6.346215   -0.854147
    101          1           0        1.802123   -6.492800   -1.555928
    102          1           0       -3.317063   -3.718229    0.126041
    103          1           0       -2.660674   -4.040282   -1.462129
    104          1           0       -4.074090   -1.521097   -1.567012
    105          1           0       -4.708021   -5.076533   -1.996117
    106          1           0       -6.467491   -5.025346   -2.362411
    107          1           0       -5.938062   -4.994812   -0.735063
    108          1           0       -7.054133   -2.923426   -3.269872
    109          1           0       -6.067312   -1.481141   -3.021741
    110          1           0       -7.167406   -1.480528   -0.590875
    111          1           0       -8.412955   -2.408555   -1.406538
    112          1           0       -7.830982   -0.232666   -3.115691
    113          1           0       -7.824873    0.364304   -1.418153
    114          1           0      -10.158946   -1.336127   -2.097959
    115          1           0      -11.047183   -0.164976   -3.978790
    116          1           0       -9.412544    0.029896   -4.277028
    117          1           0      -10.496448    1.360613   -3.553607
    118          1           0      -10.070931    1.709884   -1.374228
    119          1           0       -9.495075    0.458275   -0.219891
    120          1           0      -11.800245   -0.043364    0.218942
    121          1           0      -12.085403   -0.326762   -1.430456
    122          1           0      -12.378242    2.081820   -1.941580
    123          1           0      -12.072160    2.436277   -0.148932
    124          1           0      -14.215276    0.580856   -0.984004
    125          1           0      -14.998695    3.543024   -0.666840
    126          1           0      -15.821043    2.416496   -1.555797
    127          1           0      -14.227708    3.023538   -2.180598
    128          1           0      -14.242841    2.857860    1.116036
    129          1           0      -13.157176    1.481256    1.399602
    130          1           0      -15.374755    0.089359    1.179579
    131          1           0      -16.272957    1.618695    1.179074
    132          1           0      -14.456844    1.591209    3.391686
    133          1           0      -15.444666    0.156968    3.310837
    134          1           0      -17.292977    2.155341    2.858353
    135          1           0      -17.721735    2.112297    5.605684
    136          1           0      -16.475220    0.827145    5.395027
    137          1           0      -17.928154    0.662108    4.511493
    138          1           0      -15.787111    3.553187    5.018374
    139          1           0      -16.878674    4.174572    3.660906
    140          1           0      -15.256404    3.876966    3.280629
 ---------------------------------------------------------------------

 SCF Done:  E(RwB97XD) =  -3007.83748173     A.U. after   19 cycles

 Excitation energies and oscillator strengths:

 Excited State   1:      Singlet-A      1.6549 eV  749.21 nm  f=0.3567  <S**2>=0.000
     245 -> 248       -0.19463
     246 -> 247        0.67934
     245 <- 248       -0.11984
 This state for optimization and/or second-order correction.
 Total Energy, E(TD-HF/TD-DFT) =  -3007.77666688
 Copying the excited state density for this state as the 1-particle RhoCI density.

 Excited State   2:      Singlet-A      2.1728 eV  570.61 nm  f=0.0911  <S**2>=0.000
     245 -> 247        0.62436
     246 -> 248        0.31593

 Excited State   3:      Singlet-A      3.4622 eV  358.11 nm  f=0.5213  <S**2>=0.000
     239 -> 247       -0.18048
     242 -> 247       -0.30060
     243 -> 247        0.19807
     245 -> 247       -0.23693
     246 -> 248        0.51400

 Excited State   4:      Singlet-A      3.5052 eV  353.72 nm  f=0.1628  <S**2>=0.000
     242 -> 247       -0.10795
     243 -> 247        0.59459
     245 -> 247        0.12769
     246 -> 248       -0.27676

 Excited State   5:      Singlet-A      3.5793 eV  346.39 nm  f=0.0313  <S**2>=0.000
     241 -> 247        0.46436
     241 -> 248       -0.12426
     241 -> 249       -0.30393
     241 -> 250       -0.22431
     242 -> 247        0.27002

 The electronic state is 1-A.
 Alpha  occ. eigenvalues --  -46.96096 -19.31440 -19.30076 -19.25622 -19.24313
 Alpha  occ. eigenvalues --  -19.24204 -19.23876 -14.47131 -14.46012 -14.44943
 Alpha  occ. eigenvalues --  -14.43885 -10.44253 -10.43074 -10.39613 -10.39518
 Alpha  occ. eigenvalues --  -10.36661 -10.35777 -10.35749 -10.35699 -10.35462
 Alpha  occ. eigenvalues --  -10.35070 -10.34448 -10.34432 -10.34168 -10.33515
 Alpha  occ. eigenvalues --  -10.33349 -10.32820 -10.32766 -10.32629 -10.32548
 Alpha  occ. eigenvalues --  -10.32465 -10.32299 -10.32206 -10.31954 -10.31924
 Alpha  occ. eigenvalues --  -10.31818 -10.31559 -10.31190 -10.30996 -10.30703
 Alpha  occ. eigenvalues --  -10.30651 -10.30467 -10.30378 -10.30253 -10.29972
 Alpha  occ. eigenvalues --  -10.29915 -10.29860 -10.29851 -10.29841 -10.29838
 Alpha  occ. eigenvalues --  -10.29431 -10.29417 -10.29399 -10.28997 -10.28774
 Alpha  occ. eigenvalues --  -10.28562 -10.28554 -10.28516 -10.28493 -10.28480
 Alpha  occ. eigenvalues --  -10.28471 -10.28447 -10.28357 -10.28211 -10.28186
 Alpha  occ. eigenvalues --  -10.27825  -3.21893  -1.95498  -1.95004  -1.94851
 Alpha  occ. eigenvalues --   -1.17502  -1.17308  -1.13001  -1.10407  -1.09413
 Alpha  occ. eigenvalues --   -1.08528  -1.07058  -1.06777  -1.05540  -1.04071
 Alpha  occ. eigenvalues --   -0.93928  -0.92267  -0.91736  -0.91614  -0.91197
 Alpha  occ. eigenvalues --   -0.90315  -0.90213  -0.89084  -0.88955  -0.88949
 Alpha  occ. eigenvalues --   -0.87774  -0.86933  -0.86463  -0.85889  -0.84996
 Alpha  occ. eigenvalues --   -0.84288  -0.83930  -0.82820  -0.82501  -0.82058
 Alpha  occ. eigenvalues --   -0.81487  -0.80363  -0.79684  -0.79576  -0.78340
 Alpha  occ. eigenvalues --   -0.77555  -0.77320  -0.76736  -0.76319  -0.75798
 Alpha  occ. eigenvalues --   -0.74923  -0.74550  -0.73883  -0.72661  -0.71246
 Alpha  occ. eigenvalues --   -0.70404  -0.70031  -0.69050  -0.68281  -0.67556
 Alpha  occ. eigenvalues --   -0.67150  -0.66893  -0.66470  -0.66329  -0.66014
 Alpha  occ. eigenvalues --   -0.65054  -0.64896  -0.64310  -0.63947  -0.61988
 Alpha  occ. eigenvalues --   -0.61978  -0.61607  -0.61306  -0.60662  -0.60141
 Alpha  occ. eigenvalues --   -0.59535  -0.58925  -0.57875  -0.57429  -0.57288
 Alpha  occ. eigenvalues --   -0.56961  -0.56854  -0.56735  -0.56183  -0.55914
 Alpha  occ. eigenvalues --   -0.55809  -0.55689  -0.55470  -0.54885  -0.54855
 Alpha  occ. eigenvalues --   -0.54582  -0.54401  -0.54087  -0.53708  -0.53649
 Alpha  occ. eigenvalues --   -0.53355  -0.52970  -0.52946  -0.52738  -0.52635
 Alpha  occ. eigenvalues --   -0.52541  -0.52112  -0.51892  -0.51792  -0.51655
 Alpha  occ. eigenvalues --   -0.51513  -0.51114  -0.50981  -0.50869  -0.50818
 Alpha  occ. eigenvalues --   -0.50716  -0.50513  -0.50101  -0.49888  -0.49867
 Alpha  occ. eigenvalues --   -0.49549  -0.49495  -0.49143  -0.48743  -0.48591
 Alpha  occ. eigenvalues --   -0.48539  -0.48194  -0.47679  -0.47594  -0.47567
 Alpha  occ. eigenvalues --   -0.47499  -0.47154  -0.46951  -0.46741  -0.46687
 Alpha  occ. eigenvalues --   -0.46635  -0.46348  -0.46200  -0.46076  -0.46053
 Alpha  occ. eigenvalues --   -0.45689  -0.45530  -0.45486  -0.45037  -0.44981
 Alpha  occ. eigenvalues --   -0.44939  -0.44499  -0.44370  -0.44227  -0.44086
 Alpha  occ. eigenvalues --   -0.43797  -0.43395  -0.43337  -0.43280  -0.43190
 Alpha  occ. eigenvalues --   -0.42939  -0.42788  -0.42600  -0.42388  -0.42144
 Alpha  occ. eigenvalues --   -0.41853  -0.41532  -0.41289  -0.40888  -0.40739
 Alpha  occ. eigenvalues --   -0.40627  -0.40081  -0.39756  -0.39601  -0.39288
 Alpha  occ. eigenvalues --   -0.39171  -0.38862  -0.38712  -0.38281  -0.38254
 Alpha  occ. eigenvalues --   -0.38077  -0.38033  -0.36667  -0.36183  -0.36013
 Alpha  occ. eigenvalues --   -0.35815  -0.35356  -0.34805  -0.33427  -0.32937
 Alpha  occ. eigenvalues --   -0.32723  -0.32449  -0.31910  -0.31420  -0.25991
 Alpha  occ. eigenvalues --   -0.22918
 Alpha virt. eigenvalues --   -0.07040  -0.00243   0.02090   0.04270   0.05991
 Alpha virt. eigenvalues --    0.06026   0.07209   0.07372   0.08137   0.08730
 Alpha virt. eigenvalues --    0.10207   0.11046   0.12071   0.12423   0.12736

 Mulliken charges:
               1
     1  Mg   0.950657
     2  C   -0.032111
     3  C   -0.063918
     4  C   -0.073130
     5  C   -0.116222
     6  N   -0.288639
     7  C   -0.010805
     8  C   -0.029514
     9  C   -0.139271
    10  C    0.047636
    11  C   -0.004793
    12  C   -0.066293
    13  C    0.051827
    14  C    0.230884
    15  O   -0.266272
    16  O   -0.389528
    17  N   -0.458175
    18  C    0.165088
    19  C   -0.165600
    20  C   -0.092991
    21  C    0.122382
    22  C    0.070636
    23  C    0.063613
    24  O   -0.224591
    25  C   -0.032855
    26  N   -0.329380
    27  C    0.107960
    28  C   -0.150639
    29  C   -0.078587
    30  C    0.051634
    31  C    0.065974
    32  C   -0.023961
    33  C   -0.027017
    34  N   -0.476270
    35  C    0.161303
    36  C   -0.186087
    37  C   -0.092783
    38  C    0.184608
    39  C    0.091374
    40  C    0.153114
    41  O   -0.230576
    42  C   -0.099243
    43  C    0.278395
    44  O   -0.268158
    45  O   -0.369495
    46  C    0.147095
    47  C    0.234163
    48  C   -0.153286
    49  C   -0.206943
    50  C    0.014354
    51  C    0.055162
    52  C   -0.010529
    53  C   -0.011767
    54  C   -0.211061
    55  C    0.006966
    56  C    0.024693
    57  C   -0.022738
    58  C    0.001134
    59  C   -0.185118
    60  C    0.000968
    61  C   -0.021376
    62  C   -0.024324
    63  C    0.031699
    64  C   -0.222781
    65  C   -0.026928
    66  C   -0.010713
    67  H   -0.002588
    68  H    0.026885
    69  H   -0.005802
    70  H    0.049591
    71  H    0.041677
    72  H    0.034681
    73  H    0.059559
    74  H    0.039675
    75  H    0.045355
    76  H    0.062842
    77  H    0.051722
    78  H    0.059328
    79  H    0.073469
    80  H    0.034415
    81  H    0.044866
    82  H    0.054408
    83  H    0.057873
    84  H    0.050937
    85  H    0.044185
    86  H    0.029623
    87  H    0.054014
    88  H    0.025092
    89  H    0.034585
    90  H    0.022993
    91  H    0.034308
    92  H    0.038117
    93  H    0.030520
    94  H    0.041904
    95  H    0.060147
    96  H    0.053708
    97  H    0.059230
    98  H    0.075735
    99  H    0.064841
   100  H    0.056341
   101  H    0.048408
   102  H    0.087668
   103  H    0.047127
   104  H    0.021886
   105  H    0.037368
   106  H    0.031542
   107  H    0.050332
   108  H    0.026545
   109  H    0.031093
   110  H    0.028699
   111  H    0.012658
   112  H    0.003046
   113  H    0.027786
   114  H    0.026888
   115  H    0.012722
   116  H    0.024061
   117  H    0.043412
   118  H    0.030152
   119  H    0.022747
   120  H    0.016071
   121  H    0.014084
   122  H    0.011362
   123  H    0.023769
   124  H    0.018115
   125  H    0.015493
   126  H    0.030678
   127  H    0.021477
   128  H    0.020487
   129  H    0.018711
   130  H    0.016066
   131  H    0.009082
   132  H    0.013408
   133  H    0.013322
   134  H    0.021347
   135  H    0.044114
   136  H    0.026696
   137  H    0.030636
   138  H    0.045505
   139  H    0.028713
   140  H    0.023634
 Sum of Mulliken charges =  -0.00000

 Dipole moment (field-independent basis, Debye):
    X=             -2.9476    Y=              4.1612    Z=             -1.3239  Tot=              5.2684
 Quadrupole moment (field-independent basis, Debye-Ang):
   XX=           -385.6465   YY=           -406.8368   ZZ=           -406.5386
   XY=             18.3372   XZ=             30.7906   YZ=              5.3468

 Normal termination of Gaussian 16 at Wed May  4 03:18:21 2022.
