 Gaussian 16, Revision A.03,
 Gaussian 16:  ES64L-G16RevA.03 25-Dec-2016

 --------------------
 #p ZINDO=(nstates=5)
 --------------------

 ------------------------------
 step_1301_chromophore_16 ZINDO
 ------------------------------
 Symbolic Z-matrix:
 Charge =  0 Multiplicity = 1

                         Standard orientation:
 ---------------------------------------------------------------------
 Center     Atomic      Atomic             Coordinates (Angstroms)
 Number     Number       Type             X           Y           Z
 ---------------------------------------------------------------------
      1         12           0        6.314996    0.542438    0.092106
      2          6           0        4.021580   -2.127356    0.076195
      3          6           0        3.841141    2.660832   -1.076160
      4          6           0        8.658948    3.041512    0.001700
      5          6           0        8.723515   -1.563509    1.445255
      6          7           0        4.117507    0.191198   -0.649524
      7          6           0        3.374124   -0.931313   -0.430407
      8          6           0        1.920640   -0.654807   -0.764919
      9          6           0        1.962358    0.893284   -1.153365
     10          6           0        3.430052    1.270143   -0.956003
     11          6           0        1.360426    1.154519   -2.630193
     12          6           0        0.928948   -1.033529    0.378116
     13          6           0       -0.558197   -0.591267    0.247511
     14          6           0       -1.533262   -1.809462    0.415617
     15          8           0       -1.928810   -2.307976    1.484079
     16          8           0       -1.811128   -2.294690   -0.870060
     17          7           0        6.227619    2.599399   -0.566403
     18          6           0        5.100511    3.247257   -1.045436
     19          6           0        5.452983    4.691131   -1.267364
     20          6           0        6.841164    4.795100   -0.918876
     21          6           0        7.310570    3.454286   -0.478488
     22          6           0        4.518080    5.756781   -1.837408
     23          6           0        7.801265    5.981084   -1.013740
     24          8           0        8.997796    5.944854   -0.793347
     25          6           0        7.262777    7.396704   -1.263652
     26          7           0        8.441963    0.699508    0.582367
     27          6           0        9.123288    1.836026    0.439949
     28          6           0       10.504800    1.753842    1.062428
     29          6           0       10.421406    0.371103    1.760471
     30          6           0        9.188635   -0.226973    1.210918
     31          6           0       11.745064    1.903028    0.185986
     32          6           0       10.667580    0.402186    3.332291
     33          6           0        9.744151    1.191053    4.089987
     34          7           0        6.410845   -1.400166    0.602306
     35          6           0        7.480309   -2.145082    1.119335
     36          6           0        7.120606   -3.501830    1.324064
     37          6           0        5.735715   -3.496403    0.939902
     38          6           0        5.387185   -2.231931    0.464203
     39          6           0        8.024604   -4.692199    1.830745
     40          6           0        4.529194   -4.356700    1.061423
     41          8           0        4.362197   -5.481430    1.579679
     42          6           0        3.367566   -3.482437    0.420605
     43          6           0        2.813935   -4.246294   -0.734762
     44          8           0        3.464657   -4.493825   -1.760135
     45          8           0        1.560085   -4.762414   -0.523124
     46          6           0        0.997027   -5.769892   -1.425544
     47          6           0       -2.997256   -3.241755   -0.800705
     48          6           0       -4.239976   -2.591947   -1.442597
     49          6           0       -5.462393   -3.130051   -1.820327
     50          6           0       -5.670111   -4.637776   -1.729438
     51          6           0       -6.569769   -2.304780   -2.513988
     52          6           0       -7.547098   -1.765751   -1.572537
     53          6           0       -8.202719   -0.394288   -2.104105
     54          6           0       -9.766603   -0.326167   -2.213686
     55          6           0      -10.170905    0.320434   -3.549384
     56          6           0      -10.151197    0.668166   -1.065265
     57          6           0      -11.663788    0.420584   -0.757491
     58          6           0      -12.407180    1.731310   -0.910616
     59          6           0      -13.919791    1.550849   -0.585273
     60          6           0      -14.794112    2.688611   -1.311559
     61          6           0      -14.076407    1.800387    0.908784
     62          6           0      -15.360825    1.125294    1.516623
     63          6           0      -15.415055    1.211726    3.038002
     64          6           0      -16.510160    2.061329    3.611043
     65          6           0      -17.251762    1.418715    4.908782
     66          6           0      -16.042064    3.543142    3.957942
     67          1           0        3.027100    3.294362   -1.433156
     68          1           0        9.343545    3.884893    0.114440
     69          1           0        9.490299   -2.192489    1.900983
     70          1           0        1.658159   -1.291516   -1.609885
     71          1           0        1.336473    1.457403   -0.462175
     72          1           0        0.834990    2.107933   -2.686341
     73          1           0        0.767280    0.320756   -3.006505
     74          1           0        2.234107    1.359210   -3.249144
     75          1           0        1.330370   -0.835808    1.372115
     76          1           0        0.971445   -2.116878    0.272824
     77          1           0       -0.796764   -0.145712   -0.719138
     78          1           0       -0.606449    0.136517    1.056594
     79          1           0        4.708308    5.794351   -2.909848
     80          1           0        4.722499    6.715089   -1.360104
     81          1           0        3.470292    5.578712   -1.594029
     82          1           0        8.011847    8.182831   -1.165240
     83          1           0        6.444705    7.501300   -0.552201
     84          1           0        6.893794    7.527317   -2.280742
     85          1           0       10.558161    2.540015    1.815838
     86          1           0       11.203009   -0.335887    1.484778
     87          1           0       11.483115    2.183565   -0.834518
     88          1           0       12.236068    0.934126    0.280716
     89          1           0       12.438196    2.614960    0.635409
     90          1           0       11.611411    0.946615    3.351485
     91          1           0       10.680500   -0.571379    3.823125
     92          1           0        9.006723    0.497862    4.494737
     93          1           0        9.254921    1.845707    3.367847
     94          1           0       10.323857    1.752038    4.822433
     95          1           0        8.024564   -4.726168    2.920893
     96          1           0        8.982770   -4.609130    1.318870
     97          1           0        7.479879   -5.576992    1.501574
     98          1           0        2.608645   -3.350615    1.190329
     99          1           0        0.665864   -5.468561   -2.419587
    100          1           0        0.269693   -6.346215   -0.854147
    101          1           0        1.802123   -6.492800   -1.555928
    102          1           0       -3.317063   -3.718229    0.126041
    103          1           0       -2.660674   -4.040282   -1.462129
    104          1           0       -4.074090   -1.521097   -1.567012
    105          1           0       -4.708021   -5.076533   -1.996117
    106          1           0       -6.467491   -5.025346   -2.362411
    107          1           0       -5.938062   -4.994812   -0.735063
    108          1           0       -7.054133   -2.923426   -3.269872
    109          1           0       -6.067312   -1.481141   -3.021741
    110          1           0       -7.167406   -1.480528   -0.590875
    111          1           0       -8.412955   -2.408555   -1.406538
    112          1           0       -7.830982   -0.232666   -3.115691
    113          1           0       -7.824873    0.364304   -1.418153
    114          1           0      -10.158946   -1.336127   -2.097959
    115          1           0      -11.047183   -0.164976   -3.978790
    116          1           0       -9.412544    0.029896   -4.277028
    117          1           0      -10.496448    1.360613   -3.553607
    118          1           0      -10.070931    1.709884   -1.374228
    119          1           0       -9.495075    0.458275   -0.219891
    120          1           0      -11.800245   -0.043364    0.218942
    121          1           0      -12.085403   -0.326762   -1.430456
    122          1           0      -12.378242    2.081820   -1.941580
    123          1           0      -12.072160    2.436277   -0.148932
    124          1           0      -14.215276    0.580856   -0.984004
    125          1           0      -14.998695    3.543024   -0.666840
    126          1           0      -15.821043    2.416496   -1.555797
    127          1           0      -14.227708    3.023538   -2.180598
    128          1           0      -14.242841    2.857860    1.116036
    129          1           0      -13.157176    1.481256    1.399602
    130          1           0      -15.374755    0.089359    1.179579
    131          1           0      -16.272957    1.618695    1.179074
    132          1           0      -14.456844    1.591209    3.391686
    133          1           0      -15.444666    0.156968    3.310837
    134          1           0      -17.292977    2.155341    2.858353
    135          1           0      -17.721735    2.112297    5.605684
    136          1           0      -16.475220    0.827145    5.395027
    137          1           0      -17.928154    0.662108    4.511493
    138          1           0      -15.787111    3.553187    5.018374
    139          1           0      -16.878674    4.174572    3.660906
    140          1           0      -15.256404    3.876966    3.280629
 ---------------------------------------------------------------------

 SCF Done:  E(RZINDO/S) =  -473.867286234     A.U. after   20 cycles

 Excitation energies and oscillator strengths:

 Excited State   1:      Singlet-A      1.2677 eV  978.00 nm  f=0.5684  <S**2>=0.000
     175 ->178         0.19420
     176 ->177         0.65980
 This state for optimization and/or second-order correction.
 Total Energy, E(CIS/TDA) =  -473.820697985
 Copying the excited state density for this state as the 1-particle RhoCI density.

 Excited State   2:      Singlet-A      1.8979 eV  653.27 nm  f=0.0232  <S**2>=0.000
     175 ->177         0.52602
     176 ->178        -0.44052

 Excited State   3:      Singlet-A      2.9245 eV  423.95 nm  f=0.0218  <S**2>=0.000
     168 ->177         0.27848
     168 ->179        -0.40999
     168 ->180         0.13127
     168 ->181         0.24758
     168 ->184        -0.14158
     168 ->186        -0.18001
     168 ->188        -0.15862
     168 ->195        -0.10320
     169 ->179         0.11767

 Excited State   4:      Singlet-A      2.9281 eV  423.43 nm  f=0.8535  <S**2>=0.000
     175 ->177         0.35468
     176 ->178         0.48647
     176 ->179         0.28666

 Excited State   5:      Singlet-A      3.0552 eV  405.81 nm  f=0.0008  <S**2>=0.000
     170 ->177         0.30041
     170 ->178         0.20494
     170 ->179         0.26872
     170 ->180         0.11967
     170 ->181         0.31324
     170 ->186         0.23285
     170 ->188        -0.11913

 The electronic state is 1-A.
 Alpha  occ. eigenvalues --   -1.84366  -1.82122  -1.78251  -1.70944  -1.70534
 Alpha  occ. eigenvalues --   -1.69042  -1.66411  -1.61071  -1.59335  -1.56132
 Alpha  occ. eigenvalues --   -1.55031  -1.50642  -1.50057  -1.47105  -1.46057
 Alpha  occ. eigenvalues --   -1.44247  -1.42118  -1.39316  -1.38134  -1.38118
 Alpha  occ. eigenvalues --   -1.35358  -1.32653  -1.31799  -1.31250  -1.29152
 Alpha  occ. eigenvalues --   -1.27114  -1.23703  -1.21413  -1.20115  -1.17276
 Alpha  occ. eigenvalues --   -1.16681  -1.15410  -1.14812  -1.14354  -1.12558
 Alpha  occ. eigenvalues --   -1.12297  -1.11035  -1.09462  -1.05632  -1.03825
 Alpha  occ. eigenvalues --   -1.01928  -1.01777  -0.99134  -0.98177  -0.96447
 Alpha  occ. eigenvalues --   -0.94989  -0.93846  -0.93462  -0.92693  -0.92156
 Alpha  occ. eigenvalues --   -0.90874  -0.89349  -0.89267  -0.87830  -0.86875
 Alpha  occ. eigenvalues --   -0.85048  -0.83649  -0.82725  -0.81702  -0.81072
 Alpha  occ. eigenvalues --   -0.80158  -0.79253  -0.77807  -0.77163  -0.75821
 Alpha  occ. eigenvalues --   -0.75293  -0.74876  -0.74613  -0.74178  -0.73953
 Alpha  occ. eigenvalues --   -0.73286  -0.72854  -0.72263  -0.71460  -0.70758
 Alpha  occ. eigenvalues --   -0.70562  -0.70051  -0.69320  -0.68430  -0.67857
 Alpha  occ. eigenvalues --   -0.67763  -0.67266  -0.66967  -0.65976  -0.65182
 Alpha  occ. eigenvalues --   -0.64926  -0.64857  -0.64179  -0.63700  -0.63534
 Alpha  occ. eigenvalues --   -0.62902  -0.62624  -0.62453  -0.62280  -0.61727
 Alpha  occ. eigenvalues --   -0.61632  -0.61438  -0.61098  -0.60665  -0.60130
 Alpha  occ. eigenvalues --   -0.59607  -0.59093  -0.58804  -0.58471  -0.57722
 Alpha  occ. eigenvalues --   -0.57383  -0.57071  -0.56941  -0.56439  -0.56212
 Alpha  occ. eigenvalues --   -0.55863  -0.55811  -0.55094  -0.54576  -0.54087
 Alpha  occ. eigenvalues --   -0.53737  -0.53509  -0.53325  -0.53203  -0.53159
 Alpha  occ. eigenvalues --   -0.52895  -0.52536  -0.52207  -0.52011  -0.51580
 Alpha  occ. eigenvalues --   -0.51336  -0.51189  -0.51039  -0.50772  -0.50534
 Alpha  occ. eigenvalues --   -0.50149  -0.49725  -0.49422  -0.49239  -0.49022
 Alpha  occ. eigenvalues --   -0.48645  -0.48460  -0.48337  -0.48202  -0.47902
 Alpha  occ. eigenvalues --   -0.47681  -0.47485  -0.47452  -0.46956  -0.46647
 Alpha  occ. eigenvalues --   -0.46096  -0.46073  -0.45991  -0.45615  -0.45334
 Alpha  occ. eigenvalues --   -0.45165  -0.45096  -0.44951  -0.44468  -0.44231
 Alpha  occ. eigenvalues --   -0.44029  -0.43893  -0.42675  -0.42527  -0.42094
 Alpha  occ. eigenvalues --   -0.41956  -0.40957  -0.40159  -0.39342  -0.38644
 Alpha  occ. eigenvalues --   -0.37960  -0.36932  -0.35450  -0.35042  -0.34622
 Alpha  occ. eigenvalues --   -0.33843  -0.32318  -0.31969  -0.31580  -0.26523
 Alpha  occ. eigenvalues --   -0.21743
 Alpha virt. eigenvalues --   -0.08430  -0.02572  -0.00518   0.00981   0.01118
 Alpha virt. eigenvalues --    0.02692   0.02818   0.02969   0.04179   0.04816
 Alpha virt. eigenvalues --    0.05893   0.06157   0.06199   0.07143   0.07798

 Mulliken charges:
               1
     1  Mg   0.431435
     2  C   -0.035258
     3  C   -0.076090
     4  C   -0.086261
     5  C   -0.081908
     6  N   -0.257026
     7  C    0.092378
     8  C    0.007475
     9  C   -0.006258
    10  C    0.151666
    11  C   -0.058642
    12  C   -0.025545
    13  C    0.004289
    14  C    0.465136
    15  O   -0.510909
    16  O   -0.268342
    17  N   -0.331283
    18  C    0.113985
    19  C    0.019018
    20  C   -0.042420
    21  C    0.140474
    22  C   -0.038411
    23  C    0.325289
    24  O   -0.511539
    25  C   -0.031138
    26  N   -0.273648
    27  C    0.163254
    28  C    0.005528
    29  C    0.002585
    30  C    0.118059
    31  C   -0.050277
    32  C   -0.025407
    33  C   -0.054101
    34  N   -0.318545
    35  C    0.093182
    36  C    0.002321
    37  C   -0.053374
    38  C    0.121403
    39  C   -0.039848
    40  C    0.327222
    41  O   -0.526222
    42  C    0.062751
    43  C    0.489978
    44  O   -0.531752
    45  O   -0.270835
    46  C    0.075063
    47  C    0.103508
    48  C   -0.094839
    49  C   -0.018307
    50  C   -0.045842
    51  C   -0.000480
    52  C   -0.029802
    53  C   -0.060921
    54  C   -0.014013
    55  C   -0.061858
    56  C   -0.039951
    57  C   -0.041140
    58  C   -0.037406
    59  C   -0.025696
    60  C   -0.072631
    61  C   -0.031521
    62  C   -0.044512
    63  C   -0.026918
    64  C   -0.016971
    65  C   -0.068870
    66  C   -0.064050
    67  H    0.021920
    68  H    0.044665
    69  H    0.022056
    70  H    0.040608
    71  H    0.026802
    72  H    0.019435
    73  H    0.035279
    74  H    0.021736
    75  H    0.034085
    76  H    0.022188
    77  H    0.039377
    78  H    0.040713
    79  H    0.042052
    80  H    0.028537
    81  H    0.027598
    82  H    0.039719
    83  H    0.032656
    84  H    0.031579
    85  H    0.030778
    86  H    0.018439
    87  H    0.033217
    88  H    0.021938
    89  H    0.021300
    90  H    0.013231
    91  H    0.026889
    92  H    0.020866
    93  H    0.020491
    94  H    0.021943
    95  H    0.040122
    96  H    0.034844
    97  H    0.032964
    98  H    0.053234
    99  H    0.052863
   100  H    0.036815
   101  H    0.039214
   102  H    0.073813
   103  H    0.032667
   104  H    0.024387
   105  H    0.024946
   106  H    0.020872
   107  H    0.029661
   108  H    0.025263
   109  H    0.021457
   110  H    0.023153
   111  H    0.018678
   112  H    0.014767
   113  H    0.021209
   114  H    0.036475
   115  H    0.003423
   116  H    0.019277
   117  H    0.032813
   118  H    0.028121
   119  H    0.020298
   120  H    0.017672
   121  H    0.017278
   122  H    0.023946
   123  H    0.025891
   124  H    0.030370
   125  H    0.016772
   126  H    0.018179
   127  H    0.017806
   128  H    0.021921
   129  H    0.019169
   130  H    0.016040
   131  H    0.021208
   132  H    0.015043
   133  H    0.013498
   134  H    0.015996
   135  H    0.032161
   136  H    0.015719
   137  H    0.016318
   138  H    0.031808
   139  H    0.016957
   140  H    0.019581
 Sum of Mulliken charges =  -0.00000

 Dipole moment (field-independent basis, Debye):
    X=             -4.6942    Y=              8.2507    Z=             -2.1419  Tot=              9.7312
 N-N= 4.148119105496D+03 E-N= 0.000000000000D+00  KE=-8.970212765770D+03
 Leave Link  601 at Wed May  4 03:31:25 2022, MaxMem=  6710886400 cpu:               0.8 elap:               0.0
 (Enter /sw/apps/gaussian-16.0/g16/l9999.exe)
 1\1\GINC-BP1-COMPUTE069\SP\RZINDO CIS\STO-3G\C55H74Mg1N4O6\OF15641\04-
 May-2022\0\\#p ZINDO=(nstates=5)\\step_1301_chromophore_16 ZINDO\\0,1\
 Mg,0,39.881,41.482,26.867\C,0,39.053,43.691,29.479\C,0,40.36,38.949,29
 .175\C,0,40.816,39.45,24.27\C,0,39.207,43.991,24.561\N,0,39.901,41.428
 ,29.212\C,0,39.405,42.397,30.034\C,0,39.298,41.861,31.449\C,0,39.766,4
 0.346,31.262\C,0,40.044,40.242,29.763\C,0,41.003,39.979,32.235\C,0,37.
 889,42.054,32.09\C,0,37.587,41.349,33.445\C,0,37.064,42.37,34.516\O,0,

 Normal termination of Gaussian 16 at Wed May  4 03:31:25 2022.
