 Gaussian 16, Revision A.03,
 Gaussian 16:  ES64L-G16RevA.03 25-Dec-2016

 ------------------------------
 #p blyp/Def2SVP td=(nstates=5)
 ------------------------------

 ------------------------------------------------
 step_1_chromophore_10 TDDFT with blyp functional
 ------------------------------------------------
 Symbolic Z-matrix:
 Charge =  0 Multiplicity = 1

                         Standard orientation:
 ---------------------------------------------------------------------
 Center     Atomic      Atomic             Coordinates (Angstroms)
 Number     Number       Type             X           Y           Z
 ---------------------------------------------------------------------
      1         12           0        5.642850    0.619345    0.043823
      2          6           0        3.729846   -2.212988    0.059421
      3          6           0        3.038747    2.469145   -0.904436
      4          6           0        7.682505    3.155537   -0.129609
      5          6           0        8.448130   -1.538858    0.462296
      6          7           0        3.609733    0.149320   -0.552487
      7          6           0        3.012432   -1.016748   -0.201013
      8          6           0        1.513780   -0.891767   -0.167922
      9          6           0        1.323876    0.559724   -0.766174
     10          6           0        2.740428    1.088064   -0.832601
     11          6           0        0.547962    0.610681   -2.104203
     12          6           0        0.839324   -1.186732    1.307033
     13          6           0       -0.382402   -2.115078    1.383227
     14          6           0       -1.246813   -2.252828    0.090664
     15          8           0       -1.355131   -3.297783   -0.599296
     16          8           0       -1.873335   -1.118020   -0.288469
     17          7           0        5.374997    2.496838   -0.263445
     18          6           0        4.243979    3.139131   -0.655817
     19          6           0        4.453887    4.537093   -0.943690
     20          6           0        5.727542    4.788627   -0.531285
     21          6           0        6.345960    3.432405   -0.404566
     22          6           0        3.310517    5.289315   -1.599767
     23          6           0        6.465590    6.139137   -0.441690
     24          8           0        7.624793    6.257704   -0.119338
     25          6           0        5.623494    7.318439   -0.829891
     26          7           0        7.797345    0.720470   -0.014410
     27          6           0        8.347080    1.947303    0.032874
     28          6           0        9.862068    1.860018    0.242496
     29          6           0       10.060461    0.390649    0.747832
     30          6           0        8.694760   -0.210209    0.356577
     31          6           0       10.815591    2.237836   -0.969848
     32          6           0       10.289741    0.207755    2.295445
     33          6           0        9.298256    0.675484    3.328126
     34          7           0        6.101257   -1.441133    0.318741
     35          6           0        7.272193   -2.203082    0.385754
     36          6           0        6.978466   -3.637235    0.501100
     37          6           0        5.581241   -3.689663    0.385990
     38          6           0        5.140062   -2.332722    0.284624
     39          6           0        7.939022   -4.772084    0.748031
     40          6           0        4.468198   -4.522950    0.341246
     41          8           0        4.332696   -5.736407    0.357312
     42          6           0        3.213892   -3.611583    0.367402
     43          6           0        2.370955   -4.197982   -0.699692
     44          8           0        2.512320   -4.005746   -1.909769
     45          8           0        1.469864   -5.084444   -0.184981
     46          6           0        0.751096   -5.988585   -1.088315
     47          6           0       -2.929581   -1.171306   -1.251168
     48          6           0       -4.309110   -0.984087   -0.526530
     49          6           0       -5.088370   -2.045219   -0.228586
     50          6           0       -4.854837   -3.571840   -0.431916
     51          6           0       -6.457467   -1.716263    0.374140
     52          6           0       -7.369741   -1.145348   -0.751145
     53          6           0       -7.387957    0.422759   -0.586289
     54          6           0       -8.808817    0.872346   -0.215690
     55          6           0       -9.713517    0.910622   -1.489656
     56          6           0       -8.879083    2.190113    0.493207
     57          6           0       -9.696587    1.962638    1.800893
     58          6           0      -10.785573    3.030639    2.000055
     59          6           0      -12.195841    2.451622    2.336291
     60          6           0      -12.197358    1.835269    3.748173
     61          6           0      -12.735853    1.392014    1.344888
     62          6           0      -14.152982    1.613708    0.878137
     63          6           0      -14.380989    1.323760   -0.627023
     64          6           0      -15.033565   -0.023566   -0.939287
     65          6           0      -14.172863   -1.233295   -0.592414
     66          6           0      -15.537672   -0.062810   -2.402031
     67          1           0        2.133431    3.068633   -1.022427
     68          1           0        8.417132    3.962482   -0.117802
     69          1           0        9.388092   -2.070578    0.628745
     70          1           0        1.056697   -1.555459   -0.901956
     71          1           0        0.819391    1.180979   -0.026467
     72          1           0        1.257522    0.764606   -2.917089
     73          1           0       -0.130146    1.463658   -2.077292
     74          1           0        0.038908   -0.348155   -2.202912
     75          1           0        0.564373   -0.201825    1.684668
     76          1           0        1.564351   -1.657116    1.970491
     77          1           0       -1.106237   -1.726044    2.098845
     78          1           0       -0.083554   -3.085813    1.778601
     79          1           0        3.009622    4.914156   -2.578063
     80          1           0        3.450258    6.312069   -1.949324
     81          1           0        2.557839    5.243264   -0.812687
     82          1           0        4.717148    7.359477   -0.226241
     83          1           0        5.507001    7.163528   -1.902320
     84          1           0        6.014834    8.321399   -0.663305
     85          1           0       10.020622    2.623585    1.004859
     86          1           0       10.816898   -0.091643    0.128324
     87          1           0       10.211533    2.534489   -1.826956
     88          1           0       11.342826    1.357264   -1.334963
     89          1           0       11.578209    2.992704   -0.772328
     90          1           0       11.243135    0.727022    2.396230
     91          1           0       10.434905   -0.836785    2.569214
     92          1           0        8.526242    1.276509    2.845869
     93          1           0        9.784209    1.321536    4.059108
     94          1           0        8.733065   -0.099626    3.845296
     95          1           0        8.088056   -5.390299   -0.136127
     96          1           0        7.577548   -5.387692    1.571895
     97          1           0        8.882791   -4.256724    0.928125
     98          1           0        2.753935   -3.580688    1.355290
     99          1           0        0.430900   -6.902766   -0.587071
    100          1           0        1.279199   -6.129118   -2.030186
    101          1           0       -0.163669   -5.545876   -1.481988
    102          1           0       -3.115321   -2.032405   -1.893089
    103          1           0       -2.837145   -0.266408   -1.850678
    104          1           0       -4.615239    0.050007   -0.364113
    105          1           0       -4.505219   -3.990834    0.511435
    106          1           0       -4.087090   -3.823939   -1.163489
    107          1           0       -5.793214   -4.074212   -0.665892
    108          1           0       -6.416821   -1.102788    1.274301
    109          1           0       -6.934540   -2.574318    0.847787
    110          1           0       -8.342509   -1.582524   -0.524364
    111          1           0       -7.091341   -1.448754   -1.759902
    112          1           0       -7.203746    0.690031   -1.626167
    113          1           0       -6.569175    0.903519   -0.051350
    114          1           0       -9.307993    0.128798    0.406394
    115          1           0       -9.685802    1.874016   -1.998527
    116          1           0      -10.719268    0.536824   -1.296703
    117          1           0       -9.313064    0.312218   -2.307538
    118          1           0       -9.257016    2.977262   -0.159024
    119          1           0       -7.916322    2.576936    0.826229
    120          1           0       -8.952853    2.116536    2.582947
    121          1           0      -10.001520    0.942693    2.038106
    122          1           0      -10.935565    3.566821    1.062671
    123          1           0      -10.575720    3.769517    2.774073
    124          1           0      -12.858679    3.317319    2.332886
    125          1           0      -12.795475    0.925788    3.794333
    126          1           0      -12.698667    2.537818    4.414701
    127          1           0      -11.181252    1.635590    4.089027
    128          1           0      -12.639494    0.362990    1.691823
    129          1           0      -12.113476    1.408297    0.449732
    130          1           0      -14.635424    2.574970    1.055109
    131          1           0      -14.866077    1.001689    1.429710
    132          1           0      -13.374839    1.415224   -1.036633
    133          1           0      -14.959241    2.170068   -0.999378
    134          1           0      -15.900917   -0.146709   -0.291431
    135          1           0      -14.379364   -2.040091   -1.295370
    136          1           0      -14.323898   -1.553179    0.438899
    137          1           0      -13.129096   -0.957749   -0.738601
    138          1           0      -15.631578   -1.078311   -2.785426
    139          1           0      -14.989214    0.647969   -3.021552
    140          1           0      -16.535714    0.373105   -2.379353
 ---------------------------------------------------------------------

 SCF Done:  E(RB-LYP) =  -3007.34645360     A.U. after   21 cycles

 Excitation energies and oscillator strengths:

 Excited State   1:      Singlet-A      1.8259 eV  679.03 nm  f=0.2852  <S**2>=0.000
     245 -> 248        0.20051
     246 -> 247        0.68207
     246 <- 247       -0.14018
 This state for optimization and/or second-order correction.
 Total Energy, E(TD-HF/TD-DFT) =  -3007.27935273
 Copying the excited state density for this state as the 1-particle RhoCI density.

 Excited State   2:      Singlet-A      1.9348 eV  640.82 nm  f=0.0259  <S**2>=0.000
     244 -> 247        0.54391
     245 -> 247        0.42827
     246 -> 248       -0.11980

 Excited State   3:      Singlet-A      2.0504 eV  604.69 nm  f=0.0388  <S**2>=0.000
     244 -> 247       -0.44554
     245 -> 247        0.48346
     246 -> 248       -0.23011

 Excited State   4:      Singlet-A      2.2840 eV  542.84 nm  f=0.0001  <S**2>=0.000
     243 -> 247        0.70550

 Excited State   5:      Singlet-A      2.5000 eV  495.95 nm  f=0.0018  <S**2>=0.000
     242 -> 247        0.70208

 The electronic state is 1-A.
 Alpha  occ. eigenvalues --  -46.26374 -18.82942 -18.80183 -18.76375 -18.76325
 Alpha  occ. eigenvalues --  -18.74665 -18.74518 -14.02787 -14.02160 -14.01250
 Alpha  occ. eigenvalues --  -14.00351 -10.04658 -10.02186 -10.00429  -9.98264
 Alpha  occ. eigenvalues --   -9.97942  -9.96138  -9.95964  -9.95815  -9.95556
 Alpha  occ. eigenvalues --   -9.95309  -9.95288  -9.94909  -9.94819  -9.94348
 Alpha  occ. eigenvalues --   -9.94231  -9.93951  -9.93900  -9.93837  -9.93673
 Alpha  occ. eigenvalues --   -9.93659  -9.93565  -9.93515  -9.93468  -9.93388
 Alpha  occ. eigenvalues --   -9.92918  -9.92909  -9.92831  -9.92648  -9.92479
 Alpha  occ. eigenvalues --   -9.92280  -9.92264  -9.92194  -9.92187  -9.92086
 Alpha  occ. eigenvalues --   -9.92071  -9.91831  -9.91803  -9.91742  -9.91712
 Alpha  occ. eigenvalues --   -9.91631  -9.91490  -9.91376  -9.91346  -9.91191
 Alpha  occ. eigenvalues --   -9.91126  -9.91041  -9.91023  -9.90890  -9.90796
 Alpha  occ. eigenvalues --   -9.90742  -9.90688  -9.90680  -9.90597  -9.90433
 Alpha  occ. eigenvalues --   -9.90210  -2.91312  -1.71705  -1.71210  -1.71041
 Alpha  occ. eigenvalues --   -0.98717  -0.95549  -0.92719  -0.90588  -0.88454
 Alpha  occ. eigenvalues --   -0.87604  -0.87296  -0.86786  -0.86427  -0.85464
 Alpha  occ. eigenvalues --   -0.75146  -0.73905  -0.73069  -0.72520  -0.72418
 Alpha  occ. eigenvalues --   -0.71995  -0.71643  -0.71195  -0.70954  -0.70786
 Alpha  occ. eigenvalues --   -0.70034  -0.69360  -0.67995  -0.67364  -0.67182
 Alpha  occ. eigenvalues --   -0.66525  -0.66279  -0.65329  -0.64947  -0.64267
 Alpha  occ. eigenvalues --   -0.63818  -0.63009  -0.62138  -0.61683  -0.60405
 Alpha  occ. eigenvalues --   -0.60291  -0.60090  -0.59640  -0.59591  -0.59073
 Alpha  occ. eigenvalues --   -0.58853  -0.57603  -0.56600  -0.55895  -0.54933
 Alpha  occ. eigenvalues --   -0.54577  -0.53992  -0.53032  -0.52444  -0.52145
 Alpha  occ. eigenvalues --   -0.51651  -0.50966  -0.50599  -0.50483  -0.49863
 Alpha  occ. eigenvalues --   -0.49562  -0.49048  -0.47779  -0.47506  -0.47169
 Alpha  occ. eigenvalues --   -0.46356  -0.45819  -0.45602  -0.44680  -0.44126
 Alpha  occ. eigenvalues --   -0.43998  -0.43461  -0.42968  -0.42440  -0.42047
 Alpha  occ. eigenvalues --   -0.41808  -0.41687  -0.41426  -0.41340  -0.40975
 Alpha  occ. eigenvalues --   -0.40909  -0.40679  -0.40284  -0.40166  -0.39997
 Alpha  occ. eigenvalues --   -0.39954  -0.39722  -0.39627  -0.39475  -0.39062
 Alpha  occ. eigenvalues --   -0.38946  -0.38592  -0.38452  -0.38245  -0.37887
 Alpha  occ. eigenvalues --   -0.37701  -0.37457  -0.37393  -0.37078  -0.36894
 Alpha  occ. eigenvalues --   -0.36750  -0.36697  -0.36583  -0.36465  -0.36294
 Alpha  occ. eigenvalues --   -0.36153  -0.35989  -0.35791  -0.35571  -0.35349
 Alpha  occ. eigenvalues --   -0.35279  -0.35122  -0.34965  -0.34612  -0.34494
 Alpha  occ. eigenvalues --   -0.34435  -0.34118  -0.33912  -0.33747  -0.33602
 Alpha  occ. eigenvalues --   -0.33517  -0.33382  -0.33306  -0.33160  -0.32842
 Alpha  occ. eigenvalues --   -0.32758  -0.32610  -0.32444  -0.32139  -0.32028
 Alpha  occ. eigenvalues --   -0.31807  -0.31764  -0.31708  -0.31628  -0.31444
 Alpha  occ. eigenvalues --   -0.31330  -0.31198  -0.30981  -0.30884  -0.30514
 Alpha  occ. eigenvalues --   -0.30462  -0.30335  -0.29997  -0.29879  -0.29712
 Alpha  occ. eigenvalues --   -0.29590  -0.29399  -0.29228  -0.29150  -0.29015
 Alpha  occ. eigenvalues --   -0.28447  -0.28409  -0.28259  -0.28147  -0.27803
 Alpha  occ. eigenvalues --   -0.27608  -0.27562  -0.27476  -0.26851  -0.26357
 Alpha  occ. eigenvalues --   -0.26022  -0.25852  -0.25290  -0.25108  -0.24782
 Alpha  occ. eigenvalues --   -0.24104  -0.24060  -0.23655  -0.23561  -0.23374
 Alpha  occ. eigenvalues --   -0.22759  -0.22220  -0.21467  -0.21298  -0.20516
 Alpha  occ. eigenvalues --   -0.20414  -0.20020  -0.19155  -0.18004  -0.16813
 Alpha  occ. eigenvalues --   -0.15295
 Alpha virt. eigenvalues --   -0.10873  -0.06759  -0.06060  -0.04252  -0.03736
 Alpha virt. eigenvalues --   -0.02112  -0.02039  -0.01050  -0.00699   0.00723
 Alpha virt. eigenvalues --    0.01882   0.02104   0.02324   0.02584   0.02670

 Mulliken charges:
               1
     1  Mg   0.712515
     2  C    0.029067
     3  C   -0.091685
     4  C   -0.048625
     5  C   -0.107136
     6  N   -0.184325
     7  C   -0.080768
     8  C    0.005265
     9  C   -0.039790
    10  C    0.017443
    11  C    0.145744
    12  C    0.118192
    13  C    0.144952
    14  C    0.074501
    15  O   -0.223414
    16  O   -0.243915
    17  N   -0.326967
    18  C    0.147948
    19  C   -0.096334
    20  C   -0.041582
    21  C    0.136408
    22  C    0.157432
    23  C   -0.051744
    24  O   -0.130085
    25  C    0.121994
    26  N   -0.182573
    27  C   -0.016991
    28  C    0.017947
    29  C    0.060811
    30  C   -0.048017
    31  C    0.127703
    32  C    0.085946
    33  C    0.071170
    34  N   -0.226034
    35  C    0.167193
    36  C   -0.196823
    37  C    0.166573
    38  C    0.029414
    39  C    0.189296
    40  C   -0.122806
    41  O   -0.134056
    42  C    0.083664
    43  C    0.110193
    44  O   -0.204061
    45  O   -0.257860
    46  C    0.228731
    47  C    0.329322
    48  C   -0.155963
    49  C   -0.109408
    50  C    0.152185
    51  C    0.111201
    52  C    0.065979
    53  C    0.113531
    54  C   -0.074495
    55  C    0.086820
    56  C    0.143235
    57  C    0.046072
    58  C    0.104990
    59  C   -0.075792
    60  C    0.109067
    61  C    0.121892
    62  C    0.077603
    63  C    0.072789
    64  C   -0.085159
    65  C    0.104442
    66  C    0.119303
    67  H   -0.070007
    68  H   -0.050788
    69  H   -0.070143
    70  H    0.013348
    71  H   -0.028884
    72  H   -0.005384
    73  H   -0.008373
    74  H    0.010920
    75  H   -0.019984
    76  H   -0.007833
    77  H   -0.009189
    78  H    0.003677
    79  H    0.006368
    80  H   -0.024888
    81  H    0.019146
    82  H    0.012419
    83  H    0.023938
    84  H   -0.015737
    85  H   -0.026723
    86  H   -0.033844
    87  H   -0.008646
    88  H   -0.020152
    89  H    0.003679
    90  H   -0.020900
    91  H   -0.020350
    92  H   -0.008889
    93  H   -0.006610
    94  H   -0.003265
    95  H    0.010863
    96  H    0.017287
    97  H   -0.024063
    98  H   -0.000153
    99  H    0.011428
   100  H    0.006204
   101  H    0.003067
   102  H    0.009649
   103  H   -0.028431
   104  H   -0.030063
   105  H    0.005730
   106  H    0.004536
   107  H   -0.006001
   108  H   -0.026311
   109  H   -0.057330
   110  H   -0.024056
   111  H   -0.016345
   112  H   -0.048097
   113  H   -0.016687
   114  H   -0.031360
   115  H   -0.022718
   116  H    0.009620
   117  H   -0.037220
   118  H   -0.030668
   119  H   -0.044444
   120  H   -0.039861
   121  H   -0.015865
   122  H   -0.034627
   123  H   -0.031945
   124  H   -0.041528
   125  H   -0.023676
   126  H   -0.024231
   127  H   -0.011954
   128  H   -0.029889
   129  H   -0.044195
   130  H   -0.046003
   131  H   -0.050882
   132  H   -0.034980
   133  H   -0.041510
   134  H   -0.041091
   135  H   -0.023902
   136  H   -0.006841
   137  H   -0.020433
   138  H   -0.014795
   139  H   -0.014507
   140  H   -0.026762
 Sum of Mulliken charges =  -0.00000

 Dipole moment (field-independent basis, Debye):
    X=             -3.4506    Y=              4.8182    Z=              2.1561  Tot=              6.3064
 Quadrupole moment (field-independent basis, Debye-Ang):
   XX=           -377.6708   YY=           -430.0996   ZZ=           -403.0167
   XY=              4.0945   XZ=              8.0971   YZ=            -12.4949

 Normal termination of Gaussian 16 at Wed May  4 16:31:23 2022.
