 Gaussian 16, Revision A.03,
 Gaussian 16:  ES64L-G16RevA.03 25-Dec-2016

 -----------------------------------
 #p cam-b3lyp/Def2SVP td=(nstates=5)
 -----------------------------------

 -----------------------------------------------------
 step_1_chromophore_10 TDDFT with cam-b3lyp functional
 -----------------------------------------------------
 Symbolic Z-matrix:
 Charge =  0 Multiplicity = 1

                         Standard orientation:
 ---------------------------------------------------------------------
 Center     Atomic      Atomic             Coordinates (Angstroms)
 Number     Number       Type             X           Y           Z
 ---------------------------------------------------------------------
      1         12           0        5.642850    0.619345    0.043823
      2          6           0        3.729846   -2.212988    0.059421
      3          6           0        3.038747    2.469145   -0.904436
      4          6           0        7.682505    3.155537   -0.129609
      5          6           0        8.448130   -1.538858    0.462296
      6          7           0        3.609733    0.149320   -0.552487
      7          6           0        3.012432   -1.016748   -0.201013
      8          6           0        1.513780   -0.891767   -0.167922
      9          6           0        1.323876    0.559724   -0.766174
     10          6           0        2.740428    1.088064   -0.832601
     11          6           0        0.547962    0.610681   -2.104203
     12          6           0        0.839324   -1.186732    1.307033
     13          6           0       -0.382402   -2.115078    1.383227
     14          6           0       -1.246813   -2.252828    0.090664
     15          8           0       -1.355131   -3.297783   -0.599296
     16          8           0       -1.873335   -1.118020   -0.288469
     17          7           0        5.374997    2.496838   -0.263445
     18          6           0        4.243979    3.139131   -0.655817
     19          6           0        4.453887    4.537093   -0.943690
     20          6           0        5.727542    4.788627   -0.531285
     21          6           0        6.345960    3.432405   -0.404566
     22          6           0        3.310517    5.289315   -1.599767
     23          6           0        6.465590    6.139137   -0.441690
     24          8           0        7.624793    6.257704   -0.119338
     25          6           0        5.623494    7.318439   -0.829891
     26          7           0        7.797345    0.720470   -0.014410
     27          6           0        8.347080    1.947303    0.032874
     28          6           0        9.862068    1.860018    0.242496
     29          6           0       10.060461    0.390649    0.747832
     30          6           0        8.694760   -0.210209    0.356577
     31          6           0       10.815591    2.237836   -0.969848
     32          6           0       10.289741    0.207755    2.295445
     33          6           0        9.298256    0.675484    3.328126
     34          7           0        6.101257   -1.441133    0.318741
     35          6           0        7.272193   -2.203082    0.385754
     36          6           0        6.978466   -3.637235    0.501100
     37          6           0        5.581241   -3.689663    0.385990
     38          6           0        5.140062   -2.332722    0.284624
     39          6           0        7.939022   -4.772084    0.748031
     40          6           0        4.468198   -4.522950    0.341246
     41          8           0        4.332696   -5.736407    0.357312
     42          6           0        3.213892   -3.611583    0.367402
     43          6           0        2.370955   -4.197982   -0.699692
     44          8           0        2.512320   -4.005746   -1.909769
     45          8           0        1.469864   -5.084444   -0.184981
     46          6           0        0.751096   -5.988585   -1.088315
     47          6           0       -2.929581   -1.171306   -1.251168
     48          6           0       -4.309110   -0.984087   -0.526530
     49          6           0       -5.088370   -2.045219   -0.228586
     50          6           0       -4.854837   -3.571840   -0.431916
     51          6           0       -6.457467   -1.716263    0.374140
     52          6           0       -7.369741   -1.145348   -0.751145
     53          6           0       -7.387957    0.422759   -0.586289
     54          6           0       -8.808817    0.872346   -0.215690
     55          6           0       -9.713517    0.910622   -1.489656
     56          6           0       -8.879083    2.190113    0.493207
     57          6           0       -9.696587    1.962638    1.800893
     58          6           0      -10.785573    3.030639    2.000055
     59          6           0      -12.195841    2.451622    2.336291
     60          6           0      -12.197358    1.835269    3.748173
     61          6           0      -12.735853    1.392014    1.344888
     62          6           0      -14.152982    1.613708    0.878137
     63          6           0      -14.380989    1.323760   -0.627023
     64          6           0      -15.033565   -0.023566   -0.939287
     65          6           0      -14.172863   -1.233295   -0.592414
     66          6           0      -15.537672   -0.062810   -2.402031
     67          1           0        2.133431    3.068633   -1.022427
     68          1           0        8.417132    3.962482   -0.117802
     69          1           0        9.388092   -2.070578    0.628745
     70          1           0        1.056697   -1.555459   -0.901956
     71          1           0        0.819391    1.180979   -0.026467
     72          1           0        1.257522    0.764606   -2.917089
     73          1           0       -0.130146    1.463658   -2.077292
     74          1           0        0.038908   -0.348155   -2.202912
     75          1           0        0.564373   -0.201825    1.684668
     76          1           0        1.564351   -1.657116    1.970491
     77          1           0       -1.106237   -1.726044    2.098845
     78          1           0       -0.083554   -3.085813    1.778601
     79          1           0        3.009622    4.914156   -2.578063
     80          1           0        3.450258    6.312069   -1.949324
     81          1           0        2.557839    5.243264   -0.812687
     82          1           0        4.717148    7.359477   -0.226241
     83          1           0        5.507001    7.163528   -1.902320
     84          1           0        6.014834    8.321399   -0.663305
     85          1           0       10.020622    2.623585    1.004859
     86          1           0       10.816898   -0.091643    0.128324
     87          1           0       10.211533    2.534489   -1.826956
     88          1           0       11.342826    1.357264   -1.334963
     89          1           0       11.578209    2.992704   -0.772328
     90          1           0       11.243135    0.727022    2.396230
     91          1           0       10.434905   -0.836785    2.569214
     92          1           0        8.526242    1.276509    2.845869
     93          1           0        9.784209    1.321536    4.059108
     94          1           0        8.733065   -0.099626    3.845296
     95          1           0        8.088056   -5.390299   -0.136127
     96          1           0        7.577548   -5.387692    1.571895
     97          1           0        8.882791   -4.256724    0.928125
     98          1           0        2.753935   -3.580688    1.355290
     99          1           0        0.430900   -6.902766   -0.587071
    100          1           0        1.279199   -6.129118   -2.030186
    101          1           0       -0.163669   -5.545876   -1.481988
    102          1           0       -3.115321   -2.032405   -1.893089
    103          1           0       -2.837145   -0.266408   -1.850678
    104          1           0       -4.615239    0.050007   -0.364113
    105          1           0       -4.505219   -3.990834    0.511435
    106          1           0       -4.087090   -3.823939   -1.163489
    107          1           0       -5.793214   -4.074212   -0.665892
    108          1           0       -6.416821   -1.102788    1.274301
    109          1           0       -6.934540   -2.574318    0.847787
    110          1           0       -8.342509   -1.582524   -0.524364
    111          1           0       -7.091341   -1.448754   -1.759902
    112          1           0       -7.203746    0.690031   -1.626167
    113          1           0       -6.569175    0.903519   -0.051350
    114          1           0       -9.307993    0.128798    0.406394
    115          1           0       -9.685802    1.874016   -1.998527
    116          1           0      -10.719268    0.536824   -1.296703
    117          1           0       -9.313064    0.312218   -2.307538
    118          1           0       -9.257016    2.977262   -0.159024
    119          1           0       -7.916322    2.576936    0.826229
    120          1           0       -8.952853    2.116536    2.582947
    121          1           0      -10.001520    0.942693    2.038106
    122          1           0      -10.935565    3.566821    1.062671
    123          1           0      -10.575720    3.769517    2.774073
    124          1           0      -12.858679    3.317319    2.332886
    125          1           0      -12.795475    0.925788    3.794333
    126          1           0      -12.698667    2.537818    4.414701
    127          1           0      -11.181252    1.635590    4.089027
    128          1           0      -12.639494    0.362990    1.691823
    129          1           0      -12.113476    1.408297    0.449732
    130          1           0      -14.635424    2.574970    1.055109
    131          1           0      -14.866077    1.001689    1.429710
    132          1           0      -13.374839    1.415224   -1.036633
    133          1           0      -14.959241    2.170068   -0.999378
    134          1           0      -15.900917   -0.146709   -0.291431
    135          1           0      -14.379364   -2.040091   -1.295370
    136          1           0      -14.323898   -1.553179    0.438899
    137          1           0      -13.129096   -0.957749   -0.738601
    138          1           0      -15.631578   -1.078311   -2.785426
    139          1           0      -14.989214    0.647969   -3.021552
    140          1           0      -16.535714    0.373105   -2.379353
 ---------------------------------------------------------------------

 SCF Done:  E(RCAM-B3LYP) =  -3007.15715005     A.U. after   18 cycles

 Excitation energies and oscillator strengths:

 Excited State   1:      Singlet-A      1.7680 eV  701.26 nm  f=0.3643  <S**2>=0.000
     245 -> 248        0.19188
     246 -> 247        0.68173
     245 <- 248        0.10604
 This state for optimization and/or second-order correction.
 Total Energy, E(TD-HF/TD-DFT) =  -3007.09217631
 Copying the excited state density for this state as the 1-particle RhoCI density.

 Excited State   2:      Singlet-A      2.2750 eV  544.98 nm  f=0.0613  <S**2>=0.000
     245 -> 247        0.61556
     246 -> 248       -0.33844

 Excited State   3:      Singlet-A      3.4133 eV  363.24 nm  f=0.6688  <S**2>=0.000
     243 -> 247        0.12253
     244 -> 247        0.11157
     245 -> 247        0.31920
     246 -> 248        0.59512
     245 <- 247       -0.10513

 Excited State   4:      Singlet-A      3.5531 eV  348.94 nm  f=0.0426  <S**2>=0.000
     243 -> 247        0.54371
     243 -> 249       -0.26814
     243 -> 250        0.22606
     243 -> 251       -0.12162
     246 -> 248       -0.13300

 Excited State   5:      Singlet-A      3.7301 eV  332.39 nm  f=0.0317  <S**2>=0.000
     241 -> 247       -0.15588
     244 -> 247        0.50609
     246 -> 249       -0.39578
     246 -> 251       -0.10897

 The electronic state is 1-A.
 Alpha  occ. eigenvalues --  -46.87873 -19.25785 -19.22930 -19.19874 -19.19318
 Alpha  occ. eigenvalues --  -19.17584 -19.17421 -14.41649 -14.40971 -14.39917
 Alpha  occ. eigenvalues --  -14.38644 -10.40006 -10.37525 -10.35905 -10.33306
 Alpha  occ. eigenvalues --  -10.31997 -10.30738 -10.30491 -10.30423 -10.30151
 Alpha  occ. eigenvalues --  -10.30042 -10.29134 -10.28880 -10.28846 -10.28617
 Alpha  occ. eigenvalues --  -10.28320 -10.28250 -10.28050 -10.27936 -10.27822
 Alpha  occ. eigenvalues --  -10.27772 -10.27694 -10.27690 -10.27518 -10.27486
 Alpha  occ. eigenvalues --  -10.27431 -10.27138 -10.27029 -10.26479 -10.26413
 Alpha  occ. eigenvalues --  -10.26200 -10.26130 -10.25971 -10.25825 -10.25782
 Alpha  occ. eigenvalues --  -10.25734 -10.25643 -10.25495 -10.25476 -10.25461
 Alpha  occ. eigenvalues --  -10.25299 -10.25212 -10.25159 -10.25025 -10.24966
 Alpha  occ. eigenvalues --  -10.24833 -10.24702 -10.24638 -10.24504 -10.24461
 Alpha  occ. eigenvalues --  -10.24399 -10.24276 -10.24268 -10.24232 -10.24009
 Alpha  occ. eigenvalues --  -10.23926  -3.16728  -1.91593  -1.91198  -1.91061
 Alpha  occ. eigenvalues --   -1.17101  -1.13917  -1.11469  -1.08736  -1.06267
 Alpha  occ. eigenvalues --   -1.05533  -1.05059  -1.04622  -1.04015  -1.02891
 Alpha  occ. eigenvalues --   -0.92160  -0.90752  -0.89877  -0.89546  -0.89145
 Alpha  occ. eigenvalues --   -0.88704  -0.88335  -0.87874  -0.87541  -0.87384
 Alpha  occ. eigenvalues --   -0.86464  -0.85740  -0.84211  -0.83444  -0.83416
 Alpha  occ. eigenvalues --   -0.82639  -0.82565  -0.81295  -0.80838  -0.80054
 Alpha  occ. eigenvalues --   -0.79522  -0.78929  -0.77668  -0.77107  -0.75710
 Alpha  occ. eigenvalues --   -0.75665  -0.75365  -0.74885  -0.74865  -0.74334
 Alpha  occ. eigenvalues --   -0.73917  -0.72559  -0.71565  -0.70753  -0.69512
 Alpha  occ. eigenvalues --   -0.69217  -0.68689  -0.67622  -0.66815  -0.66438
 Alpha  occ. eigenvalues --   -0.65865  -0.64897  -0.64652  -0.64596  -0.63663
 Alpha  occ. eigenvalues --   -0.63420  -0.63000  -0.61551  -0.61135  -0.60936
 Alpha  occ. eigenvalues --   -0.59916  -0.59395  -0.59144  -0.57947  -0.57511
 Alpha  occ. eigenvalues --   -0.57492  -0.56711  -0.56225  -0.55648  -0.55073
 Alpha  occ. eigenvalues --   -0.54871  -0.54704  -0.54485  -0.54277  -0.54128
 Alpha  occ. eigenvalues --   -0.53669  -0.53398  -0.53077  -0.52842  -0.52645
 Alpha  occ. eigenvalues --   -0.52487  -0.52429  -0.52287  -0.52102  -0.52049
 Alpha  occ. eigenvalues --   -0.51609  -0.51362  -0.50971  -0.50911  -0.50379
 Alpha  occ. eigenvalues --   -0.50159  -0.49991  -0.49866  -0.49594  -0.49477
 Alpha  occ. eigenvalues --   -0.49225  -0.48847  -0.48787  -0.48638  -0.48511
 Alpha  occ. eigenvalues --   -0.48463  -0.48155  -0.47898  -0.47830  -0.47746
 Alpha  occ. eigenvalues --   -0.47443  -0.47036  -0.46919  -0.46802  -0.46695
 Alpha  occ. eigenvalues --   -0.46370  -0.45904  -0.45597  -0.45500  -0.45351
 Alpha  occ. eigenvalues --   -0.45188  -0.45119  -0.45021  -0.44874  -0.44550
 Alpha  occ. eigenvalues --   -0.44299  -0.44216  -0.44002  -0.43786  -0.43624
 Alpha  occ. eigenvalues --   -0.43459  -0.43374  -0.43351  -0.43193  -0.43084
 Alpha  occ. eigenvalues --   -0.42815  -0.42604  -0.42472  -0.42252  -0.41964
 Alpha  occ. eigenvalues --   -0.41810  -0.41699  -0.41302  -0.41225  -0.41031
 Alpha  occ. eigenvalues --   -0.40803  -0.40754  -0.40618  -0.40362  -0.40124
 Alpha  occ. eigenvalues --   -0.39850  -0.39455  -0.39417  -0.39240  -0.39162
 Alpha  occ. eigenvalues --   -0.38760  -0.38386  -0.38295  -0.38075  -0.37094
 Alpha  occ. eigenvalues --   -0.36744  -0.36471  -0.36252  -0.35769  -0.35318
 Alpha  occ. eigenvalues --   -0.34937  -0.34524  -0.34317  -0.34106  -0.34066
 Alpha  occ. eigenvalues --   -0.33420  -0.33028  -0.32466  -0.32281  -0.31297
 Alpha  occ. eigenvalues --   -0.30614  -0.30323  -0.29842  -0.29578  -0.23714
 Alpha  occ. eigenvalues --   -0.20516
 Alpha virt. eigenvalues --   -0.07727  -0.01662   0.00328   0.02408   0.03112
 Alpha virt. eigenvalues --    0.04033   0.05526   0.06209   0.06871   0.07175
 Alpha virt. eigenvalues --    0.08235   0.08426   0.08807   0.09042   0.09364

 Mulliken charges:
               1
     1  Mg   0.850528
     2  C    0.012325
     3  C   -0.109347
     4  C   -0.070591
     5  C   -0.108758
     6  N   -0.257503
     7  C   -0.038113
     8  C   -0.050444
     9  C   -0.091710
    10  C    0.044728
    11  C    0.091983
    12  C    0.071830
    13  C    0.079884
    14  C    0.147606
    15  O   -0.264923
    16  O   -0.306304
    17  N   -0.419462
    18  C    0.163461
    19  C   -0.109057
    20  C   -0.091504
    21  C    0.161810
    22  C    0.094163
    23  C    0.026059
    24  O   -0.168621
    25  C    0.036321
    26  N   -0.251273
    27  C    0.002963
    28  C   -0.036897
    29  C    0.001994
    30  C   -0.034585
    31  C    0.070343
    32  C    0.035423
    33  C    0.008593
    34  N   -0.312399
    35  C    0.155433
    36  C   -0.183303
    37  C    0.080224
    38  C    0.061029
    39  C    0.144402
    40  C   -0.023047
    41  O   -0.175203
    42  C    0.002822
    43  C    0.198275
    44  O   -0.241686
    45  O   -0.321706
    46  C    0.190554
    47  C    0.289878
    48  C   -0.172370
    49  C   -0.132042
    50  C    0.092121
    51  C    0.048386
    52  C    0.014364
    53  C    0.056282
    54  C   -0.129016
    55  C    0.034544
    56  C    0.090793
    57  C   -0.018805
    58  C    0.059552
    59  C   -0.129702
    60  C    0.050097
    61  C    0.066404
    62  C    0.024324
    63  C    0.019394
    64  C   -0.143545
    65  C    0.048241
    66  C    0.057707
    67  H   -0.033548
    68  H   -0.010824
    69  H   -0.035122
    70  H    0.044056
    71  H    0.006087
    72  H    0.020969
    73  H    0.014541
    74  H    0.031772
    75  H    0.009873
    76  H    0.020840
    77  H    0.024368
    78  H    0.036309
    79  H    0.037257
    80  H    0.007055
    81  H    0.044847
    82  H    0.040445
    83  H    0.049147
    84  H    0.020990
    85  H    0.008279
    86  H    0.002489
    87  H    0.016668
    88  H    0.005012
    89  H    0.027967
    90  H    0.006402
    91  H    0.007628
    92  H    0.009889
    93  H    0.017674
    94  H    0.021257
    95  H    0.036605
    96  H    0.041580
    97  H   -0.001963
    98  H    0.040264
    99  H    0.034118
   100  H    0.032287
   101  H    0.025229
   102  H    0.040613
   103  H    0.000333
   104  H    0.001761
   105  H    0.030127
   106  H    0.029137
   107  H    0.018185
   108  H    0.004628
   109  H   -0.023717
   110  H    0.003637
   111  H    0.012151
   112  H   -0.017576
   113  H    0.007419
   114  H   -0.001621
   115  H    0.001822
   116  H    0.026553
   117  H   -0.011051
   118  H   -0.002634
   119  H   -0.013368
   120  H   -0.009321
   121  H    0.010609
   122  H   -0.006873
   123  H   -0.002526
   124  H   -0.008075
   125  H    0.001229
   126  H    0.001205
   127  H    0.010524
   128  H   -0.002765
   129  H   -0.021961
   130  H   -0.014589
   131  H   -0.022057
   132  H   -0.009202
   133  H   -0.010300
   134  H   -0.009340
   135  H    0.001502
   136  H    0.015768
   137  H   -0.001116
   138  H    0.009535
   139  H    0.009577
   140  H   -0.001599
 Sum of Mulliken charges =  -0.00000

 Dipole moment (field-independent basis, Debye):
    X=             -3.6862    Y=              6.0269    Z=              2.0597  Tot=              7.3589
 Quadrupole moment (field-independent basis, Debye-Ang):
   XX=           -378.7568   YY=           -424.9819   ZZ=           -402.7513
   XY=              9.4751   XZ=              7.4882   YZ=            -14.1472

 Normal termination of Gaussian 16 at Wed May  4 15:23:23 2022.
