 Gaussian 16, Revision A.03,
 Gaussian 16:  ES64L-G16RevA.03 25-Dec-2016

 ---------------------------------
 #p PBE1PBE/Def2SVP td=(nstates=5)
 ---------------------------------

 ---------------------------------------------------
 step_1_chromophore_10 TDDFT with PBE1PBE functional
 ---------------------------------------------------
 Symbolic Z-matrix:
 Charge =  0 Multiplicity = 1

                         Standard orientation:
 ---------------------------------------------------------------------
 Center     Atomic      Atomic             Coordinates (Angstroms)
 Number     Number       Type             X           Y           Z
 ---------------------------------------------------------------------
      1         12           0        5.642850    0.619345    0.043823
      2          6           0        3.729846   -2.212988    0.059421
      3          6           0        3.038747    2.469145   -0.904436
      4          6           0        7.682505    3.155537   -0.129609
      5          6           0        8.448130   -1.538858    0.462296
      6          7           0        3.609733    0.149320   -0.552487
      7          6           0        3.012432   -1.016748   -0.201013
      8          6           0        1.513780   -0.891767   -0.167922
      9          6           0        1.323876    0.559724   -0.766174
     10          6           0        2.740428    1.088064   -0.832601
     11          6           0        0.547962    0.610681   -2.104203
     12          6           0        0.839324   -1.186732    1.307033
     13          6           0       -0.382402   -2.115078    1.383227
     14          6           0       -1.246813   -2.252828    0.090664
     15          8           0       -1.355131   -3.297783   -0.599296
     16          8           0       -1.873335   -1.118020   -0.288469
     17          7           0        5.374997    2.496838   -0.263445
     18          6           0        4.243979    3.139131   -0.655817
     19          6           0        4.453887    4.537093   -0.943690
     20          6           0        5.727542    4.788627   -0.531285
     21          6           0        6.345960    3.432405   -0.404566
     22          6           0        3.310517    5.289315   -1.599767
     23          6           0        6.465590    6.139137   -0.441690
     24          8           0        7.624793    6.257704   -0.119338
     25          6           0        5.623494    7.318439   -0.829891
     26          7           0        7.797345    0.720470   -0.014410
     27          6           0        8.347080    1.947303    0.032874
     28          6           0        9.862068    1.860018    0.242496
     29          6           0       10.060461    0.390649    0.747832
     30          6           0        8.694760   -0.210209    0.356577
     31          6           0       10.815591    2.237836   -0.969848
     32          6           0       10.289741    0.207755    2.295445
     33          6           0        9.298256    0.675484    3.328126
     34          7           0        6.101257   -1.441133    0.318741
     35          6           0        7.272193   -2.203082    0.385754
     36          6           0        6.978466   -3.637235    0.501100
     37          6           0        5.581241   -3.689663    0.385990
     38          6           0        5.140062   -2.332722    0.284624
     39          6           0        7.939022   -4.772084    0.748031
     40          6           0        4.468198   -4.522950    0.341246
     41          8           0        4.332696   -5.736407    0.357312
     42          6           0        3.213892   -3.611583    0.367402
     43          6           0        2.370955   -4.197982   -0.699692
     44          8           0        2.512320   -4.005746   -1.909769
     45          8           0        1.469864   -5.084444   -0.184981
     46          6           0        0.751096   -5.988585   -1.088315
     47          6           0       -2.929581   -1.171306   -1.251168
     48          6           0       -4.309110   -0.984087   -0.526530
     49          6           0       -5.088370   -2.045219   -0.228586
     50          6           0       -4.854837   -3.571840   -0.431916
     51          6           0       -6.457467   -1.716263    0.374140
     52          6           0       -7.369741   -1.145348   -0.751145
     53          6           0       -7.387957    0.422759   -0.586289
     54          6           0       -8.808817    0.872346   -0.215690
     55          6           0       -9.713517    0.910622   -1.489656
     56          6           0       -8.879083    2.190113    0.493207
     57          6           0       -9.696587    1.962638    1.800893
     58          6           0      -10.785573    3.030639    2.000055
     59          6           0      -12.195841    2.451622    2.336291
     60          6           0      -12.197358    1.835269    3.748173
     61          6           0      -12.735853    1.392014    1.344888
     62          6           0      -14.152982    1.613708    0.878137
     63          6           0      -14.380989    1.323760   -0.627023
     64          6           0      -15.033565   -0.023566   -0.939287
     65          6           0      -14.172863   -1.233295   -0.592414
     66          6           0      -15.537672   -0.062810   -2.402031
     67          1           0        2.133431    3.068633   -1.022427
     68          1           0        8.417132    3.962482   -0.117802
     69          1           0        9.388092   -2.070578    0.628745
     70          1           0        1.056697   -1.555459   -0.901956
     71          1           0        0.819391    1.180979   -0.026467
     72          1           0        1.257522    0.764606   -2.917089
     73          1           0       -0.130146    1.463658   -2.077292
     74          1           0        0.038908   -0.348155   -2.202912
     75          1           0        0.564373   -0.201825    1.684668
     76          1           0        1.564351   -1.657116    1.970491
     77          1           0       -1.106237   -1.726044    2.098845
     78          1           0       -0.083554   -3.085813    1.778601
     79          1           0        3.009622    4.914156   -2.578063
     80          1           0        3.450258    6.312069   -1.949324
     81          1           0        2.557839    5.243264   -0.812687
     82          1           0        4.717148    7.359477   -0.226241
     83          1           0        5.507001    7.163528   -1.902320
     84          1           0        6.014834    8.321399   -0.663305
     85          1           0       10.020622    2.623585    1.004859
     86          1           0       10.816898   -0.091643    0.128324
     87          1           0       10.211533    2.534489   -1.826956
     88          1           0       11.342826    1.357264   -1.334963
     89          1           0       11.578209    2.992704   -0.772328
     90          1           0       11.243135    0.727022    2.396230
     91          1           0       10.434905   -0.836785    2.569214
     92          1           0        8.526242    1.276509    2.845869
     93          1           0        9.784209    1.321536    4.059108
     94          1           0        8.733065   -0.099626    3.845296
     95          1           0        8.088056   -5.390299   -0.136127
     96          1           0        7.577548   -5.387692    1.571895
     97          1           0        8.882791   -4.256724    0.928125
     98          1           0        2.753935   -3.580688    1.355290
     99          1           0        0.430900   -6.902766   -0.587071
    100          1           0        1.279199   -6.129118   -2.030186
    101          1           0       -0.163669   -5.545876   -1.481988
    102          1           0       -3.115321   -2.032405   -1.893089
    103          1           0       -2.837145   -0.266408   -1.850678
    104          1           0       -4.615239    0.050007   -0.364113
    105          1           0       -4.505219   -3.990834    0.511435
    106          1           0       -4.087090   -3.823939   -1.163489
    107          1           0       -5.793214   -4.074212   -0.665892
    108          1           0       -6.416821   -1.102788    1.274301
    109          1           0       -6.934540   -2.574318    0.847787
    110          1           0       -8.342509   -1.582524   -0.524364
    111          1           0       -7.091341   -1.448754   -1.759902
    112          1           0       -7.203746    0.690031   -1.626167
    113          1           0       -6.569175    0.903519   -0.051350
    114          1           0       -9.307993    0.128798    0.406394
    115          1           0       -9.685802    1.874016   -1.998527
    116          1           0      -10.719268    0.536824   -1.296703
    117          1           0       -9.313064    0.312218   -2.307538
    118          1           0       -9.257016    2.977262   -0.159024
    119          1           0       -7.916322    2.576936    0.826229
    120          1           0       -8.952853    2.116536    2.582947
    121          1           0      -10.001520    0.942693    2.038106
    122          1           0      -10.935565    3.566821    1.062671
    123          1           0      -10.575720    3.769517    2.774073
    124          1           0      -12.858679    3.317319    2.332886
    125          1           0      -12.795475    0.925788    3.794333
    126          1           0      -12.698667    2.537818    4.414701
    127          1           0      -11.181252    1.635590    4.089027
    128          1           0      -12.639494    0.362990    1.691823
    129          1           0      -12.113476    1.408297    0.449732
    130          1           0      -14.635424    2.574970    1.055109
    131          1           0      -14.866077    1.001689    1.429710
    132          1           0      -13.374839    1.415224   -1.036633
    133          1           0      -14.959241    2.170068   -0.999378
    134          1           0      -15.900917   -0.146709   -0.291431
    135          1           0      -14.379364   -2.040091   -1.295370
    136          1           0      -14.323898   -1.553179    0.438899
    137          1           0      -13.129096   -0.957749   -0.738601
    138          1           0      -15.631578   -1.078311   -2.785426
    139          1           0      -14.989214    0.647969   -3.021552
    140          1           0      -16.535714    0.373105   -2.379353
 ---------------------------------------------------------------------

 SCF Done:  E(RPBE1PBE) =  -3005.34469928     A.U. after   15 cycles

 Excitation energies and oscillator strengths:

 Excited State   1:      Singlet-A      1.8952 eV  654.22 nm  f=0.3534  <S**2>=0.000
     245 -> 248        0.18637
     246 -> 247        0.68811
 This state for optimization and/or second-order correction.
 Total Energy, E(TD-HF/TD-DFT) =  -3005.27505380
 Copying the excited state density for this state as the 1-particle RhoCI density.

 Excited State   2:      Singlet-A      2.2581 eV  549.06 nm  f=0.0709  <S**2>=0.000
     245 -> 247        0.63603
     246 -> 248       -0.29869

 Excited State   3:      Singlet-A      3.0168 eV  410.98 nm  f=0.0083  <S**2>=0.000
     244 -> 247        0.65865
     244 -> 249       -0.17130
     244 -> 250        0.12276
     246 -> 248        0.11097

 Excited State   4:      Singlet-A      3.2200 eV  385.05 nm  f=0.3197  <S**2>=0.000
     243 -> 247        0.26023
     244 -> 247       -0.10614
     245 -> 247        0.23320
     245 -> 250        0.10012
     246 -> 248        0.56040
     246 -> 249        0.15837
     246 -> 250        0.10462

 Excited State   5:      Singlet-A      3.3481 eV  370.31 nm  f=0.0086  <S**2>=0.000
     241 -> 247        0.63450
     241 -> 249        0.18217
     243 -> 247       -0.14668

 The electronic state is 1-A.
 Alpha  occ. eigenvalues --  -46.91261 -19.26423 -19.23630 -19.19855 -19.19585
 Alpha  occ. eigenvalues --  -19.17876 -19.17845 -14.41098 -14.40460 -14.39439
 Alpha  occ. eigenvalues --  -14.38367 -10.37048 -10.34579 -10.32828 -10.30570
 Alpha  occ. eigenvalues --  -10.29410 -10.28271 -10.28190 -10.27973 -10.27725
 Alpha  occ. eigenvalues --  -10.27413 -10.26827 -10.26609 -10.26414 -10.26200
 Alpha  occ. eigenvalues --  -10.25966 -10.25888 -10.25793 -10.25716 -10.25599
 Alpha  occ. eigenvalues --  -10.25536 -10.25402 -10.25323 -10.25185 -10.25155
 Alpha  occ. eigenvalues --  -10.25005 -10.24946 -10.24721 -10.23984 -10.23900
 Alpha  occ. eigenvalues --  -10.23600 -10.23540 -10.23440 -10.23366 -10.23350
 Alpha  occ. eigenvalues --  -10.23255 -10.23226 -10.23197 -10.23091 -10.23032
 Alpha  occ. eigenvalues --  -10.22946 -10.22907 -10.22652 -10.22624 -10.22580
 Alpha  occ. eigenvalues --  -10.22422 -10.22267 -10.22092 -10.22077 -10.22019
 Alpha  occ. eigenvalues --  -10.21946 -10.21864 -10.21765 -10.21660 -10.21646
 Alpha  occ. eigenvalues --  -10.21391  -3.13688  -1.86496  -1.86078  -1.85945
 Alpha  occ. eigenvalues --   -1.11907  -1.08724  -1.06006  -1.03639  -1.01081
 Alpha  occ. eigenvalues --   -1.00085  -0.99899  -0.99188  -0.98725  -0.97667
 Alpha  occ. eigenvalues --   -0.86620  -0.84866  -0.83977  -0.83694  -0.83298
 Alpha  occ. eigenvalues --   -0.82872  -0.82598  -0.82152  -0.81713  -0.81662
 Alpha  occ. eigenvalues --   -0.80897  -0.79971  -0.78397  -0.77800  -0.77616
 Alpha  occ. eigenvalues --   -0.76762  -0.76703  -0.75514  -0.75079  -0.74383
 Alpha  occ. eigenvalues --   -0.73698  -0.73104  -0.71999  -0.71431  -0.70023
 Alpha  occ. eigenvalues --   -0.69745  -0.69587  -0.69231  -0.69009  -0.68482
 Alpha  occ. eigenvalues --   -0.68197  -0.67053  -0.65955  -0.65042  -0.63872
 Alpha  occ. eigenvalues --   -0.63418  -0.63140  -0.62015  -0.61053  -0.60660
 Alpha  occ. eigenvalues --   -0.60264  -0.59392  -0.59169  -0.58816  -0.58165
 Alpha  occ. eigenvalues --   -0.57929  -0.57153  -0.55804  -0.55689  -0.55419
 Alpha  occ. eigenvalues --   -0.54293  -0.53844  -0.53756  -0.52629  -0.52111
 Alpha  occ. eigenvalues --   -0.51917  -0.51160  -0.50744  -0.50090  -0.49597
 Alpha  occ. eigenvalues --   -0.49390  -0.49184  -0.48980  -0.48727  -0.48526
 Alpha  occ. eigenvalues --   -0.48128  -0.47845  -0.47612  -0.47385  -0.47142
 Alpha  occ. eigenvalues --   -0.46956  -0.46876  -0.46788  -0.46647  -0.46580
 Alpha  occ. eigenvalues --   -0.46131  -0.45894  -0.45568  -0.45411  -0.44891
 Alpha  occ. eigenvalues --   -0.44729  -0.44558  -0.44467  -0.44181  -0.44008
 Alpha  occ. eigenvalues --   -0.43764  -0.43460  -0.43376  -0.43227  -0.43118
 Alpha  occ. eigenvalues --   -0.43049  -0.42739  -0.42518  -0.42460  -0.42305
 Alpha  occ. eigenvalues --   -0.42066  -0.41683  -0.41590  -0.41466  -0.41369
 Alpha  occ. eigenvalues --   -0.41088  -0.40641  -0.40309  -0.40199  -0.40109
 Alpha  occ. eigenvalues --   -0.39939  -0.39779  -0.39667  -0.39616  -0.39332
 Alpha  occ. eigenvalues --   -0.39014  -0.38964  -0.38735  -0.38562  -0.38364
 Alpha  occ. eigenvalues --   -0.38173  -0.38104  -0.38025  -0.37885  -0.37836
 Alpha  occ. eigenvalues --   -0.37597  -0.37368  -0.37231  -0.37087  -0.36845
 Alpha  occ. eigenvalues --   -0.36644  -0.36406  -0.36109  -0.36051  -0.35881
 Alpha  occ. eigenvalues --   -0.35673  -0.35543  -0.35535  -0.35152  -0.34888
 Alpha  occ. eigenvalues --   -0.34718  -0.34341  -0.34263  -0.34102  -0.34044
 Alpha  occ. eigenvalues --   -0.33573  -0.33373  -0.33144  -0.33054  -0.31834
 Alpha  occ. eigenvalues --   -0.31532  -0.31519  -0.31325  -0.30618  -0.30220
 Alpha  occ. eigenvalues --   -0.29924  -0.29505  -0.29427  -0.29088  -0.29032
 Alpha  occ. eigenvalues --   -0.28608  -0.28173  -0.27624  -0.27094  -0.26239
 Alpha  occ. eigenvalues --   -0.26063  -0.25607  -0.25377  -0.24847  -0.20562
 Alpha  occ. eigenvalues --   -0.18169
 Alpha virt. eigenvalues --   -0.10330  -0.05125  -0.03805  -0.01720  -0.00580
 Alpha virt. eigenvalues --    0.00120   0.01036   0.01854   0.02447   0.03614
 Alpha virt. eigenvalues --    0.04519   0.05162   0.05187   0.05617   0.05661

 Mulliken charges:
               1
     1  Mg   1.005506
     2  C    0.021347
     3  C   -0.097822
     4  C   -0.064369
     5  C   -0.104365
     6  N   -0.368015
     7  C    0.028727
     8  C   -0.118415
     9  C   -0.169170
    10  C    0.092064
    11  C    0.033160
    12  C    0.021124
    13  C    0.008234
    14  C    0.209766
    15  O   -0.298432
    16  O   -0.335935
    17  N   -0.539729
    18  C    0.183275
    19  C   -0.147056
    20  C   -0.117204
    21  C    0.186127
    22  C    0.033737
    23  C    0.073019
    24  O   -0.210048
    25  C   -0.036997
    26  N   -0.356984
    27  C    0.029896
    28  C   -0.103670
    29  C   -0.083355
    30  C    0.010740
    31  C    0.013809
    32  C   -0.022677
    33  C   -0.066955
    34  N   -0.437036
    35  C    0.166962
    36  C   -0.180220
    37  C    0.037307
    38  C    0.105828
    39  C    0.090881
    40  C    0.063389
    41  O   -0.218659
    42  C   -0.120335
    43  C    0.294283
    44  O   -0.276565
    45  O   -0.355659
    46  C    0.135945
    47  C    0.239624
    48  C   -0.178578
    49  C   -0.175231
    50  C    0.028603
    51  C   -0.011570
    52  C   -0.045963
    53  C   -0.001478
    54  C   -0.219913
    55  C   -0.025736
    56  C    0.046852
    57  C   -0.085916
    58  C    0.002882
    59  C   -0.212437
    60  C   -0.008476
    61  C   -0.002029
    62  C   -0.024881
    63  C   -0.042427
    64  C   -0.238204
    65  C   -0.012872
    66  C   -0.005298
    67  H   -0.002493
    68  H    0.020977
    69  H   -0.003202
    70  H    0.085524
    71  H    0.043094
    72  H    0.048909
    73  H    0.041021
    74  H    0.059800
    75  H    0.041851
    76  H    0.053105
    77  H    0.057103
    78  H    0.066867
    79  H    0.063150
    80  H    0.032667
    81  H    0.071317
    82  H    0.066985
    83  H    0.075927
    84  H    0.048022
    85  H    0.045130
    86  H    0.038801
    87  H    0.044881
    88  H    0.031676
    89  H    0.054332
    90  H    0.041062
    91  H    0.040090
    92  H    0.043202
    93  H    0.045866
    94  H    0.048463
    95  H    0.064968
    96  H    0.068929
    97  H    0.027740
    98  H    0.077795
    99  H    0.056163
   100  H    0.053430
   101  H    0.048768
   102  H    0.066872
   103  H    0.028775
   104  H    0.033042
   105  H    0.058574
   106  H    0.055151
   107  H    0.045112
   108  H    0.037171
   109  H    0.008719
   110  H    0.035576
   111  H    0.043690
   112  H    0.017654
   113  H    0.036561
   114  H    0.036773
   115  H    0.029044
   116  H    0.056038
   117  H    0.017412
   118  H    0.027144
   119  H    0.019280
   120  H    0.025127
   121  H    0.039971
   122  H    0.026650
   123  H    0.030248
   124  H    0.029540
   125  H    0.028892
   126  H    0.029447
   127  H    0.037819
   128  H    0.028429
   129  H    0.020184
   130  H    0.016598
   131  H    0.011250
   132  H    0.025236
   133  H    0.022691
   134  H    0.029387
   135  H    0.029298
   136  H    0.042060
   137  H    0.029621
   138  H    0.036155
   139  H    0.037166
   140  H    0.027319
 Sum of Mulliken charges =  -0.00000

 Dipole moment (field-independent basis, Debye):
    X=             -3.6535    Y=              5.5146    Z=              2.1777  Tot=              6.9643
 Quadrupole moment (field-independent basis, Debye-Ang):
   XX=           -371.4322   YY=           -422.7897   ZZ=           -400.1885
   XY=              6.3555   XZ=              8.6177   YZ=            -14.1116

 Normal termination of Gaussian 16 at Wed May  4 15:46:03 2022.
