 Gaussian 16, Revision A.03,
 Gaussian 16:  ES64L-G16RevA.03 25-Dec-2016

 --------------------------------
 #p wB97XD/Def2SVP td=(nstates=5)
 --------------------------------

 --------------------------------------------------
 step_1_chromophore_10 TDDFT with wB97XD functional
 --------------------------------------------------
 Symbolic Z-matrix:
 Charge =  0 Multiplicity = 1

                         Standard orientation:
 ---------------------------------------------------------------------
 Center     Atomic      Atomic             Coordinates (Angstroms)
 Number     Number       Type             X           Y           Z
 ---------------------------------------------------------------------
      1         12           0        5.642850    0.619345    0.043823
      2          6           0        3.729846   -2.212988    0.059421
      3          6           0        3.038747    2.469145   -0.904436
      4          6           0        7.682505    3.155537   -0.129609
      5          6           0        8.448130   -1.538858    0.462296
      6          7           0        3.609733    0.149320   -0.552487
      7          6           0        3.012432   -1.016748   -0.201013
      8          6           0        1.513780   -0.891767   -0.167922
      9          6           0        1.323876    0.559724   -0.766174
     10          6           0        2.740428    1.088064   -0.832601
     11          6           0        0.547962    0.610681   -2.104203
     12          6           0        0.839324   -1.186732    1.307033
     13          6           0       -0.382402   -2.115078    1.383227
     14          6           0       -1.246813   -2.252828    0.090664
     15          8           0       -1.355131   -3.297783   -0.599296
     16          8           0       -1.873335   -1.118020   -0.288469
     17          7           0        5.374997    2.496838   -0.263445
     18          6           0        4.243979    3.139131   -0.655817
     19          6           0        4.453887    4.537093   -0.943690
     20          6           0        5.727542    4.788627   -0.531285
     21          6           0        6.345960    3.432405   -0.404566
     22          6           0        3.310517    5.289315   -1.599767
     23          6           0        6.465590    6.139137   -0.441690
     24          8           0        7.624793    6.257704   -0.119338
     25          6           0        5.623494    7.318439   -0.829891
     26          7           0        7.797345    0.720470   -0.014410
     27          6           0        8.347080    1.947303    0.032874
     28          6           0        9.862068    1.860018    0.242496
     29          6           0       10.060461    0.390649    0.747832
     30          6           0        8.694760   -0.210209    0.356577
     31          6           0       10.815591    2.237836   -0.969848
     32          6           0       10.289741    0.207755    2.295445
     33          6           0        9.298256    0.675484    3.328126
     34          7           0        6.101257   -1.441133    0.318741
     35          6           0        7.272193   -2.203082    0.385754
     36          6           0        6.978466   -3.637235    0.501100
     37          6           0        5.581241   -3.689663    0.385990
     38          6           0        5.140062   -2.332722    0.284624
     39          6           0        7.939022   -4.772084    0.748031
     40          6           0        4.468198   -4.522950    0.341246
     41          8           0        4.332696   -5.736407    0.357312
     42          6           0        3.213892   -3.611583    0.367402
     43          6           0        2.370955   -4.197982   -0.699692
     44          8           0        2.512320   -4.005746   -1.909769
     45          8           0        1.469864   -5.084444   -0.184981
     46          6           0        0.751096   -5.988585   -1.088315
     47          6           0       -2.929581   -1.171306   -1.251168
     48          6           0       -4.309110   -0.984087   -0.526530
     49          6           0       -5.088370   -2.045219   -0.228586
     50          6           0       -4.854837   -3.571840   -0.431916
     51          6           0       -6.457467   -1.716263    0.374140
     52          6           0       -7.369741   -1.145348   -0.751145
     53          6           0       -7.387957    0.422759   -0.586289
     54          6           0       -8.808817    0.872346   -0.215690
     55          6           0       -9.713517    0.910622   -1.489656
     56          6           0       -8.879083    2.190113    0.493207
     57          6           0       -9.696587    1.962638    1.800893
     58          6           0      -10.785573    3.030639    2.000055
     59          6           0      -12.195841    2.451622    2.336291
     60          6           0      -12.197358    1.835269    3.748173
     61          6           0      -12.735853    1.392014    1.344888
     62          6           0      -14.152982    1.613708    0.878137
     63          6           0      -14.380989    1.323760   -0.627023
     64          6           0      -15.033565   -0.023566   -0.939287
     65          6           0      -14.172863   -1.233295   -0.592414
     66          6           0      -15.537672   -0.062810   -2.402031
     67          1           0        2.133431    3.068633   -1.022427
     68          1           0        8.417132    3.962482   -0.117802
     69          1           0        9.388092   -2.070578    0.628745
     70          1           0        1.056697   -1.555459   -0.901956
     71          1           0        0.819391    1.180979   -0.026467
     72          1           0        1.257522    0.764606   -2.917089
     73          1           0       -0.130146    1.463658   -2.077292
     74          1           0        0.038908   -0.348155   -2.202912
     75          1           0        0.564373   -0.201825    1.684668
     76          1           0        1.564351   -1.657116    1.970491
     77          1           0       -1.106237   -1.726044    2.098845
     78          1           0       -0.083554   -3.085813    1.778601
     79          1           0        3.009622    4.914156   -2.578063
     80          1           0        3.450258    6.312069   -1.949324
     81          1           0        2.557839    5.243264   -0.812687
     82          1           0        4.717148    7.359477   -0.226241
     83          1           0        5.507001    7.163528   -1.902320
     84          1           0        6.014834    8.321399   -0.663305
     85          1           0       10.020622    2.623585    1.004859
     86          1           0       10.816898   -0.091643    0.128324
     87          1           0       10.211533    2.534489   -1.826956
     88          1           0       11.342826    1.357264   -1.334963
     89          1           0       11.578209    2.992704   -0.772328
     90          1           0       11.243135    0.727022    2.396230
     91          1           0       10.434905   -0.836785    2.569214
     92          1           0        8.526242    1.276509    2.845869
     93          1           0        9.784209    1.321536    4.059108
     94          1           0        8.733065   -0.099626    3.845296
     95          1           0        8.088056   -5.390299   -0.136127
     96          1           0        7.577548   -5.387692    1.571895
     97          1           0        8.882791   -4.256724    0.928125
     98          1           0        2.753935   -3.580688    1.355290
     99          1           0        0.430900   -6.902766   -0.587071
    100          1           0        1.279199   -6.129118   -2.030186
    101          1           0       -0.163669   -5.545876   -1.481988
    102          1           0       -3.115321   -2.032405   -1.893089
    103          1           0       -2.837145   -0.266408   -1.850678
    104          1           0       -4.615239    0.050007   -0.364113
    105          1           0       -4.505219   -3.990834    0.511435
    106          1           0       -4.087090   -3.823939   -1.163489
    107          1           0       -5.793214   -4.074212   -0.665892
    108          1           0       -6.416821   -1.102788    1.274301
    109          1           0       -6.934540   -2.574318    0.847787
    110          1           0       -8.342509   -1.582524   -0.524364
    111          1           0       -7.091341   -1.448754   -1.759902
    112          1           0       -7.203746    0.690031   -1.626167
    113          1           0       -6.569175    0.903519   -0.051350
    114          1           0       -9.307993    0.128798    0.406394
    115          1           0       -9.685802    1.874016   -1.998527
    116          1           0      -10.719268    0.536824   -1.296703
    117          1           0       -9.313064    0.312218   -2.307538
    118          1           0       -9.257016    2.977262   -0.159024
    119          1           0       -7.916322    2.576936    0.826229
    120          1           0       -8.952853    2.116536    2.582947
    121          1           0      -10.001520    0.942693    2.038106
    122          1           0      -10.935565    3.566821    1.062671
    123          1           0      -10.575720    3.769517    2.774073
    124          1           0      -12.858679    3.317319    2.332886
    125          1           0      -12.795475    0.925788    3.794333
    126          1           0      -12.698667    2.537818    4.414701
    127          1           0      -11.181252    1.635590    4.089027
    128          1           0      -12.639494    0.362990    1.691823
    129          1           0      -12.113476    1.408297    0.449732
    130          1           0      -14.635424    2.574970    1.055109
    131          1           0      -14.866077    1.001689    1.429710
    132          1           0      -13.374839    1.415224   -1.036633
    133          1           0      -14.959241    2.170068   -0.999378
    134          1           0      -15.900917   -0.146709   -0.291431
    135          1           0      -14.379364   -2.040091   -1.295370
    136          1           0      -14.323898   -1.553179    0.438899
    137          1           0      -13.129096   -0.957749   -0.738601
    138          1           0      -15.631578   -1.078311   -2.785426
    139          1           0      -14.989214    0.647969   -3.021552
    140          1           0      -16.535714    0.373105   -2.379353
 ---------------------------------------------------------------------

 SCF Done:  E(RwB97XD) =  -3007.86039480     A.U. after   19 cycles

 Excitation energies and oscillator strengths:

 Excited State   1:      Singlet-A      1.7212 eV  720.34 nm  f=0.3627  <S**2>=0.000
     245 -> 248        0.19615
     246 -> 247        0.67971
     245 <- 248        0.11422
 This state for optimization and/or second-order correction.
 Total Energy, E(TD-HF/TD-DFT) =  -3007.79714184
 Copying the excited state density for this state as the 1-particle RhoCI density.

 Excited State   2:      Singlet-A      2.2235 eV  557.62 nm  f=0.0597  <S**2>=0.000
     245 -> 247        0.61427
     246 -> 248       -0.33937

 Excited State   3:      Singlet-A      3.4290 eV  361.58 nm  f=0.7012  <S**2>=0.000
     243 -> 247        0.11559
     245 -> 247        0.32192
     246 -> 248        0.59857
     245 <- 247       -0.11125

 Excited State   4:      Singlet-A      3.5897 eV  345.39 nm  f=0.0329  <S**2>=0.000
     243 -> 247        0.52297
     243 -> 249       -0.29319
     243 -> 250        0.26647
     244 -> 247       -0.10864
     246 -> 248       -0.11173

 Excited State   5:      Singlet-A      3.7700 eV  328.87 nm  f=0.0621  <S**2>=0.000
     240 -> 247        0.20080
     241 -> 247       -0.20941
     243 -> 247        0.12108
     244 -> 247        0.55949
     245 -> 248       -0.11741
     246 -> 249       -0.16304

 The electronic state is 1-A.
 Alpha  occ. eigenvalues --  -46.94217 -19.30977 -19.28128 -19.24919 -19.24234
 Alpha  occ. eigenvalues --  -19.22513 -19.22447 -14.46216 -14.45541 -14.44556
 Alpha  occ. eigenvalues --  -14.43211 -10.43822 -10.41357 -10.39891 -10.37273
 Alpha  occ. eigenvalues --  -10.35890 -10.34842 -10.34519 -10.34418 -10.34194
 Alpha  occ. eigenvalues --  -10.34135 -10.33030 -10.32868 -10.32814 -10.32562
 Alpha  occ. eigenvalues --  -10.32293 -10.32133 -10.32126 -10.31906 -10.31880
 Alpha  occ. eigenvalues --  -10.31836 -10.31765 -10.31686 -10.31566 -10.31525
 Alpha  occ. eigenvalues --  -10.31468 -10.31277 -10.31053 -10.30488 -10.30366
 Alpha  occ. eigenvalues --  -10.30118 -10.29975 -10.29831 -10.29685 -10.29684
 Alpha  occ. eigenvalues --  -10.29616 -10.29588 -10.29524 -10.29455 -10.29422
 Alpha  occ. eigenvalues --  -10.29231 -10.29191 -10.28985 -10.28950 -10.28913
 Alpha  occ. eigenvalues --  -10.28773 -10.28626 -10.28497 -10.28438 -10.28375
 Alpha  occ. eigenvalues --  -10.28337 -10.28138 -10.28083 -10.28081 -10.27916
 Alpha  occ. eigenvalues --  -10.27827  -3.20476  -1.94038  -1.93621  -1.93486
 Alpha  occ. eigenvalues --   -1.19272  -1.16064  -1.13713  -1.10940  -1.08422
 Alpha  occ. eigenvalues --   -1.07576  -1.07228  -1.06675  -1.06007  -1.04902
 Alpha  occ. eigenvalues --   -0.94122  -0.92517  -0.91643  -0.91516  -0.90950
 Alpha  occ. eigenvalues --   -0.90519  -0.90255  -0.89770  -0.89320  -0.89298
 Alpha  occ. eigenvalues --   -0.88386  -0.87614  -0.86047  -0.85361  -0.85298
 Alpha  occ. eigenvalues --   -0.84551  -0.84408  -0.83196  -0.82718  -0.81996
 Alpha  occ. eigenvalues --   -0.81358  -0.80909  -0.79565  -0.78997  -0.77627
 Alpha  occ. eigenvalues --   -0.77448  -0.77232  -0.76801  -0.76684  -0.76153
 Alpha  occ. eigenvalues --   -0.75810  -0.74524  -0.73527  -0.72672  -0.71416
 Alpha  occ. eigenvalues --   -0.71067  -0.70680  -0.69628  -0.68676  -0.68291
 Alpha  occ. eigenvalues --   -0.67797  -0.66824  -0.66655  -0.66429  -0.65614
 Alpha  occ. eigenvalues --   -0.65379  -0.64809  -0.63411  -0.63161  -0.62925
 Alpha  occ. eigenvalues --   -0.61811  -0.61331  -0.61127  -0.59917  -0.59484
 Alpha  occ. eigenvalues --   -0.59426  -0.58625  -0.58205  -0.57561  -0.57013
 Alpha  occ. eigenvalues --   -0.56810  -0.56633  -0.56400  -0.56207  -0.56039
 Alpha  occ. eigenvalues --   -0.55559  -0.55269  -0.54976  -0.54739  -0.54540
 Alpha  occ. eigenvalues --   -0.54389  -0.54325  -0.54227  -0.53981  -0.53937
 Alpha  occ. eigenvalues --   -0.53511  -0.53320  -0.52906  -0.52774  -0.52289
 Alpha  occ. eigenvalues --   -0.52078  -0.51898  -0.51763  -0.51510  -0.51412
 Alpha  occ. eigenvalues --   -0.51145  -0.50759  -0.50688  -0.50527  -0.50408
 Alpha  occ. eigenvalues --   -0.50370  -0.50044  -0.49795  -0.49731  -0.49690
 Alpha  occ. eigenvalues --   -0.49342  -0.48929  -0.48810  -0.48689  -0.48629
 Alpha  occ. eigenvalues --   -0.48284  -0.47784  -0.47465  -0.47386  -0.47265
 Alpha  occ. eigenvalues --   -0.47041  -0.46977  -0.46864  -0.46807  -0.46476
 Alpha  occ. eigenvalues --   -0.46168  -0.46100  -0.45869  -0.45706  -0.45519
 Alpha  occ. eigenvalues --   -0.45456  -0.45325  -0.45230  -0.45048  -0.44972
 Alpha  occ. eigenvalues --   -0.44721  -0.44479  -0.44369  -0.44181  -0.43873
 Alpha  occ. eigenvalues --   -0.43724  -0.43560  -0.43211  -0.43132  -0.42948
 Alpha  occ. eigenvalues --   -0.42740  -0.42604  -0.42548  -0.42219  -0.41969
 Alpha  occ. eigenvalues --   -0.41776  -0.41361  -0.41295  -0.41092  -0.41063
 Alpha  occ. eigenvalues --   -0.40638  -0.40290  -0.40141  -0.39966  -0.38913
 Alpha  occ. eigenvalues --   -0.38581  -0.38499  -0.38255  -0.37622  -0.37166
 Alpha  occ. eigenvalues --   -0.36856  -0.36354  -0.36286  -0.36045  -0.35957
 Alpha  occ. eigenvalues --   -0.35335  -0.35230  -0.34586  -0.34202  -0.33336
 Alpha  occ. eigenvalues --   -0.32826  -0.32341  -0.31804  -0.31719  -0.25657
 Alpha  occ. eigenvalues --   -0.22333
 Alpha virt. eigenvalues --   -0.06059   0.00247   0.02412   0.04729   0.05924
 Alpha virt. eigenvalues --    0.06299   0.07807   0.08620   0.09275   0.09906
 Alpha virt. eigenvalues --    0.11002   0.11796   0.11996   0.12360   0.12426

 Mulliken charges:
               1
     1  Mg   0.993004
     2  C    0.011216
     3  C   -0.117564
     4  C   -0.081096
     5  C   -0.116921
     6  N   -0.330414
     7  C   -0.000187
     8  C   -0.090816
     9  C   -0.142920
    10  C    0.075857
    11  C    0.046175
    12  C    0.031577
    13  C    0.023513
    14  C    0.193629
    15  O   -0.292963
    16  O   -0.333305
    17  N   -0.509783
    18  C    0.179740
    19  C   -0.131559
    20  C   -0.119942
    21  C    0.182714
    22  C    0.046481
    23  C    0.071489
    24  O   -0.202044
    25  C   -0.025106
    26  N   -0.321265
    27  C    0.020733
    28  C   -0.085938
    29  C   -0.050141
    30  C   -0.008245
    31  C    0.024243
    32  C   -0.010709
    33  C   -0.046719
    34  N   -0.398646
    35  C    0.159862
    36  C   -0.187158
    37  C    0.036227
    38  C    0.089972
    39  C    0.104861
    40  C    0.050456
    41  O   -0.211917
    42  C   -0.073817
    43  C    0.266975
    44  O   -0.270233
    45  O   -0.353015
    46  C    0.151641
    47  C    0.257107
    48  C   -0.190489
    49  C   -0.160834
    50  C    0.041911
    51  C    0.004784
    52  C   -0.030502
    53  C    0.016060
    54  C   -0.181955
    55  C   -0.011247
    56  C    0.055693
    57  C   -0.069431
    58  C    0.021973
    59  C   -0.184305
    60  C    0.001094
    61  C    0.031826
    62  C   -0.016356
    63  C   -0.021237
    64  C   -0.208063
    65  C    0.000468
    66  C    0.007816
    67  H   -0.008955
    68  H    0.016192
    69  H   -0.010632
    70  H    0.066484
    71  H    0.032142
    72  H    0.043829
    73  H    0.036146
    74  H    0.050711
    75  H    0.034729
    76  H    0.044388
    77  H    0.051703
    78  H    0.063163
    79  H    0.060389
    80  H    0.029293
    81  H    0.066148
    82  H    0.061247
    83  H    0.069375
    84  H    0.047747
    85  H    0.034811
    86  H    0.029164
    87  H    0.038300
    88  H    0.025873
    89  H    0.049994
    90  H    0.032110
    91  H    0.032280
    92  H    0.028566
    93  H    0.040934
    94  H    0.043735
    95  H    0.059758
    96  H    0.063957
    97  H    0.019275
    98  H    0.068864
    99  H    0.053002
   100  H    0.049451
   101  H    0.043814
   102  H    0.060196
   103  H    0.024686
   104  H    0.028127
   105  H    0.053132
   106  H    0.049967
   107  H    0.039905
   108  H    0.028907
   109  H    0.002027
   110  H    0.026952
   111  H    0.035689
   112  H    0.006738
   113  H    0.025694
   114  H    0.018446
   115  H    0.022624
   116  H    0.047796
   117  H    0.010742
   118  H    0.017557
   119  H    0.012159
   120  H    0.017203
   121  H    0.029514
   122  H    0.015946
   123  H    0.023080
   124  H    0.018844
   125  H    0.022591
   126  H    0.024400
   127  H    0.031234
   128  H    0.018523
   129  H   -0.010929
   130  H    0.009810
   131  H    0.001259
   132  H    0.011712
   133  H    0.015499
   134  H    0.017731
   135  H    0.023522
   136  H    0.036902
   137  H    0.019133
   138  H    0.030748
   139  H    0.030918
   140  H    0.020776
 Sum of Mulliken charges =  -0.00000

 Dipole moment (field-independent basis, Debye):
    X=             -3.7823    Y=              6.1730    Z=              2.0808  Tot=              7.5327
 Quadrupole moment (field-independent basis, Debye-Ang):
   XX=           -374.1532   YY=           -420.3017   ZZ=           -399.7234
   XY=             10.0246   XZ=              7.9200   YZ=            -14.5699

 Normal termination of Gaussian 16 at Wed May  4 16:19:26 2022.
