 Gaussian 16, Revision A.03,
 Gaussian 16:  ES64L-G16RevA.03 25-Dec-2016

 --------------------
 #p ZINDO=(nstates=5)
 --------------------

 ---------------------------
 step_1_chromophore_10 ZINDO
 ---------------------------
 Symbolic Z-matrix:
 Charge =  0 Multiplicity = 1

                         Standard orientation:
 ---------------------------------------------------------------------
 Center     Atomic      Atomic             Coordinates (Angstroms)
 Number     Number       Type             X           Y           Z
 ---------------------------------------------------------------------
      1         12           0        5.642850    0.619345    0.043823
      2          6           0        3.729846   -2.212988    0.059421
      3          6           0        3.038747    2.469145   -0.904436
      4          6           0        7.682505    3.155537   -0.129609
      5          6           0        8.448130   -1.538858    0.462296
      6          7           0        3.609733    0.149320   -0.552487
      7          6           0        3.012432   -1.016748   -0.201013
      8          6           0        1.513780   -0.891767   -0.167922
      9          6           0        1.323876    0.559724   -0.766174
     10          6           0        2.740428    1.088064   -0.832601
     11          6           0        0.547962    0.610681   -2.104203
     12          6           0        0.839324   -1.186732    1.307033
     13          6           0       -0.382402   -2.115078    1.383227
     14          6           0       -1.246813   -2.252828    0.090664
     15          8           0       -1.355131   -3.297783   -0.599296
     16          8           0       -1.873335   -1.118020   -0.288469
     17          7           0        5.374997    2.496838   -0.263445
     18          6           0        4.243979    3.139131   -0.655817
     19          6           0        4.453887    4.537093   -0.943690
     20          6           0        5.727542    4.788627   -0.531285
     21          6           0        6.345960    3.432405   -0.404566
     22          6           0        3.310517    5.289315   -1.599767
     23          6           0        6.465590    6.139137   -0.441690
     24          8           0        7.624793    6.257704   -0.119338
     25          6           0        5.623494    7.318439   -0.829891
     26          7           0        7.797345    0.720470   -0.014410
     27          6           0        8.347080    1.947303    0.032874
     28          6           0        9.862068    1.860018    0.242496
     29          6           0       10.060461    0.390649    0.747832
     30          6           0        8.694760   -0.210209    0.356577
     31          6           0       10.815591    2.237836   -0.969848
     32          6           0       10.289741    0.207755    2.295445
     33          6           0        9.298256    0.675484    3.328126
     34          7           0        6.101257   -1.441133    0.318741
     35          6           0        7.272193   -2.203082    0.385754
     36          6           0        6.978466   -3.637235    0.501100
     37          6           0        5.581241   -3.689663    0.385990
     38          6           0        5.140062   -2.332722    0.284624
     39          6           0        7.939022   -4.772084    0.748031
     40          6           0        4.468198   -4.522950    0.341246
     41          8           0        4.332696   -5.736407    0.357312
     42          6           0        3.213892   -3.611583    0.367402
     43          6           0        2.370955   -4.197982   -0.699692
     44          8           0        2.512320   -4.005746   -1.909769
     45          8           0        1.469864   -5.084444   -0.184981
     46          6           0        0.751096   -5.988585   -1.088315
     47          6           0       -2.929581   -1.171306   -1.251168
     48          6           0       -4.309110   -0.984087   -0.526530
     49          6           0       -5.088370   -2.045219   -0.228586
     50          6           0       -4.854837   -3.571840   -0.431916
     51          6           0       -6.457467   -1.716263    0.374140
     52          6           0       -7.369741   -1.145348   -0.751145
     53          6           0       -7.387957    0.422759   -0.586289
     54          6           0       -8.808817    0.872346   -0.215690
     55          6           0       -9.713517    0.910622   -1.489656
     56          6           0       -8.879083    2.190113    0.493207
     57          6           0       -9.696587    1.962638    1.800893
     58          6           0      -10.785573    3.030639    2.000055
     59          6           0      -12.195841    2.451622    2.336291
     60          6           0      -12.197358    1.835269    3.748173
     61          6           0      -12.735853    1.392014    1.344888
     62          6           0      -14.152982    1.613708    0.878137
     63          6           0      -14.380989    1.323760   -0.627023
     64          6           0      -15.033565   -0.023566   -0.939287
     65          6           0      -14.172863   -1.233295   -0.592414
     66          6           0      -15.537672   -0.062810   -2.402031
     67          1           0        2.133431    3.068633   -1.022427
     68          1           0        8.417132    3.962482   -0.117802
     69          1           0        9.388092   -2.070578    0.628745
     70          1           0        1.056697   -1.555459   -0.901956
     71          1           0        0.819391    1.180979   -0.026467
     72          1           0        1.257522    0.764606   -2.917089
     73          1           0       -0.130146    1.463658   -2.077292
     74          1           0        0.038908   -0.348155   -2.202912
     75          1           0        0.564373   -0.201825    1.684668
     76          1           0        1.564351   -1.657116    1.970491
     77          1           0       -1.106237   -1.726044    2.098845
     78          1           0       -0.083554   -3.085813    1.778601
     79          1           0        3.009622    4.914156   -2.578063
     80          1           0        3.450258    6.312069   -1.949324
     81          1           0        2.557839    5.243264   -0.812687
     82          1           0        4.717148    7.359477   -0.226241
     83          1           0        5.507001    7.163528   -1.902320
     84          1           0        6.014834    8.321399   -0.663305
     85          1           0       10.020622    2.623585    1.004859
     86          1           0       10.816898   -0.091643    0.128324
     87          1           0       10.211533    2.534489   -1.826956
     88          1           0       11.342826    1.357264   -1.334963
     89          1           0       11.578209    2.992704   -0.772328
     90          1           0       11.243135    0.727022    2.396230
     91          1           0       10.434905   -0.836785    2.569214
     92          1           0        8.526242    1.276509    2.845869
     93          1           0        9.784209    1.321536    4.059108
     94          1           0        8.733065   -0.099626    3.845296
     95          1           0        8.088056   -5.390299   -0.136127
     96          1           0        7.577548   -5.387692    1.571895
     97          1           0        8.882791   -4.256724    0.928125
     98          1           0        2.753935   -3.580688    1.355290
     99          1           0        0.430900   -6.902766   -0.587071
    100          1           0        1.279199   -6.129118   -2.030186
    101          1           0       -0.163669   -5.545876   -1.481988
    102          1           0       -3.115321   -2.032405   -1.893089
    103          1           0       -2.837145   -0.266408   -1.850678
    104          1           0       -4.615239    0.050007   -0.364113
    105          1           0       -4.505219   -3.990834    0.511435
    106          1           0       -4.087090   -3.823939   -1.163489
    107          1           0       -5.793214   -4.074212   -0.665892
    108          1           0       -6.416821   -1.102788    1.274301
    109          1           0       -6.934540   -2.574318    0.847787
    110          1           0       -8.342509   -1.582524   -0.524364
    111          1           0       -7.091341   -1.448754   -1.759902
    112          1           0       -7.203746    0.690031   -1.626167
    113          1           0       -6.569175    0.903519   -0.051350
    114          1           0       -9.307993    0.128798    0.406394
    115          1           0       -9.685802    1.874016   -1.998527
    116          1           0      -10.719268    0.536824   -1.296703
    117          1           0       -9.313064    0.312218   -2.307538
    118          1           0       -9.257016    2.977262   -0.159024
    119          1           0       -7.916322    2.576936    0.826229
    120          1           0       -8.952853    2.116536    2.582947
    121          1           0      -10.001520    0.942693    2.038106
    122          1           0      -10.935565    3.566821    1.062671
    123          1           0      -10.575720    3.769517    2.774073
    124          1           0      -12.858679    3.317319    2.332886
    125          1           0      -12.795475    0.925788    3.794333
    126          1           0      -12.698667    2.537818    4.414701
    127          1           0      -11.181252    1.635590    4.089027
    128          1           0      -12.639494    0.362990    1.691823
    129          1           0      -12.113476    1.408297    0.449732
    130          1           0      -14.635424    2.574970    1.055109
    131          1           0      -14.866077    1.001689    1.429710
    132          1           0      -13.374839    1.415224   -1.036633
    133          1           0      -14.959241    2.170068   -0.999378
    134          1           0      -15.900917   -0.146709   -0.291431
    135          1           0      -14.379364   -2.040091   -1.295370
    136          1           0      -14.323898   -1.553179    0.438899
    137          1           0      -13.129096   -0.957749   -0.738601
    138          1           0      -15.631578   -1.078311   -2.785426
    139          1           0      -14.989214    0.647969   -3.021552
    140          1           0      -16.535714    0.373105   -2.379353
 ---------------------------------------------------------------------

 SCF Done:  E(RZINDO/S) =  -474.694429864     A.U. after   20 cycles

 Excitation energies and oscillator strengths:

 Excited State   1:      Singlet-A      1.3120 eV  945.04 nm  f=0.5485  <S**2>=0.000
     175 ->178         0.19567
     176 ->177         0.66256
 This state for optimization and/or second-order correction.
 Total Energy, E(CIS/TDA) =  -474.646216503
 Copying the excited state density for this state as the 1-particle RhoCI density.

 Excited State   2:      Singlet-A      1.8918 eV  655.38 nm  f=0.0041  <S**2>=0.000
     175 ->177         0.49582
     176 ->178        -0.48109

 Excited State   3:      Singlet-A      2.8851 eV  429.74 nm  f=0.3779  <S**2>=0.000
     175 ->177        -0.28943
     176 ->178        -0.30846
     176 ->179         0.48642
     176 ->180         0.18244

 Excited State   4:      Singlet-A      2.9170 eV  425.04 nm  f=0.6496  <S**2>=0.000
     171 ->177         0.10991
     171 ->180         0.11326
     175 ->177         0.33153
     176 ->178         0.36163
     176 ->179         0.40354

 Excited State   5:      Singlet-A      2.9756 eV  416.67 nm  f=0.0457  <S**2>=0.000
     171 ->177         0.28935
     171 ->178        -0.10421
     171 ->179         0.30264
     171 ->180         0.32740
     171 ->181        -0.18583
     171 ->186         0.13631
     171 ->188         0.13320
     171 ->204        -0.13183
     176 ->178        -0.10554
     176 ->179        -0.14241

 The electronic state is 1-A.
 Alpha  occ. eigenvalues --   -1.85929  -1.84568  -1.82830  -1.74088  -1.72835
 Alpha  occ. eigenvalues --   -1.70699  -1.67224  -1.62117  -1.59945  -1.58212
 Alpha  occ. eigenvalues --   -1.56058  -1.50447  -1.47644  -1.46534  -1.45916
 Alpha  occ. eigenvalues --   -1.43275  -1.41852  -1.40942  -1.39316  -1.38329
 Alpha  occ. eigenvalues --   -1.36046  -1.34415  -1.33127  -1.32398  -1.30277
 Alpha  occ. eigenvalues --   -1.26110  -1.25743  -1.24318  -1.20579  -1.18735
 Alpha  occ. eigenvalues --   -1.16407  -1.16388  -1.15401  -1.13720  -1.13285
 Alpha  occ. eigenvalues --   -1.11989  -1.11395  -1.10616  -1.06047  -1.04316
 Alpha  occ. eigenvalues --   -1.03423  -1.01377  -1.00752  -0.98479  -0.98100
 Alpha  occ. eigenvalues --   -0.96358  -0.95944  -0.94520  -0.93371  -0.93308
 Alpha  occ. eigenvalues --   -0.91636  -0.90361  -0.89200  -0.87839  -0.86345
 Alpha  occ. eigenvalues --   -0.84895  -0.84270  -0.82238  -0.81230  -0.80636
 Alpha  occ. eigenvalues --   -0.79872  -0.78608  -0.77547  -0.76227  -0.75631
 Alpha  occ. eigenvalues --   -0.75503  -0.75304  -0.74702  -0.74653  -0.73985
 Alpha  occ. eigenvalues --   -0.73463  -0.72886  -0.72498  -0.71472  -0.70855
 Alpha  occ. eigenvalues --   -0.70247  -0.69540  -0.69106  -0.68634  -0.68065
 Alpha  occ. eigenvalues --   -0.67403  -0.66975  -0.66626  -0.65925  -0.65285
 Alpha  occ. eigenvalues --   -0.64908  -0.64778  -0.64062  -0.63842  -0.63484
 Alpha  occ. eigenvalues --   -0.62922  -0.62171  -0.61865  -0.61678  -0.61454
 Alpha  occ. eigenvalues --   -0.61144  -0.61042  -0.60708  -0.60294  -0.60070
 Alpha  occ. eigenvalues --   -0.59314  -0.58835  -0.58366  -0.58110  -0.57962
 Alpha  occ. eigenvalues --   -0.57576  -0.57320  -0.56887  -0.56773  -0.56315
 Alpha  occ. eigenvalues --   -0.55850  -0.55457  -0.55391  -0.54417  -0.54228
 Alpha  occ. eigenvalues --   -0.53933  -0.53797  -0.53421  -0.53303  -0.53022
 Alpha  occ. eigenvalues --   -0.52722  -0.52705  -0.51965  -0.51625  -0.51200
 Alpha  occ. eigenvalues --   -0.50869  -0.50693  -0.50437  -0.49843  -0.49698
 Alpha  occ. eigenvalues --   -0.49652  -0.49402  -0.49178  -0.48909  -0.48526
 Alpha  occ. eigenvalues --   -0.48429  -0.48218  -0.47769  -0.47703  -0.47509
 Alpha  occ. eigenvalues --   -0.47436  -0.47302  -0.47012  -0.46904  -0.46787
 Alpha  occ. eigenvalues --   -0.46594  -0.45795  -0.45450  -0.45009  -0.44961
 Alpha  occ. eigenvalues --   -0.44715  -0.44682  -0.44282  -0.43811  -0.43014
 Alpha  occ. eigenvalues --   -0.42900  -0.42511  -0.41979  -0.41612  -0.41272
 Alpha  occ. eigenvalues --   -0.41241  -0.40401  -0.39439  -0.38506  -0.38444
 Alpha  occ. eigenvalues --   -0.37284  -0.36707  -0.36640  -0.34547  -0.34260
 Alpha  occ. eigenvalues --   -0.33774  -0.32374  -0.32175  -0.31930  -0.26315
 Alpha  occ. eigenvalues --   -0.21127
 Alpha virt. eigenvalues --   -0.07441  -0.02095  -0.00441   0.01537   0.01695
 Alpha virt. eigenvalues --    0.02839   0.03307   0.04250   0.04843   0.05177
 Alpha virt. eigenvalues --    0.06543   0.07071   0.07800   0.08019   0.08203

 Mulliken charges:
               1
     1  Mg   0.431423
     2  C   -0.051168
     3  C   -0.108471
     4  C   -0.078568
     5  C   -0.048590
     6  N   -0.260124
     7  C    0.101713
     8  C   -0.006024
     9  C    0.002187
    10  C    0.162872
    11  C   -0.048082
    12  C   -0.023088
    13  C    0.012625
    14  C    0.465960
    15  O   -0.534727
    16  O   -0.255594
    17  N   -0.317934
    18  C    0.129113
    19  C    0.032070
    20  C   -0.035468
    21  C    0.146352
    22  C   -0.045485
    23  C    0.335321
    24  O   -0.502535
    25  C   -0.031182
    26  N   -0.270463
    27  C    0.156771
    28  C    0.003019
    29  C   -0.000175
    30  C    0.095455
    31  C   -0.052049
    32  C   -0.020596
    33  C   -0.047969
    34  N   -0.319244
    35  C    0.072492
    36  C    0.015595
    37  C   -0.061885
    38  C    0.111259
    39  C   -0.036858
    40  C    0.343968
    41  O   -0.535789
    42  C    0.057272
    43  C    0.497800
    44  O   -0.543789
    45  O   -0.266798
    46  C    0.072458
    47  C    0.097304
    48  C   -0.113088
    49  C    0.009990
    50  C   -0.037660
    51  C   -0.030054
    52  C   -0.030144
    53  C   -0.038430
    54  C   -0.004299
    55  C   -0.064457
    56  C   -0.030145
    57  C   -0.038663
    58  C   -0.032429
    59  C   -0.014833
    60  C   -0.058930
    61  C   -0.024905
    62  C   -0.041591
    63  C   -0.034468
    64  C   -0.004979
    65  C   -0.055459
    66  C   -0.061686
    67  H    0.016776
    68  H    0.034978
    69  H    0.011702
    70  H    0.048680
    71  H    0.023163
    72  H    0.026666
    73  H    0.019548
    74  H    0.036952
    75  H    0.024067
    76  H    0.028799
    77  H    0.032680
    78  H    0.044796
    79  H    0.037159
    80  H    0.020225
    81  H    0.038011
    82  H    0.034424
    83  H    0.044813
    84  H    0.032684
    85  H    0.027419
    86  H    0.033849
    87  H    0.021837
    88  H    0.018077
    89  H    0.029034
    90  H    0.010444
    91  H    0.020072
    92  H    0.016366
    93  H    0.018974
    94  H    0.024040
    95  H    0.037896
    96  H    0.040507
    97  H    0.019318
    98  H    0.055296
    99  H    0.039129
   100  H    0.050597
   101  H    0.036633
   102  H    0.067126
   103  H    0.025162
   104  H    0.038995
   105  H    0.031523
   106  H    0.035661
   107  H    0.026253
   108  H    0.022691
   109  H    0.005108
   110  H    0.015778
   111  H    0.030164
   112  H    0.007091
   113  H    0.033897
   114  H    0.024165
   115  H    0.019429
   116  H    0.022944
   117  H    0.008711
   118  H    0.024071
   119  H    0.012356
   120  H    0.003333
   121  H    0.034437
   122  H    0.011911
   123  H    0.020006
   124  H    0.016724
   125  H    0.017256
   126  H    0.012523
   127  H    0.022943
   128  H    0.022278
   129  H    0.011838
   130  H    0.016988
   131  H    0.008700
   132  H    0.019766
   133  H    0.012968
   134  H    0.015601
   135  H    0.018178
   136  H    0.020655
   137  H    0.014911
   138  H    0.026114
   139  H    0.023703
   140  H    0.008286
 Sum of Mulliken charges =  -0.00000

 Dipole moment (field-independent basis, Debye):
    X=             -5.0744    Y=              9.5564    Z=              3.0382  Tot=             11.2385
 N-N= 4.353830526101D+03 E-N= 0.000000000000D+00  KE=-9.382923696391D+03
 Leave Link  601 at Wed May  4 16:31:29 2022, MaxMem=  6710886400 cpu:               0.8 elap:               0.0
 (Enter /sw/apps/gaussian-16.0/g16/l9999.exe)
 1\1\GINC-BP1-COMPUTE100\SP\RZINDO CIS\STO-3G\C55H74Mg1N4O6\OF15641\04-
 May-2022\0\\#p ZINDO=(nstates=5)\\step_1_chromophore_10 ZINDO\\0,1\Mg,
 0,40.741,8.403,29.699\C,0,42.66,10.025,32.016\C,0,38.732,7.215,32.077\
 C,0,39.179,6.752,27.363\C,0,43.283,9.228,27.341\N,0,40.793,8.456,31.86
 8\C,0,41.505,9.392,32.544\C,0,40.948,9.635,33.92\C,0,39.853,8.497,34.0
 02\C,0,39.827,7.948,32.592\C,0,40.1,7.441,35.106\C,0,40.441,11.181,34.
 185\C,0,40.87,11.882,35.483\C,0,41.239,10.966,36.692\O,0,42.389,10.847

 Normal termination of Gaussian 16 at Wed May  4 16:31:29 2022.
