 Gaussian 16, Revision A.03,
 Gaussian 16:  ES64L-G16RevA.03 25-Dec-2016

 ------------------------------
 #p blyp/Def2SVP td=(nstates=5)
 ------------------------------

 ---------------------------------------------------
 step_1701_chromophore_15 TDDFT with blyp functional
 ---------------------------------------------------
 Symbolic Z-matrix:
 Charge =  0 Multiplicity = 1

                         Standard orientation:
 ---------------------------------------------------------------------
 Center     Atomic      Atomic             Coordinates (Angstroms)
 Number     Number       Type             X           Y           Z
 ---------------------------------------------------------------------
      1         12           0       -5.141540    1.084173    0.009716
      2          6           0       -4.181886   -2.281563    0.422673
      3          6           0       -1.805963    1.744628   -0.027200
      4          6           0       -5.990680    4.155097    0.098147
      5          6           0       -8.516516    0.055997    0.586224
      6          7           0       -3.178879   -0.207150    0.146735
      7          6           0       -3.048345   -1.539105    0.164528
      8          6           0       -1.645278   -1.973277   -0.192378
      9          6           0       -0.886950   -0.669858    0.108176
     10          6           0       -2.001314    0.394124    0.115250
     11          6           0        0.001574   -0.577516    1.377812
     12          6           0       -1.479945   -2.406330   -1.646809
     13          6           0       -0.418904   -3.577116   -1.845537
     14          6           0        0.696623   -3.886111   -0.858300
     15          8           0        0.736777   -4.741038    0.007657
     16          8           0        1.769763   -3.035997   -1.100288
     17          7           0       -4.091346    2.686551   -0.156596
     18          6           0       -2.711241    2.810067   -0.252153
     19          6           0       -2.379057    4.205748   -0.568810
     20          6           0       -3.615052    4.918121   -0.437835
     21          6           0       -4.624910    3.946202   -0.148362
     22          6           0       -0.947353    4.738795   -0.901626
     23          6           0       -3.768470    6.402414   -0.615134
     24          8           0       -4.849173    6.962091   -0.486613
     25          6           0       -2.558233    7.312849   -0.966679
     26          7           0       -7.018227    1.959770    0.252640
     27          6           0       -7.103341    3.312723    0.263433
     28          6           0       -8.565453    3.749426    0.410984
     29          6           0       -9.352957    2.400509    0.331478
     30          6           0       -8.265069    1.389500    0.347185
     31          6           0       -8.797018    4.722896    1.575871
     32          6           0      -10.393179    2.016666   -0.823652
     33          6           0      -11.641289    1.282905   -0.346501
     34          7           0       -6.233658   -0.724672    0.351496
     35          6           0       -7.569890   -1.003555    0.587291
     36          6           0       -7.805553   -2.411290    0.811279
     37          6           0       -6.485543   -2.940734    0.809670
     38          6           0       -5.585150   -1.905915    0.439599
     39          6           0       -9.152863   -3.107586    0.864914
     40          6           0       -5.642911   -4.123268    0.980158
     41          8           0       -5.985744   -5.189831    1.381263
     42          6           0       -4.176369   -3.743790    0.926454
     43          6           0       -3.463841   -4.889711    0.127871
     44          8           0       -3.607826   -5.112750   -1.064898
     45          8           0       -3.019259   -5.815590    1.118045
     46          6           0       -2.566199   -7.037565    0.483259
     47          6           0        3.076433   -3.487545   -0.589863
     48          6           0        3.967740   -2.775300   -1.624136
     49          6           0        5.368429   -2.784539   -1.683110
     50          6           0        6.166535   -3.770668   -0.814964
     51          6           0        6.097451   -1.978647   -2.683636
     52          6           0        6.904498   -0.795011   -2.059643
     53          6           0        8.427570   -0.646203   -2.568347
     54          6           0        8.802052    0.790359   -2.907732
     55          6           0        9.477376    0.818283   -4.297601
     56          6           0        9.791047    1.424060   -1.912996
     57          6           0       10.977386    0.534345   -1.405855
     58          6           0       12.326722    1.240175   -1.344190
     59          6           0       12.438898    2.233279   -0.142014
     60          6           0       13.366047    3.454663   -0.499379
     61          6           0       12.792580    1.490389    1.188669
     62          6           0       11.822278    1.742130    2.295747
     63          6           0       12.244048    0.972687    3.619502
     64          6           0       10.964943    0.495227    4.350879
     65          6           0       10.083723    1.785587    4.682641
     66          6           0       11.334223   -0.587423    5.417915
     67          1           0       -0.750979    2.009164    0.072068
     68          1           0       -6.295777    5.200828    0.183447
     69          1           0       -9.542071   -0.213927    0.843598
     70          1           0       -1.302481   -2.763343    0.475846
     71          1           0       -0.202671   -0.511512   -0.725287
     72          1           0       -0.067835    0.419384    1.811284
     73          1           0        1.035976   -0.828904    1.143727
     74          1           0       -0.298953   -1.287570    2.148782
     75          1           0       -1.223634   -1.561752   -2.286078
     76          1           0       -2.417360   -2.861970   -1.962844
     77          1           0        0.053194   -3.598055   -2.827473
     78          1           0       -1.062438   -4.452628   -1.928114
     79          1           0       -0.422523    5.220599   -0.077051
     80          1           0       -0.902523    5.425952   -1.746635
     81          1           0       -0.268334    3.912029   -1.112852
     82          1           0       -2.043146    7.108631   -1.905377
     83          1           0       -1.868649    7.367650   -0.123385
     84          1           0       -2.887729    8.347864   -1.053247
     85          1           0       -8.802413    4.349744   -0.467487
     86          1           0       -9.938598    2.215745    1.232583
     87          1           0       -7.879285    4.832953    2.152278
     88          1           0       -9.654032    4.478633    2.203376
     89          1           0       -9.063974    5.733046    1.265775
     90          1           0      -10.007756    1.339346   -1.585764
     91          1           0      -10.607079    2.965499   -1.315534
     92          1           0      -12.445903    1.927691   -0.699575
     93          1           0      -11.714997    0.972103    0.694765
     94          1           0      -11.644270    0.296117   -0.810491
     95          1           0       -9.165191   -4.088445    0.390849
     96          1           0       -9.882136   -2.500128    0.328658
     97          1           0       -9.544112   -3.293749    1.865165
     98          1           0       -3.847101   -3.802972    1.963493
     99          1           0       -2.198039   -7.672811    1.287751
    100          1           0       -1.726328   -6.815784   -0.175321
    101          1           0       -3.161758   -7.651529   -0.191877
    102          1           0        3.125131   -4.576541   -0.605294
    103          1           0        3.287742   -3.089443    0.402069
    104          1           0        3.417905   -2.175274   -2.347909
    105          1           0        6.567977   -4.543916   -1.469720
    106          1           0        5.515877   -4.197241   -0.052618
    107          1           0        6.975249   -3.225107   -0.328993
    108          1           0        5.458742   -1.612903   -3.487447
    109          1           0        6.752232   -2.726449   -3.132025
    110          1           0        6.916519   -0.998168   -0.988507
    111          1           0        6.328783    0.124215   -2.174523
    112          1           0        8.511190   -1.327133   -3.415093
    113          1           0        9.121105   -1.085443   -1.851505
    114          1           0        7.941805    1.457807   -2.858769
    115          1           0        9.853243   -0.180391   -4.521315
    116          1           0       10.331501    1.489531   -4.390048
    117          1           0        8.779789    1.111911   -5.082081
    118          1           0        9.202088    1.542895   -1.003260
    119          1           0       10.189531    2.389909   -2.223697
    120          1           0       11.168606   -0.365868   -1.989931
    121          1           0       10.844656    0.122399   -0.405883
    122          1           0       12.430028    1.834423   -2.252067
    123          1           0       13.228536    0.628199   -1.356588
    124          1           0       11.406039    2.544351    0.016180
    125          1           0       13.853705    3.323767   -1.465566
    126          1           0       14.120512    3.665812    0.258207
    127          1           0       12.568066    4.190884   -0.597146
    128          1           0       13.664881    2.013711    1.581120
    129          1           0       13.144533    0.465054    1.070711
    130          1           0       10.825608    1.502715    1.924894
    131          1           0       11.723759    2.794345    2.561669
    132          1           0       12.822779    1.563332    4.329481
    133          1           0       12.856759    0.124806    3.312843
    134          1           0       10.338815   -0.029448    3.630389
    135          1           0        9.649112    1.676059    5.676501
    136          1           0        9.167527    1.723639    4.095004
    137          1           0       10.601386    2.744472    4.649156
    138          1           0       10.519002   -1.310090    5.385248
    139          1           0       11.359571   -0.146122    6.413637
    140          1           0       12.288831   -1.050590    5.166977
 ---------------------------------------------------------------------

 SCF Done:  E(RB-LYP) =  -3007.38528016     A.U. after   20 cycles

 Excitation energies and oscillator strengths:

 Excited State   1:      Singlet-A      1.8033 eV  687.55 nm  f=0.0119  <S**2>=0.000
     244 -> 247        0.63731
     245 -> 247       -0.29972
 This state for optimization and/or second-order correction.
 Total Energy, E(TD-HF/TD-DFT) =  -3007.31901104
 Copying the excited state density for this state as the 1-particle RhoCI density.

 Excited State   2:      Singlet-A      1.8574 eV  667.53 nm  f=0.2898  <S**2>=0.000
     245 -> 248       -0.20275
     246 -> 247        0.67977
     246 <- 247       -0.13826

 Excited State   3:      Singlet-A      2.0161 eV  614.98 nm  f=0.0413  <S**2>=0.000
     243 -> 247        0.53541
     244 -> 247       -0.19742
     245 -> 247       -0.38065
     246 -> 248       -0.14027

 Excited State   4:      Singlet-A      2.0234 eV  612.75 nm  f=0.0494  <S**2>=0.000
     243 -> 247        0.46076
     244 -> 247        0.22374
     245 -> 247        0.44481
     246 -> 248        0.16940

 Excited State   5:      Singlet-A      2.2353 eV  554.66 nm  f=0.0001  <S**2>=0.000
     242 -> 247        0.70706

 The electronic state is 1-A.
 Alpha  occ. eigenvalues --  -46.26486 -18.81968 -18.81813 -18.77980 -18.77614
 Alpha  occ. eigenvalues --  -18.75691 -18.74668 -14.02671 -14.02569 -14.01269
 Alpha  occ. eigenvalues --  -14.00462 -10.04455 -10.04277 -10.00170  -9.98528
 Alpha  occ. eigenvalues --   -9.98414  -9.96377  -9.96284  -9.96085  -9.96050
 Alpha  occ. eigenvalues --   -9.95913  -9.95745  -9.95732  -9.95180  -9.94758
 Alpha  occ. eigenvalues --   -9.94514  -9.94052  -9.93895  -9.93757  -9.93700
 Alpha  occ. eigenvalues --   -9.93681  -9.93627  -9.93590  -9.93574  -9.93571
 Alpha  occ. eigenvalues --   -9.93509  -9.93154  -9.93070  -9.92919  -9.92787
 Alpha  occ. eigenvalues --   -9.92715  -9.92474  -9.92345  -9.92322  -9.92235
 Alpha  occ. eigenvalues --   -9.92204  -9.92168  -9.92129  -9.92124  -9.92062
 Alpha  occ. eigenvalues --   -9.91960  -9.91920  -9.91892  -9.91848  -9.91537
 Alpha  occ. eigenvalues --   -9.91528  -9.91244  -9.91239  -9.91086  -9.90998
 Alpha  occ. eigenvalues --   -9.90956  -9.90882  -9.90863  -9.90825  -9.90751
 Alpha  occ. eigenvalues --   -9.90418  -2.91343  -1.71757  -1.71254  -1.71046
 Alpha  occ. eigenvalues --   -0.97724  -0.96602  -0.92449  -0.91628  -0.90142
 Alpha  occ. eigenvalues --   -0.90047  -0.87623  -0.86178  -0.85512  -0.84888
 Alpha  occ. eigenvalues --   -0.74768  -0.73629  -0.73167  -0.72774  -0.72412
 Alpha  occ. eigenvalues --   -0.71968  -0.71408  -0.70939  -0.70426  -0.70011
 Alpha  occ. eigenvalues --   -0.69397  -0.69054  -0.67938  -0.67468  -0.67006
 Alpha  occ. eigenvalues --   -0.66325  -0.65461  -0.64675  -0.64311  -0.63965
 Alpha  occ. eigenvalues --   -0.63869  -0.62860  -0.62473  -0.62112  -0.60726
 Alpha  occ. eigenvalues --   -0.60518  -0.60421  -0.59744  -0.59525  -0.58696
 Alpha  occ. eigenvalues --   -0.58123  -0.57618  -0.56424  -0.55875  -0.54529
 Alpha  occ. eigenvalues --   -0.54090  -0.53652  -0.53056  -0.52875  -0.51805
 Alpha  occ. eigenvalues --   -0.51587  -0.51327  -0.50885  -0.50373  -0.49983
 Alpha  occ. eigenvalues --   -0.49904  -0.48680  -0.48210  -0.47802  -0.47361
 Alpha  occ. eigenvalues --   -0.46574  -0.45846  -0.45528  -0.45002  -0.44127
 Alpha  occ. eigenvalues --   -0.43808  -0.43045  -0.42923  -0.42840  -0.42108
 Alpha  occ. eigenvalues --   -0.41794  -0.41593  -0.41452  -0.41074  -0.40975
 Alpha  occ. eigenvalues --   -0.40868  -0.40735  -0.40389  -0.40151  -0.39958
 Alpha  occ. eigenvalues --   -0.39645  -0.39437  -0.39347  -0.39013  -0.38892
 Alpha  occ. eigenvalues --   -0.38821  -0.38382  -0.38347  -0.38189  -0.37876
 Alpha  occ. eigenvalues --   -0.37807  -0.37726  -0.37614  -0.37188  -0.37040
 Alpha  occ. eigenvalues --   -0.36921  -0.36728  -0.36648  -0.36409  -0.36139
 Alpha  occ. eigenvalues --   -0.36073  -0.35746  -0.35715  -0.35639  -0.35478
 Alpha  occ. eigenvalues --   -0.35277  -0.35120  -0.35081  -0.34964  -0.34788
 Alpha  occ. eigenvalues --   -0.34768  -0.34410  -0.34387  -0.34032  -0.33848
 Alpha  occ. eigenvalues --   -0.33712  -0.33627  -0.33602  -0.33455  -0.33145
 Alpha  occ. eigenvalues --   -0.32921  -0.32778  -0.32592  -0.32498  -0.32451
 Alpha  occ. eigenvalues --   -0.32141  -0.32063  -0.31828  -0.31791  -0.31514
 Alpha  occ. eigenvalues --   -0.31431  -0.31263  -0.31000  -0.30841  -0.30785
 Alpha  occ. eigenvalues --   -0.30597  -0.30579  -0.30504  -0.30217  -0.30160
 Alpha  occ. eigenvalues --   -0.30070  -0.29999  -0.29404  -0.29043  -0.28916
 Alpha  occ. eigenvalues --   -0.28875  -0.28694  -0.28442  -0.28148  -0.28118
 Alpha  occ. eigenvalues --   -0.27874  -0.27712  -0.27236  -0.26926  -0.26536
 Alpha  occ. eigenvalues --   -0.26272  -0.26099  -0.25643  -0.25581  -0.25329
 Alpha  occ. eigenvalues --   -0.25236  -0.24460  -0.24286  -0.23723  -0.23610
 Alpha  occ. eigenvalues --   -0.23518  -0.22688  -0.22204  -0.21826  -0.21121
 Alpha  occ. eigenvalues --   -0.20144  -0.19643  -0.18761  -0.18035  -0.16929
 Alpha  occ. eigenvalues --   -0.15947
 Alpha virt. eigenvalues --   -0.11428  -0.06838  -0.05710  -0.04486  -0.03817
 Alpha virt. eigenvalues --   -0.03651  -0.02272  -0.01709  -0.01039   0.00250
 Alpha virt. eigenvalues --    0.00722   0.01482   0.02101   0.02617   0.02936

 Mulliken charges:
               1
     1  Mg   0.716165
     2  C    0.064286
     3  C   -0.084412
     4  C   -0.048692
     5  C   -0.095274
     6  N   -0.143261
     7  C   -0.135193
     8  C    0.018935
     9  C   -0.005857
    10  C    0.004854
    11  C    0.128812
    12  C    0.177627
    13  C    0.100283
    14  C    0.081773
    15  O   -0.181550
    16  O   -0.300507
    17  N   -0.374922
    18  C    0.162301
    19  C   -0.129891
    20  C    0.074173
    21  C    0.144273
    22  C    0.165556
    23  C   -0.085634
    24  O   -0.157127
    25  C    0.116121
    26  N   -0.237596
    27  C   -0.000428
    28  C    0.067319
    29  C    0.035272
    30  C    0.040260
    31  C    0.126989
    32  C    0.074879
    33  C    0.062729
    34  N   -0.239218
    35  C    0.096890
    36  C   -0.155692
    37  C    0.078052
    38  C    0.058240
    39  C    0.161970
    40  C   -0.084012
    41  O   -0.105062
    42  C    0.039390
    43  C    0.154143
    44  O   -0.187030
    45  O   -0.273490
    46  C    0.230202
    47  C    0.305088
    48  C   -0.135495
    49  C   -0.172364
    50  C    0.139250
    51  C    0.164416
    52  C    0.050544
    53  C    0.108401
    54  C   -0.034351
    55  C    0.103044
    56  C    0.098210
    57  C    0.053926
    58  C    0.083458
    59  C   -0.110677
    60  C    0.125058
    61  C    0.126063
    62  C    0.037866
    63  C    0.081294
    64  C   -0.114255
    65  C    0.104259
    66  C    0.126865
    67  H   -0.064872
    68  H   -0.054992
    69  H   -0.075037
    70  H   -0.016583
    71  H   -0.030097
    72  H   -0.009948
    73  H   -0.004631
    74  H   -0.010161
    75  H   -0.012426
    76  H   -0.001226
    77  H   -0.008842
    78  H    0.000505
    79  H   -0.002059
    80  H   -0.002216
    81  H   -0.019397
    82  H    0.011592
    83  H    0.002610
    84  H   -0.021057
    85  H   -0.022045
    86  H   -0.029112
    87  H    0.001414
    88  H   -0.014438
    89  H   -0.013342
    90  H   -0.009857
    91  H   -0.021873
    92  H    0.005092
    93  H   -0.000476
    94  H   -0.010854
    95  H    0.004833
    96  H   -0.014034
    97  H    0.002041
    98  H    0.016115
    99  H    0.004631
   100  H   -0.005785
   101  H    0.008681
   102  H    0.018343
   103  H    0.016772
   104  H   -0.027487
   105  H    0.009807
   106  H   -0.011290
   107  H   -0.008155
   108  H   -0.031874
   109  H   -0.032195
   110  H   -0.027412
   111  H   -0.022235
   112  H   -0.030512
   113  H   -0.023153
   114  H   -0.035454
   115  H   -0.017517
   116  H   -0.022143
   117  H   -0.017393
   118  H   -0.037555
   119  H   -0.017665
   120  H   -0.030934
   121  H   -0.032509
   122  H   -0.050114
   123  H   -0.039501
   124  H   -0.037236
   125  H   -0.014746
   126  H   -0.008706
   127  H   -0.008425
   128  H   -0.053978
   129  H   -0.029663
   130  H   -0.031663
   131  H   -0.033161
   132  H   -0.021437
   133  H   -0.035934
   134  H   -0.037348
   135  H   -0.035589
   136  H   -0.018015
   137  H    0.002754
   138  H   -0.017271
   139  H   -0.016501
   140  H   -0.012306
 Sum of Mulliken charges =  -0.00000

 Dipole moment (field-independent basis, Debye):
    X=              2.9456    Y=              2.7639    Z=             -1.5311  Tot=              4.3197
 Quadrupole moment (field-independent basis, Debye-Ang):
   XX=           -373.6780   YY=           -438.3123   ZZ=           -406.0566
   XY=            -19.3897   XZ=             -0.0196   YZ=              7.1090

 Normal termination of Gaussian 16 at Wed May  4 12:30:24 2022.
