 Gaussian 16, Revision A.03,
 Gaussian 16:  ES64L-G16RevA.03 25-Dec-2016

 -----------------------------------
 #p cam-b3lyp/Def2SVP td=(nstates=5)
 -----------------------------------

 --------------------------------------------------------
 step_1701_chromophore_15 TDDFT with cam-b3lyp functional
 --------------------------------------------------------
 Symbolic Z-matrix:
 Charge =  0 Multiplicity = 1

                         Standard orientation:
 ---------------------------------------------------------------------
 Center     Atomic      Atomic             Coordinates (Angstroms)
 Number     Number       Type             X           Y           Z
 ---------------------------------------------------------------------
      1         12           0       -5.141540    1.084173    0.009716
      2          6           0       -4.181886   -2.281563    0.422673
      3          6           0       -1.805963    1.744628   -0.027200
      4          6           0       -5.990680    4.155097    0.098147
      5          6           0       -8.516516    0.055997    0.586224
      6          7           0       -3.178879   -0.207150    0.146735
      7          6           0       -3.048345   -1.539105    0.164528
      8          6           0       -1.645278   -1.973277   -0.192378
      9          6           0       -0.886950   -0.669858    0.108176
     10          6           0       -2.001314    0.394124    0.115250
     11          6           0        0.001574   -0.577516    1.377812
     12          6           0       -1.479945   -2.406330   -1.646809
     13          6           0       -0.418904   -3.577116   -1.845537
     14          6           0        0.696623   -3.886111   -0.858300
     15          8           0        0.736777   -4.741038    0.007657
     16          8           0        1.769763   -3.035997   -1.100288
     17          7           0       -4.091346    2.686551   -0.156596
     18          6           0       -2.711241    2.810067   -0.252153
     19          6           0       -2.379057    4.205748   -0.568810
     20          6           0       -3.615052    4.918121   -0.437835
     21          6           0       -4.624910    3.946202   -0.148362
     22          6           0       -0.947353    4.738795   -0.901626
     23          6           0       -3.768470    6.402414   -0.615134
     24          8           0       -4.849173    6.962091   -0.486613
     25          6           0       -2.558233    7.312849   -0.966679
     26          7           0       -7.018227    1.959770    0.252640
     27          6           0       -7.103341    3.312723    0.263433
     28          6           0       -8.565453    3.749426    0.410984
     29          6           0       -9.352957    2.400509    0.331478
     30          6           0       -8.265069    1.389500    0.347185
     31          6           0       -8.797018    4.722896    1.575871
     32          6           0      -10.393179    2.016666   -0.823652
     33          6           0      -11.641289    1.282905   -0.346501
     34          7           0       -6.233658   -0.724672    0.351496
     35          6           0       -7.569890   -1.003555    0.587291
     36          6           0       -7.805553   -2.411290    0.811279
     37          6           0       -6.485543   -2.940734    0.809670
     38          6           0       -5.585150   -1.905915    0.439599
     39          6           0       -9.152863   -3.107586    0.864914
     40          6           0       -5.642911   -4.123268    0.980158
     41          8           0       -5.985744   -5.189831    1.381263
     42          6           0       -4.176369   -3.743790    0.926454
     43          6           0       -3.463841   -4.889711    0.127871
     44          8           0       -3.607826   -5.112750   -1.064898
     45          8           0       -3.019259   -5.815590    1.118045
     46          6           0       -2.566199   -7.037565    0.483259
     47          6           0        3.076433   -3.487545   -0.589863
     48          6           0        3.967740   -2.775300   -1.624136
     49          6           0        5.368429   -2.784539   -1.683110
     50          6           0        6.166535   -3.770668   -0.814964
     51          6           0        6.097451   -1.978647   -2.683636
     52          6           0        6.904498   -0.795011   -2.059643
     53          6           0        8.427570   -0.646203   -2.568347
     54          6           0        8.802052    0.790359   -2.907732
     55          6           0        9.477376    0.818283   -4.297601
     56          6           0        9.791047    1.424060   -1.912996
     57          6           0       10.977386    0.534345   -1.405855
     58          6           0       12.326722    1.240175   -1.344190
     59          6           0       12.438898    2.233279   -0.142014
     60          6           0       13.366047    3.454663   -0.499379
     61          6           0       12.792580    1.490389    1.188669
     62          6           0       11.822278    1.742130    2.295747
     63          6           0       12.244048    0.972687    3.619502
     64          6           0       10.964943    0.495227    4.350879
     65          6           0       10.083723    1.785587    4.682641
     66          6           0       11.334223   -0.587423    5.417915
     67          1           0       -0.750979    2.009164    0.072068
     68          1           0       -6.295777    5.200828    0.183447
     69          1           0       -9.542071   -0.213927    0.843598
     70          1           0       -1.302481   -2.763343    0.475846
     71          1           0       -0.202671   -0.511512   -0.725287
     72          1           0       -0.067835    0.419384    1.811284
     73          1           0        1.035976   -0.828904    1.143727
     74          1           0       -0.298953   -1.287570    2.148782
     75          1           0       -1.223634   -1.561752   -2.286078
     76          1           0       -2.417360   -2.861970   -1.962844
     77          1           0        0.053194   -3.598055   -2.827473
     78          1           0       -1.062438   -4.452628   -1.928114
     79          1           0       -0.422523    5.220599   -0.077051
     80          1           0       -0.902523    5.425952   -1.746635
     81          1           0       -0.268334    3.912029   -1.112852
     82          1           0       -2.043146    7.108631   -1.905377
     83          1           0       -1.868649    7.367650   -0.123385
     84          1           0       -2.887729    8.347864   -1.053247
     85          1           0       -8.802413    4.349744   -0.467487
     86          1           0       -9.938598    2.215745    1.232583
     87          1           0       -7.879285    4.832953    2.152278
     88          1           0       -9.654032    4.478633    2.203376
     89          1           0       -9.063974    5.733046    1.265775
     90          1           0      -10.007756    1.339346   -1.585764
     91          1           0      -10.607079    2.965499   -1.315534
     92          1           0      -12.445903    1.927691   -0.699575
     93          1           0      -11.714997    0.972103    0.694765
     94          1           0      -11.644270    0.296117   -0.810491
     95          1           0       -9.165191   -4.088445    0.390849
     96          1           0       -9.882136   -2.500128    0.328658
     97          1           0       -9.544112   -3.293749    1.865165
     98          1           0       -3.847101   -3.802972    1.963493
     99          1           0       -2.198039   -7.672811    1.287751
    100          1           0       -1.726328   -6.815784   -0.175321
    101          1           0       -3.161758   -7.651529   -0.191877
    102          1           0        3.125131   -4.576541   -0.605294
    103          1           0        3.287742   -3.089443    0.402069
    104          1           0        3.417905   -2.175274   -2.347909
    105          1           0        6.567977   -4.543916   -1.469720
    106          1           0        5.515877   -4.197241   -0.052618
    107          1           0        6.975249   -3.225107   -0.328993
    108          1           0        5.458742   -1.612903   -3.487447
    109          1           0        6.752232   -2.726449   -3.132025
    110          1           0        6.916519   -0.998168   -0.988507
    111          1           0        6.328783    0.124215   -2.174523
    112          1           0        8.511190   -1.327133   -3.415093
    113          1           0        9.121105   -1.085443   -1.851505
    114          1           0        7.941805    1.457807   -2.858769
    115          1           0        9.853243   -0.180391   -4.521315
    116          1           0       10.331501    1.489531   -4.390048
    117          1           0        8.779789    1.111911   -5.082081
    118          1           0        9.202088    1.542895   -1.003260
    119          1           0       10.189531    2.389909   -2.223697
    120          1           0       11.168606   -0.365868   -1.989931
    121          1           0       10.844656    0.122399   -0.405883
    122          1           0       12.430028    1.834423   -2.252067
    123          1           0       13.228536    0.628199   -1.356588
    124          1           0       11.406039    2.544351    0.016180
    125          1           0       13.853705    3.323767   -1.465566
    126          1           0       14.120512    3.665812    0.258207
    127          1           0       12.568066    4.190884   -0.597146
    128          1           0       13.664881    2.013711    1.581120
    129          1           0       13.144533    0.465054    1.070711
    130          1           0       10.825608    1.502715    1.924894
    131          1           0       11.723759    2.794345    2.561669
    132          1           0       12.822779    1.563332    4.329481
    133          1           0       12.856759    0.124806    3.312843
    134          1           0       10.338815   -0.029448    3.630389
    135          1           0        9.649112    1.676059    5.676501
    136          1           0        9.167527    1.723639    4.095004
    137          1           0       10.601386    2.744472    4.649156
    138          1           0       10.519002   -1.310090    5.385248
    139          1           0       11.359571   -0.146122    6.413637
    140          1           0       12.288831   -1.050590    5.166977
 ---------------------------------------------------------------------

 SCF Done:  E(RCAM-B3LYP) =  -3007.17847404     A.U. after   17 cycles

 Excitation energies and oscillator strengths:

 Excited State   1:      Singlet-A      1.7607 eV  704.18 nm  f=0.3820  <S**2>=0.000
     245 -> 248        0.19291
     246 -> 247        0.68123
     245 <- 248        0.10756
 This state for optimization and/or second-order correction.
 Total Energy, E(TD-HF/TD-DFT) =  -3007.11377014
 Copying the excited state density for this state as the 1-particle RhoCI density.

 Excited State   2:      Singlet-A      2.2069 eV  561.79 nm  f=0.1435  <S**2>=0.000
     245 -> 247        0.65071
     246 -> 248       -0.26517

 Excited State   3:      Singlet-A      3.3602 eV  368.98 nm  f=0.0005  <S**2>=0.000
     242 -> 247       -0.16942
     243 -> 247        0.65143

 Excited State   4:      Singlet-A      3.4738 eV  356.92 nm  f=0.0143  <S**2>=0.000
     241 -> 247       -0.14436
     242 -> 247        0.56733
     242 -> 249       -0.21277
     242 -> 250       -0.18432
     243 -> 247        0.20101

 Excited State   5:      Singlet-A      3.5745 eV  346.86 nm  f=0.4165  <S**2>=0.000
     239 -> 247       -0.16664
     241 -> 247        0.31717
     242 -> 247        0.12681
     245 -> 247        0.20063
     246 -> 248        0.55023

 The electronic state is 1-A.
 Alpha  occ. eigenvalues --  -46.87964 -19.24838 -19.24681 -19.21205 -19.20657
 Alpha  occ. eigenvalues --  -19.19099 -19.17686 -14.41617 -14.41327 -14.39797
 Alpha  occ. eigenvalues --  -14.38757 -10.39982 -10.39794 -10.35560 -10.33519
 Alpha  occ. eigenvalues --  -10.32504 -10.30965 -10.30859 -10.30685 -10.30234
 Alpha  occ. eigenvalues --  -10.30216 -10.29917 -10.29900 -10.29728 -10.29181
 Alpha  occ. eigenvalues --  -10.28621 -10.28005 -10.27982 -10.27944 -10.27914
 Alpha  occ. eigenvalues --  -10.27832 -10.27775 -10.27689 -10.27579 -10.27519
 Alpha  occ. eigenvalues --  -10.27487 -10.27366 -10.27359 -10.27000 -10.26682
 Alpha  occ. eigenvalues --  -10.26509 -10.26258 -10.26110 -10.26071 -10.26031
 Alpha  occ. eigenvalues --  -10.26011 -10.25987 -10.25965 -10.25902 -10.25890
 Alpha  occ. eigenvalues --  -10.25851 -10.25767 -10.25635 -10.25597 -10.25352
 Alpha  occ. eigenvalues --  -10.25254 -10.24952 -10.24898 -10.24813 -10.24808
 Alpha  occ. eigenvalues --  -10.24628 -10.24596 -10.24591 -10.24459 -10.24431
 Alpha  occ. eigenvalues --  -10.24091  -3.16737  -1.91622  -1.91210  -1.91049
 Alpha  occ. eigenvalues --   -1.16208  -1.15148  -1.10768  -1.10216  -1.08013
 Alpha  occ. eigenvalues --   -1.07960  -1.05475  -1.03855  -1.03134  -1.02290
 Alpha  occ. eigenvalues --   -0.91810  -0.90521  -0.89994  -0.89608  -0.89037
 Alpha  occ. eigenvalues --   -0.88701  -0.88064  -0.87487  -0.87020  -0.86873
 Alpha  occ. eigenvalues --   -0.85755  -0.85364  -0.84112  -0.83612  -0.83137
 Alpha  occ. eigenvalues --   -0.82394  -0.81478  -0.80571  -0.80363  -0.79846
 Alpha  occ. eigenvalues --   -0.79694  -0.78731  -0.78083  -0.77555  -0.76135
 Alpha  occ. eigenvalues --   -0.75925  -0.75728  -0.75007  -0.74833  -0.73952
 Alpha  occ. eigenvalues --   -0.73148  -0.72633  -0.71301  -0.70730  -0.69021
 Alpha  occ. eigenvalues --   -0.68748  -0.68341  -0.67520  -0.67303  -0.66197
 Alpha  occ. eigenvalues --   -0.65830  -0.65315  -0.64980  -0.64279  -0.63998
 Alpha  occ. eigenvalues --   -0.63858  -0.62594  -0.61923  -0.61567  -0.61124
 Alpha  occ. eigenvalues --   -0.60231  -0.59320  -0.58942  -0.58319  -0.57450
 Alpha  occ. eigenvalues --   -0.57379  -0.56393  -0.56131  -0.55964  -0.55346
 Alpha  occ. eigenvalues --   -0.55077  -0.54644  -0.54424  -0.54159  -0.53823
 Alpha  occ. eigenvalues --   -0.53698  -0.53542  -0.53453  -0.52755  -0.52635
 Alpha  occ. eigenvalues --   -0.52557  -0.52279  -0.52149  -0.51720  -0.51499
 Alpha  occ. eigenvalues --   -0.51259  -0.51011  -0.50647  -0.50536  -0.50469
 Alpha  occ. eigenvalues --   -0.50129  -0.50107  -0.50074  -0.49515  -0.49384
 Alpha  occ. eigenvalues --   -0.49264  -0.49039  -0.48886  -0.48805  -0.48680
 Alpha  occ. eigenvalues --   -0.48385  -0.48229  -0.47768  -0.47618  -0.47604
 Alpha  occ. eigenvalues --   -0.47298  -0.47130  -0.47053  -0.47010  -0.46959
 Alpha  occ. eigenvalues --   -0.46564  -0.46191  -0.46174  -0.45859  -0.45719
 Alpha  occ. eigenvalues --   -0.45614  -0.45356  -0.45266  -0.45224  -0.44874
 Alpha  occ. eigenvalues --   -0.44583  -0.44449  -0.44432  -0.44117  -0.44003
 Alpha  occ. eigenvalues --   -0.43737  -0.43728  -0.43531  -0.43373  -0.43137
 Alpha  occ. eigenvalues --   -0.43043  -0.42868  -0.42703  -0.42604  -0.42494
 Alpha  occ. eigenvalues --   -0.42260  -0.41969  -0.41843  -0.41700  -0.41446
 Alpha  occ. eigenvalues --   -0.41395  -0.41152  -0.40461  -0.40132  -0.39991
 Alpha  occ. eigenvalues --   -0.39927  -0.39590  -0.39472  -0.39192  -0.39084
 Alpha  occ. eigenvalues --   -0.38811  -0.38533  -0.38229  -0.38079  -0.37394
 Alpha  occ. eigenvalues --   -0.37065  -0.36806  -0.36708  -0.36586  -0.36328
 Alpha  occ. eigenvalues --   -0.35932  -0.35914  -0.34786  -0.34759  -0.34475
 Alpha  occ. eigenvalues --   -0.34362  -0.34053  -0.32848  -0.31306  -0.31221
 Alpha  occ. eigenvalues --   -0.30599  -0.29885  -0.29228  -0.29125  -0.23619
 Alpha  occ. eigenvalues --   -0.21334
 Alpha virt. eigenvalues --   -0.08570  -0.01558   0.00755   0.02734   0.03278
 Alpha virt. eigenvalues --    0.03722   0.04088   0.05153   0.05813   0.06371
 Alpha virt. eigenvalues --    0.08026   0.08205   0.08460   0.08880   0.09187

 Mulliken charges:
               1
     1  Mg   0.852062
     2  C    0.031724
     3  C   -0.092848
     4  C   -0.072838
     5  C   -0.099990
     6  N   -0.207467
     7  C   -0.091337
     8  C   -0.040541
     9  C   -0.054501
    10  C    0.015425
    11  C    0.074776
    12  C    0.126428
    13  C    0.036374
    14  C    0.156099
    15  O   -0.221184
    16  O   -0.365286
    17  N   -0.468857
    18  C    0.168915
    19  C   -0.134261
    20  C    0.001412
    21  C    0.170303
    22  C    0.111439
    23  C   -0.006767
    24  O   -0.197270
    25  C    0.036345
    26  N   -0.314563
    27  C    0.024236
    28  C    0.011537
    29  C   -0.021946
    30  C    0.061530
    31  C    0.064263
    32  C    0.023290
    33  C   -0.002955
    34  N   -0.326187
    35  C    0.096768
    36  C   -0.154033
    37  C    0.002376
    38  C    0.093964
    39  C    0.113853
    40  C    0.014495
    41  O   -0.142972
    42  C   -0.027493
    43  C    0.231679
    44  O   -0.221690
    45  O   -0.335747
    46  C    0.187957
    47  C    0.274985
    48  C   -0.152134
    49  C   -0.197600
    50  C    0.084543
    51  C    0.102458
    52  C   -0.001006
    53  C    0.051607
    54  C   -0.091420
    55  C    0.043640
    56  C    0.048034
    57  C   -0.005215
    58  C    0.035275
    59  C   -0.162501
    60  C    0.066639
    61  C    0.067698
    62  C   -0.009823
    63  C    0.029066
    64  C   -0.168915
    65  C    0.038403
    66  C    0.067282
    67  H   -0.029929
    68  H   -0.014416
    69  H   -0.039526
    70  H    0.017057
    71  H    0.006546
    72  H    0.014660
    73  H    0.019160
    74  H    0.015173
    75  H    0.017264
    76  H    0.032938
    77  H    0.024920
    78  H    0.030873
    79  H    0.026526
    80  H    0.024059
    81  H    0.010022
    82  H    0.038788
    83  H    0.030982
    84  H    0.016355
    85  H    0.013930
    86  H    0.006845
    87  H    0.027108
    88  H    0.011778
    89  H    0.012092
    90  H    0.020172
    91  H    0.005511
    92  H    0.029198
    93  H    0.020966
    94  H    0.011988
    95  H    0.030969
    96  H    0.007875
    97  H    0.027714
    98  H    0.058610
    99  H    0.029464
   100  H    0.015312
   101  H    0.032674
   102  H    0.046441
   103  H    0.041138
   104  H    0.006850
   105  H    0.033440
   106  H    0.011851
   107  H    0.014488
   108  H    0.000186
   109  H   -0.003525
   110  H    0.000484
   111  H    0.005805
   112  H   -0.000612
   113  H    0.005567
   114  H   -0.002376
   115  H    0.005207
   116  H    0.001830
   117  H    0.007820
   118  H   -0.009377
   119  H    0.009786
   120  H   -0.002414
   121  H   -0.006268
   122  H   -0.022342
   123  H   -0.009524
   124  H   -0.007242
   125  H    0.009504
   126  H    0.015114
   127  H    0.014349
   128  H   -0.023719
   129  H   -0.000948
   130  H   -0.008110
   131  H   -0.005587
   132  H    0.005939
   133  H   -0.008284
   134  H   -0.006016
   135  H   -0.008867
   136  H    0.006972
   137  H    0.025676
   138  H    0.006855
   139  H    0.006951
   140  H    0.011768
 Sum of Mulliken charges =  -0.00000

 Dipole moment (field-independent basis, Debye):
    X=              3.6570    Y=              3.5091    Z=             -1.7821  Tot=              5.3724
 Quadrupole moment (field-independent basis, Debye-Ang):
   XX=           -376.5064   YY=           -433.6615   ZZ=           -406.0747
   XY=            -21.7006   XZ=              0.3979   YZ=              7.1375

 Normal termination of Gaussian 16 at Wed May  4 11:33:34 2022.
