 Gaussian 16, Revision A.03,
 Gaussian 16:  ES64L-G16RevA.03 25-Dec-2016

 ---------------------------------
 #p PBE1PBE/Def2SVP td=(nstates=5)
 ---------------------------------

 ------------------------------------------------------
 step_1701_chromophore_15 TDDFT with PBE1PBE functional
 ------------------------------------------------------
 Symbolic Z-matrix:
 Charge =  0 Multiplicity = 1

                         Standard orientation:
 ---------------------------------------------------------------------
 Center     Atomic      Atomic             Coordinates (Angstroms)
 Number     Number       Type             X           Y           Z
 ---------------------------------------------------------------------
      1         12           0       -5.141540    1.084173    0.009716
      2          6           0       -4.181886   -2.281563    0.422673
      3          6           0       -1.805963    1.744628   -0.027200
      4          6           0       -5.990680    4.155097    0.098147
      5          6           0       -8.516516    0.055997    0.586224
      6          7           0       -3.178879   -0.207150    0.146735
      7          6           0       -3.048345   -1.539105    0.164528
      8          6           0       -1.645278   -1.973277   -0.192378
      9          6           0       -0.886950   -0.669858    0.108176
     10          6           0       -2.001314    0.394124    0.115250
     11          6           0        0.001574   -0.577516    1.377812
     12          6           0       -1.479945   -2.406330   -1.646809
     13          6           0       -0.418904   -3.577116   -1.845537
     14          6           0        0.696623   -3.886111   -0.858300
     15          8           0        0.736777   -4.741038    0.007657
     16          8           0        1.769763   -3.035997   -1.100288
     17          7           0       -4.091346    2.686551   -0.156596
     18          6           0       -2.711241    2.810067   -0.252153
     19          6           0       -2.379057    4.205748   -0.568810
     20          6           0       -3.615052    4.918121   -0.437835
     21          6           0       -4.624910    3.946202   -0.148362
     22          6           0       -0.947353    4.738795   -0.901626
     23          6           0       -3.768470    6.402414   -0.615134
     24          8           0       -4.849173    6.962091   -0.486613
     25          6           0       -2.558233    7.312849   -0.966679
     26          7           0       -7.018227    1.959770    0.252640
     27          6           0       -7.103341    3.312723    0.263433
     28          6           0       -8.565453    3.749426    0.410984
     29          6           0       -9.352957    2.400509    0.331478
     30          6           0       -8.265069    1.389500    0.347185
     31          6           0       -8.797018    4.722896    1.575871
     32          6           0      -10.393179    2.016666   -0.823652
     33          6           0      -11.641289    1.282905   -0.346501
     34          7           0       -6.233658   -0.724672    0.351496
     35          6           0       -7.569890   -1.003555    0.587291
     36          6           0       -7.805553   -2.411290    0.811279
     37          6           0       -6.485543   -2.940734    0.809670
     38          6           0       -5.585150   -1.905915    0.439599
     39          6           0       -9.152863   -3.107586    0.864914
     40          6           0       -5.642911   -4.123268    0.980158
     41          8           0       -5.985744   -5.189831    1.381263
     42          6           0       -4.176369   -3.743790    0.926454
     43          6           0       -3.463841   -4.889711    0.127871
     44          8           0       -3.607826   -5.112750   -1.064898
     45          8           0       -3.019259   -5.815590    1.118045
     46          6           0       -2.566199   -7.037565    0.483259
     47          6           0        3.076433   -3.487545   -0.589863
     48          6           0        3.967740   -2.775300   -1.624136
     49          6           0        5.368429   -2.784539   -1.683110
     50          6           0        6.166535   -3.770668   -0.814964
     51          6           0        6.097451   -1.978647   -2.683636
     52          6           0        6.904498   -0.795011   -2.059643
     53          6           0        8.427570   -0.646203   -2.568347
     54          6           0        8.802052    0.790359   -2.907732
     55          6           0        9.477376    0.818283   -4.297601
     56          6           0        9.791047    1.424060   -1.912996
     57          6           0       10.977386    0.534345   -1.405855
     58          6           0       12.326722    1.240175   -1.344190
     59          6           0       12.438898    2.233279   -0.142014
     60          6           0       13.366047    3.454663   -0.499379
     61          6           0       12.792580    1.490389    1.188669
     62          6           0       11.822278    1.742130    2.295747
     63          6           0       12.244048    0.972687    3.619502
     64          6           0       10.964943    0.495227    4.350879
     65          6           0       10.083723    1.785587    4.682641
     66          6           0       11.334223   -0.587423    5.417915
     67          1           0       -0.750979    2.009164    0.072068
     68          1           0       -6.295777    5.200828    0.183447
     69          1           0       -9.542071   -0.213927    0.843598
     70          1           0       -1.302481   -2.763343    0.475846
     71          1           0       -0.202671   -0.511512   -0.725287
     72          1           0       -0.067835    0.419384    1.811284
     73          1           0        1.035976   -0.828904    1.143727
     74          1           0       -0.298953   -1.287570    2.148782
     75          1           0       -1.223634   -1.561752   -2.286078
     76          1           0       -2.417360   -2.861970   -1.962844
     77          1           0        0.053194   -3.598055   -2.827473
     78          1           0       -1.062438   -4.452628   -1.928114
     79          1           0       -0.422523    5.220599   -0.077051
     80          1           0       -0.902523    5.425952   -1.746635
     81          1           0       -0.268334    3.912029   -1.112852
     82          1           0       -2.043146    7.108631   -1.905377
     83          1           0       -1.868649    7.367650   -0.123385
     84          1           0       -2.887729    8.347864   -1.053247
     85          1           0       -8.802413    4.349744   -0.467487
     86          1           0       -9.938598    2.215745    1.232583
     87          1           0       -7.879285    4.832953    2.152278
     88          1           0       -9.654032    4.478633    2.203376
     89          1           0       -9.063974    5.733046    1.265775
     90          1           0      -10.007756    1.339346   -1.585764
     91          1           0      -10.607079    2.965499   -1.315534
     92          1           0      -12.445903    1.927691   -0.699575
     93          1           0      -11.714997    0.972103    0.694765
     94          1           0      -11.644270    0.296117   -0.810491
     95          1           0       -9.165191   -4.088445    0.390849
     96          1           0       -9.882136   -2.500128    0.328658
     97          1           0       -9.544112   -3.293749    1.865165
     98          1           0       -3.847101   -3.802972    1.963493
     99          1           0       -2.198039   -7.672811    1.287751
    100          1           0       -1.726328   -6.815784   -0.175321
    101          1           0       -3.161758   -7.651529   -0.191877
    102          1           0        3.125131   -4.576541   -0.605294
    103          1           0        3.287742   -3.089443    0.402069
    104          1           0        3.417905   -2.175274   -2.347909
    105          1           0        6.567977   -4.543916   -1.469720
    106          1           0        5.515877   -4.197241   -0.052618
    107          1           0        6.975249   -3.225107   -0.328993
    108          1           0        5.458742   -1.612903   -3.487447
    109          1           0        6.752232   -2.726449   -3.132025
    110          1           0        6.916519   -0.998168   -0.988507
    111          1           0        6.328783    0.124215   -2.174523
    112          1           0        8.511190   -1.327133   -3.415093
    113          1           0        9.121105   -1.085443   -1.851505
    114          1           0        7.941805    1.457807   -2.858769
    115          1           0        9.853243   -0.180391   -4.521315
    116          1           0       10.331501    1.489531   -4.390048
    117          1           0        8.779789    1.111911   -5.082081
    118          1           0        9.202088    1.542895   -1.003260
    119          1           0       10.189531    2.389909   -2.223697
    120          1           0       11.168606   -0.365868   -1.989931
    121          1           0       10.844656    0.122399   -0.405883
    122          1           0       12.430028    1.834423   -2.252067
    123          1           0       13.228536    0.628199   -1.356588
    124          1           0       11.406039    2.544351    0.016180
    125          1           0       13.853705    3.323767   -1.465566
    126          1           0       14.120512    3.665812    0.258207
    127          1           0       12.568066    4.190884   -0.597146
    128          1           0       13.664881    2.013711    1.581120
    129          1           0       13.144533    0.465054    1.070711
    130          1           0       10.825608    1.502715    1.924894
    131          1           0       11.723759    2.794345    2.561669
    132          1           0       12.822779    1.563332    4.329481
    133          1           0       12.856759    0.124806    3.312843
    134          1           0       10.338815   -0.029448    3.630389
    135          1           0        9.649112    1.676059    5.676501
    136          1           0        9.167527    1.723639    4.095004
    137          1           0       10.601386    2.744472    4.649156
    138          1           0       10.519002   -1.310090    5.385248
    139          1           0       11.359571   -0.146122    6.413637
    140          1           0       12.288831   -1.050590    5.166977
 ---------------------------------------------------------------------

 SCF Done:  E(RPBE1PBE) =  -3005.36647701     A.U. after   15 cycles

 Excitation energies and oscillator strengths:

 Excited State   1:      Singlet-A      1.9146 eV  647.56 nm  f=0.3667  <S**2>=0.000
     245 -> 248       -0.18611
     246 -> 247        0.68730
 This state for optimization and/or second-order correction.
 Total Energy, E(TD-HF/TD-DFT) =  -3005.29611555
 Copying the excited state density for this state as the 1-particle RhoCI density.

 Excited State   2:      Singlet-A      2.2118 eV  560.55 nm  f=0.1351  <S**2>=0.000
     245 -> 247        0.65938
     246 -> 248        0.24143

 Excited State   3:      Singlet-A      2.8702 eV  431.97 nm  f=0.0005  <S**2>=0.000
     242 -> 247        0.11746
     243 -> 247        0.67325
     243 -> 249       -0.11643

 Excited State   4:      Singlet-A      3.0488 eV  406.67 nm  f=0.0044  <S**2>=0.000
     242 -> 247        0.68145
     243 -> 247       -0.12635

 Excited State   5:      Singlet-A      3.1408 eV  394.75 nm  f=0.0000  <S**2>=0.000
     240 -> 247        0.11945
     241 -> 247        0.65510
     241 -> 248       -0.11071
     241 -> 249        0.15968

 The electronic state is 1-A.
 Alpha  occ. eigenvalues --  -46.91370 -19.25560 -19.25400 -19.21416 -19.20923
 Alpha  occ. eigenvalues --  -19.19192 -19.17973 -14.40992 -14.40889 -14.39410
 Alpha  occ. eigenvalues --  -14.38485 -10.37041 -10.36851 -10.32589 -10.30745
 Alpha  occ. eigenvalues --  -10.29919 -10.28581 -10.28419 -10.28193 -10.27981
 Alpha  occ. eigenvalues --  -10.27809 -10.27724 -10.27237 -10.27179 -10.27062
 Alpha  occ. eigenvalues --  -10.26472 -10.25757 -10.25737 -10.25730 -10.25678
 Alpha  occ. eigenvalues --  -10.25662 -10.25332 -10.25320 -10.25258 -10.25079
 Alpha  occ. eigenvalues --  -10.25052 -10.25049 -10.25032 -10.24485 -10.24408
 Alpha  occ. eigenvalues --  -10.23892 -10.23808 -10.23722 -10.23701 -10.23594
 Alpha  occ. eigenvalues --  -10.23576 -10.23557 -10.23531 -10.23449 -10.23434
 Alpha  occ. eigenvalues --  -10.23374 -10.23234 -10.23185 -10.23153 -10.23067
 Alpha  occ. eigenvalues --  -10.22816 -10.22669 -10.22496 -10.22377 -10.22303
 Alpha  occ. eigenvalues --  -10.22117 -10.22022 -10.22003 -10.21999 -10.21825
 Alpha  occ. eigenvalues --  -10.21639  -3.13717  -1.86544  -1.86109  -1.85953
 Alpha  occ. eigenvalues --   -1.11012  -1.09903  -1.05617  -1.04834  -1.02891
 Alpha  occ. eigenvalues --   -1.02823  -1.00046  -0.98460  -0.97766  -0.97045
 Alpha  occ. eigenvalues --   -0.86188  -0.84617  -0.84196  -0.83724  -0.83368
 Alpha  occ. eigenvalues --   -0.82801  -0.82362  -0.81806  -0.81110  -0.81009
 Alpha  occ. eigenvalues --   -0.80154  -0.79630  -0.78380  -0.77855  -0.77418
 Alpha  occ. eigenvalues --   -0.76613  -0.75766  -0.74729  -0.74509  -0.74107
 Alpha  occ. eigenvalues --   -0.73856  -0.72915  -0.72340  -0.71909  -0.70280
 Alpha  occ. eigenvalues --   -0.70091  -0.69993  -0.69359  -0.68956  -0.68104
 Alpha  occ. eigenvalues --   -0.67596  -0.66963  -0.65717  -0.65026  -0.63411
 Alpha  occ. eigenvalues --   -0.62924  -0.62717  -0.62002  -0.61548  -0.60364
 Alpha  occ. eigenvalues --   -0.60226  -0.59781  -0.59544  -0.58874  -0.58354
 Alpha  occ. eigenvalues --   -0.58124  -0.56788  -0.56534  -0.55796  -0.55612
 Alpha  occ. eigenvalues --   -0.54699  -0.53899  -0.53400  -0.52958  -0.52119
 Alpha  occ. eigenvalues --   -0.51827  -0.50817  -0.50721  -0.50441  -0.49867
 Alpha  occ. eigenvalues --   -0.49627  -0.49230  -0.48747  -0.48678  -0.48408
 Alpha  occ. eigenvalues --   -0.48180  -0.47935  -0.47869  -0.47383  -0.47244
 Alpha  occ. eigenvalues --   -0.47106  -0.46687  -0.46546  -0.46237  -0.46035
 Alpha  occ. eigenvalues --   -0.45758  -0.45567  -0.45317  -0.45172  -0.44994
 Alpha  occ. eigenvalues --   -0.44814  -0.44641  -0.44584  -0.44100  -0.43928
 Alpha  occ. eigenvalues --   -0.43789  -0.43589  -0.43404  -0.43338  -0.43234
 Alpha  occ. eigenvalues --   -0.42963  -0.42877  -0.42421  -0.42367  -0.42173
 Alpha  occ. eigenvalues --   -0.41997  -0.41767  -0.41691  -0.41608  -0.41577
 Alpha  occ. eigenvalues --   -0.41151  -0.40917  -0.40728  -0.40624  -0.40460
 Alpha  occ. eigenvalues --   -0.40323  -0.40083  -0.40008  -0.39888  -0.39712
 Alpha  occ. eigenvalues --   -0.39339  -0.39174  -0.39167  -0.38912  -0.38753
 Alpha  occ. eigenvalues --   -0.38632  -0.38440  -0.38347  -0.38161  -0.37893
 Alpha  occ. eigenvalues --   -0.37762  -0.37592  -0.37461  -0.37376  -0.37271
 Alpha  occ. eigenvalues --   -0.37103  -0.36687  -0.36554  -0.36510  -0.36320
 Alpha  occ. eigenvalues --   -0.36220  -0.36125  -0.35259  -0.35015  -0.34835
 Alpha  occ. eigenvalues --   -0.34768  -0.34588  -0.34362  -0.34107  -0.33876
 Alpha  occ. eigenvalues --   -0.33559  -0.33374  -0.33213  -0.32917  -0.32318
 Alpha  occ. eigenvalues --   -0.31838  -0.31781  -0.31741  -0.31553  -0.31159
 Alpha  occ. eigenvalues --   -0.30851  -0.30741  -0.29767  -0.29681  -0.29605
 Alpha  occ. eigenvalues --   -0.29207  -0.29003  -0.28436  -0.26885  -0.26189
 Alpha  occ. eigenvalues --   -0.25824  -0.25045  -0.24764  -0.24474  -0.20576
 Alpha  occ. eigenvalues --   -0.18914
 Alpha virt. eigenvalues --   -0.11009  -0.05101  -0.03433  -0.01752  -0.00865
 Alpha virt. eigenvalues --   -0.00573   0.00630   0.00700   0.01776   0.02886
 Alpha virt. eigenvalues --    0.03683   0.04476   0.04988   0.05540   0.05932

 Mulliken charges:
               1
     1  Mg   1.007270
     2  C    0.007806
     3  C   -0.083182
     4  C   -0.064445
     5  C   -0.086431
     6  N   -0.310966
     7  C   -0.014556
     8  C   -0.116968
     9  C   -0.125138
    10  C    0.051660
    11  C    0.018387
    12  C    0.074222
    13  C   -0.031053
    14  C    0.215920
    15  O   -0.254886
    16  O   -0.394569
    17  N   -0.590402
    18  C    0.186442
    19  C   -0.153439
    20  C   -0.055893
    21  C    0.194296
    22  C    0.053694
    23  C    0.048009
    24  O   -0.234630
    25  C   -0.037442
    26  N   -0.422159
    27  C    0.056751
    28  C   -0.066175
    29  C   -0.092541
    30  C    0.094722
    31  C    0.006339
    32  C   -0.035348
    33  C   -0.075549
    34  N   -0.448764
    35  C    0.111713
    36  C   -0.161499
    37  C   -0.060201
    38  C    0.155591
    39  C    0.061794
    40  C    0.119409
    41  O   -0.186507
    42  C   -0.127880
    43  C    0.304655
    44  O   -0.254470
    45  O   -0.363733
    46  C    0.129917
    47  C    0.235635
    48  C   -0.158548
    49  C   -0.246558
    50  C    0.022952
    51  C    0.038848
    52  C   -0.061733
    53  C    0.001579
    54  C   -0.182816
    55  C   -0.014461
    56  C   -0.010019
    57  C   -0.069316
    58  C   -0.020611
    59  C   -0.245146
    60  C    0.005067
    61  C    0.013680
    62  C   -0.070899
    63  C   -0.030197
    64  C   -0.254343
    65  C   -0.024538
    66  C    0.002607
    67  H    0.001431
    68  H    0.019105
    69  H   -0.004287
    70  H    0.057027
    71  H    0.043448
    72  H    0.042288
    73  H    0.047229
    74  H    0.042513
    75  H    0.048185
    76  H    0.066714
    77  H    0.056540
    78  H    0.065114
    79  H    0.053271
    80  H    0.050707
    81  H    0.036952
    82  H    0.064054
    83  H    0.057975
    84  H    0.044207
    85  H    0.052168
    86  H    0.046064
    87  H    0.054667
    88  H    0.038942
    89  H    0.039116
    90  H    0.052495
    91  H    0.039223
    92  H    0.057327
    93  H    0.045838
    94  H    0.039642
    95  H    0.058894
    96  H    0.034670
    97  H    0.055932
    98  H    0.094934
    99  H    0.052349
   100  H    0.039769
   101  H    0.055098
   102  H    0.071474
   103  H    0.066962
   104  H    0.036793
   105  H    0.060652
   106  H    0.039594
   107  H    0.041917
   108  H    0.031716
   109  H    0.030002
   110  H    0.035104
   111  H    0.037351
   112  H    0.031313
   113  H    0.037693
   114  H    0.034783
   115  H    0.031672
   116  H    0.029212
   117  H    0.036241
   118  H    0.025445
   119  H    0.041112
   120  H    0.030085
   121  H    0.028842
   122  H    0.012329
   123  H    0.022974
   124  H    0.033810
   125  H    0.036134
   126  H    0.041279
   127  H    0.041671
   128  H    0.012344
   129  H    0.028868
   130  H    0.023819
   131  H    0.027548
   132  H    0.038897
   133  H    0.024434
   134  H    0.033011
   135  H    0.020383
   136  H    0.034380
   137  H    0.051774
   138  H    0.034547
   139  H    0.034790
   140  H    0.038488
 Sum of Mulliken charges =  -0.00000

 Dipole moment (field-independent basis, Debye):
    X=              3.3779    Y=              3.2333    Z=             -1.7428  Tot=              4.9902
 Quadrupole moment (field-independent basis, Debye-Ang):
   XX=           -367.9536   YY=           -431.3275   ZZ=           -403.6196
   XY=            -21.1825   XZ=             -0.0023   YZ=              7.1263

 Normal termination of Gaussian 16 at Wed May  4 11:48:56 2022.
