 Gaussian 16, Revision A.03,
 Gaussian 16:  ES64L-G16RevA.03 25-Dec-2016

 --------------------------------
 #p wB97XD/Def2SVP td=(nstates=5)
 --------------------------------

 -----------------------------------------------------
 step_1701_chromophore_15 TDDFT with wB97XD functional
 -----------------------------------------------------
 Symbolic Z-matrix:
 Charge =  0 Multiplicity = 1

                         Standard orientation:
 ---------------------------------------------------------------------
 Center     Atomic      Atomic             Coordinates (Angstroms)
 Number     Number       Type             X           Y           Z
 ---------------------------------------------------------------------
      1         12           0       -5.141540    1.084173    0.009716
      2          6           0       -4.181886   -2.281563    0.422673
      3          6           0       -1.805963    1.744628   -0.027200
      4          6           0       -5.990680    4.155097    0.098147
      5          6           0       -8.516516    0.055997    0.586224
      6          7           0       -3.178879   -0.207150    0.146735
      7          6           0       -3.048345   -1.539105    0.164528
      8          6           0       -1.645278   -1.973277   -0.192378
      9          6           0       -0.886950   -0.669858    0.108176
     10          6           0       -2.001314    0.394124    0.115250
     11          6           0        0.001574   -0.577516    1.377812
     12          6           0       -1.479945   -2.406330   -1.646809
     13          6           0       -0.418904   -3.577116   -1.845537
     14          6           0        0.696623   -3.886111   -0.858300
     15          8           0        0.736777   -4.741038    0.007657
     16          8           0        1.769763   -3.035997   -1.100288
     17          7           0       -4.091346    2.686551   -0.156596
     18          6           0       -2.711241    2.810067   -0.252153
     19          6           0       -2.379057    4.205748   -0.568810
     20          6           0       -3.615052    4.918121   -0.437835
     21          6           0       -4.624910    3.946202   -0.148362
     22          6           0       -0.947353    4.738795   -0.901626
     23          6           0       -3.768470    6.402414   -0.615134
     24          8           0       -4.849173    6.962091   -0.486613
     25          6           0       -2.558233    7.312849   -0.966679
     26          7           0       -7.018227    1.959770    0.252640
     27          6           0       -7.103341    3.312723    0.263433
     28          6           0       -8.565453    3.749426    0.410984
     29          6           0       -9.352957    2.400509    0.331478
     30          6           0       -8.265069    1.389500    0.347185
     31          6           0       -8.797018    4.722896    1.575871
     32          6           0      -10.393179    2.016666   -0.823652
     33          6           0      -11.641289    1.282905   -0.346501
     34          7           0       -6.233658   -0.724672    0.351496
     35          6           0       -7.569890   -1.003555    0.587291
     36          6           0       -7.805553   -2.411290    0.811279
     37          6           0       -6.485543   -2.940734    0.809670
     38          6           0       -5.585150   -1.905915    0.439599
     39          6           0       -9.152863   -3.107586    0.864914
     40          6           0       -5.642911   -4.123268    0.980158
     41          8           0       -5.985744   -5.189831    1.381263
     42          6           0       -4.176369   -3.743790    0.926454
     43          6           0       -3.463841   -4.889711    0.127871
     44          8           0       -3.607826   -5.112750   -1.064898
     45          8           0       -3.019259   -5.815590    1.118045
     46          6           0       -2.566199   -7.037565    0.483259
     47          6           0        3.076433   -3.487545   -0.589863
     48          6           0        3.967740   -2.775300   -1.624136
     49          6           0        5.368429   -2.784539   -1.683110
     50          6           0        6.166535   -3.770668   -0.814964
     51          6           0        6.097451   -1.978647   -2.683636
     52          6           0        6.904498   -0.795011   -2.059643
     53          6           0        8.427570   -0.646203   -2.568347
     54          6           0        8.802052    0.790359   -2.907732
     55          6           0        9.477376    0.818283   -4.297601
     56          6           0        9.791047    1.424060   -1.912996
     57          6           0       10.977386    0.534345   -1.405855
     58          6           0       12.326722    1.240175   -1.344190
     59          6           0       12.438898    2.233279   -0.142014
     60          6           0       13.366047    3.454663   -0.499379
     61          6           0       12.792580    1.490389    1.188669
     62          6           0       11.822278    1.742130    2.295747
     63          6           0       12.244048    0.972687    3.619502
     64          6           0       10.964943    0.495227    4.350879
     65          6           0       10.083723    1.785587    4.682641
     66          6           0       11.334223   -0.587423    5.417915
     67          1           0       -0.750979    2.009164    0.072068
     68          1           0       -6.295777    5.200828    0.183447
     69          1           0       -9.542071   -0.213927    0.843598
     70          1           0       -1.302481   -2.763343    0.475846
     71          1           0       -0.202671   -0.511512   -0.725287
     72          1           0       -0.067835    0.419384    1.811284
     73          1           0        1.035976   -0.828904    1.143727
     74          1           0       -0.298953   -1.287570    2.148782
     75          1           0       -1.223634   -1.561752   -2.286078
     76          1           0       -2.417360   -2.861970   -1.962844
     77          1           0        0.053194   -3.598055   -2.827473
     78          1           0       -1.062438   -4.452628   -1.928114
     79          1           0       -0.422523    5.220599   -0.077051
     80          1           0       -0.902523    5.425952   -1.746635
     81          1           0       -0.268334    3.912029   -1.112852
     82          1           0       -2.043146    7.108631   -1.905377
     83          1           0       -1.868649    7.367650   -0.123385
     84          1           0       -2.887729    8.347864   -1.053247
     85          1           0       -8.802413    4.349744   -0.467487
     86          1           0       -9.938598    2.215745    1.232583
     87          1           0       -7.879285    4.832953    2.152278
     88          1           0       -9.654032    4.478633    2.203376
     89          1           0       -9.063974    5.733046    1.265775
     90          1           0      -10.007756    1.339346   -1.585764
     91          1           0      -10.607079    2.965499   -1.315534
     92          1           0      -12.445903    1.927691   -0.699575
     93          1           0      -11.714997    0.972103    0.694765
     94          1           0      -11.644270    0.296117   -0.810491
     95          1           0       -9.165191   -4.088445    0.390849
     96          1           0       -9.882136   -2.500128    0.328658
     97          1           0       -9.544112   -3.293749    1.865165
     98          1           0       -3.847101   -3.802972    1.963493
     99          1           0       -2.198039   -7.672811    1.287751
    100          1           0       -1.726328   -6.815784   -0.175321
    101          1           0       -3.161758   -7.651529   -0.191877
    102          1           0        3.125131   -4.576541   -0.605294
    103          1           0        3.287742   -3.089443    0.402069
    104          1           0        3.417905   -2.175274   -2.347909
    105          1           0        6.567977   -4.543916   -1.469720
    106          1           0        5.515877   -4.197241   -0.052618
    107          1           0        6.975249   -3.225107   -0.328993
    108          1           0        5.458742   -1.612903   -3.487447
    109          1           0        6.752232   -2.726449   -3.132025
    110          1           0        6.916519   -0.998168   -0.988507
    111          1           0        6.328783    0.124215   -2.174523
    112          1           0        8.511190   -1.327133   -3.415093
    113          1           0        9.121105   -1.085443   -1.851505
    114          1           0        7.941805    1.457807   -2.858769
    115          1           0        9.853243   -0.180391   -4.521315
    116          1           0       10.331501    1.489531   -4.390048
    117          1           0        8.779789    1.111911   -5.082081
    118          1           0        9.202088    1.542895   -1.003260
    119          1           0       10.189531    2.389909   -2.223697
    120          1           0       11.168606   -0.365868   -1.989931
    121          1           0       10.844656    0.122399   -0.405883
    122          1           0       12.430028    1.834423   -2.252067
    123          1           0       13.228536    0.628199   -1.356588
    124          1           0       11.406039    2.544351    0.016180
    125          1           0       13.853705    3.323767   -1.465566
    126          1           0       14.120512    3.665812    0.258207
    127          1           0       12.568066    4.190884   -0.597146
    128          1           0       13.664881    2.013711    1.581120
    129          1           0       13.144533    0.465054    1.070711
    130          1           0       10.825608    1.502715    1.924894
    131          1           0       11.723759    2.794345    2.561669
    132          1           0       12.822779    1.563332    4.329481
    133          1           0       12.856759    0.124806    3.312843
    134          1           0       10.338815   -0.029448    3.630389
    135          1           0        9.649112    1.676059    5.676501
    136          1           0        9.167527    1.723639    4.095004
    137          1           0       10.601386    2.744472    4.649156
    138          1           0       10.519002   -1.310090    5.385248
    139          1           0       11.359571   -0.146122    6.413637
    140          1           0       12.288831   -1.050590    5.166977
 ---------------------------------------------------------------------

 SCF Done:  E(RwB97XD) =  -3007.87541011     A.U. after   19 cycles

 Excitation energies and oscillator strengths:

 Excited State   1:      Singlet-A      1.7053 eV  727.05 nm  f=0.3804  <S**2>=0.000
     245 -> 248       -0.19823
     246 -> 247        0.67913
     245 <- 248       -0.11676
 This state for optimization and/or second-order correction.
 Total Energy, E(TD-HF/TD-DFT) =  -3007.81274168
 Copying the excited state density for this state as the 1-particle RhoCI density.

 Excited State   2:      Singlet-A      2.1522 eV  576.07 nm  f=0.1396  <S**2>=0.000
     245 -> 247        0.64858
     246 -> 248        0.26802

 Excited State   3:      Singlet-A      3.3913 eV  365.59 nm  f=0.0003  <S**2>=0.000
     241 -> 247       -0.11720
     242 -> 247       -0.10307
     243 -> 247        0.65366
     243 -> 249        0.10685

 Excited State   4:      Singlet-A      3.5102 eV  353.21 nm  f=0.0163  <S**2>=0.000
     241 -> 247       -0.12935
     242 -> 247        0.57013
     242 -> 249        0.23568
     242 -> 250        0.19945
     243 -> 247        0.14226

 Excited State   5:      Singlet-A      3.5841 eV  345.92 nm  f=0.4046  <S**2>=0.000
     239 -> 247       -0.16601
     241 -> 247       -0.33665
     242 -> 247       -0.12445
     245 -> 247       -0.19295
     246 -> 248        0.54006

 The electronic state is 1-A.
 Alpha  occ. eigenvalues --  -46.94301 -19.30080 -19.29918 -19.26137 -19.25570
 Alpha  occ. eigenvalues --  -19.24143 -19.22686 -14.46207 -14.45912 -14.44439
 Alpha  occ. eigenvalues --  -14.43338 -10.43875 -10.43615 -10.39562 -10.37474
 Alpha  occ. eigenvalues --  -10.36409 -10.35012 -10.34959 -10.34766 -10.34250
 Alpha  occ. eigenvalues --  -10.34202 -10.33963 -10.33863 -10.33650 -10.33166
 Alpha  occ. eigenvalues --  -10.32603 -10.32124 -10.32046 -10.31977 -10.31964
 Alpha  occ. eigenvalues --  -10.31922 -10.31768 -10.31679 -10.31624 -10.31615
 Alpha  occ. eigenvalues --  -10.31454 -10.31395 -10.31391 -10.31079 -10.30606
 Alpha  occ. eigenvalues --  -10.30352 -10.30156 -10.30074 -10.30057 -10.30022
 Alpha  occ. eigenvalues --  -10.29968 -10.29956 -10.29860 -10.29825 -10.29809
 Alpha  occ. eigenvalues --  -10.29806 -10.29617 -10.29564 -10.29461 -10.29351
 Alpha  occ. eigenvalues --  -10.29205 -10.28891 -10.28835 -10.28743 -10.28729
 Alpha  occ. eigenvalues --  -10.28516 -10.28434 -10.28431 -10.28398 -10.28269
 Alpha  occ. eigenvalues --  -10.28023  -3.20495  -1.94074  -1.93640  -1.93480
 Alpha  occ. eigenvalues --   -1.18369  -1.17300  -1.12973  -1.12450  -1.10212
 Alpha  occ. eigenvalues --   -1.10175  -1.07481  -1.05866  -1.05186  -1.04311
 Alpha  occ. eigenvalues --   -0.93767  -0.92306  -0.91836  -0.91407  -0.90926
 Alpha  occ. eigenvalues --   -0.90483  -0.90002  -0.89393  -0.88855  -0.88792
 Alpha  occ. eigenvalues --   -0.87673  -0.87249  -0.86000  -0.85458  -0.85036
 Alpha  occ. eigenvalues --   -0.84271  -0.83408  -0.82461  -0.82267  -0.81786
 Alpha  occ. eigenvalues --   -0.81540  -0.80701  -0.79975  -0.79461  -0.77979
 Alpha  occ. eigenvalues --   -0.77709  -0.77667  -0.76940  -0.76658  -0.75784
 Alpha  occ. eigenvalues --   -0.75117  -0.74570  -0.73270  -0.72659  -0.70934
 Alpha  occ. eigenvalues --   -0.70600  -0.70334  -0.69527  -0.69198  -0.68038
 Alpha  occ. eigenvalues --   -0.67779  -0.67232  -0.66994  -0.66280  -0.65827
 Alpha  occ. eigenvalues --   -0.65814  -0.64435  -0.63910  -0.63420  -0.63157
 Alpha  occ. eigenvalues --   -0.62181  -0.61284  -0.60887  -0.60296  -0.59424
 Alpha  occ. eigenvalues --   -0.59340  -0.58316  -0.58107  -0.57881  -0.57292
 Alpha  occ. eigenvalues --   -0.57056  -0.56602  -0.56269  -0.56062  -0.55766
 Alpha  occ. eigenvalues --   -0.55607  -0.55403  -0.55331  -0.54702  -0.54577
 Alpha  occ. eigenvalues --   -0.54458  -0.54206  -0.54065  -0.53655  -0.53395
 Alpha  occ. eigenvalues --   -0.53143  -0.52927  -0.52571  -0.52470  -0.52366
 Alpha  occ. eigenvalues --   -0.52036  -0.51996  -0.51963  -0.51444  -0.51347
 Alpha  occ. eigenvalues --   -0.51199  -0.50966  -0.50822  -0.50699  -0.50612
 Alpha  occ. eigenvalues --   -0.50315  -0.50147  -0.49691  -0.49500  -0.49476
 Alpha  occ. eigenvalues --   -0.49219  -0.49021  -0.48990  -0.48900  -0.48847
 Alpha  occ. eigenvalues --   -0.48422  -0.48127  -0.48010  -0.47774  -0.47653
 Alpha  occ. eigenvalues --   -0.47538  -0.47251  -0.47162  -0.47111  -0.46785
 Alpha  occ. eigenvalues --   -0.46494  -0.46373  -0.46319  -0.46043  -0.45909
 Alpha  occ. eigenvalues --   -0.45654  -0.45616  -0.45442  -0.45317  -0.45058
 Alpha  occ. eigenvalues --   -0.44969  -0.44742  -0.44661  -0.44613  -0.44419
 Alpha  occ. eigenvalues --   -0.44183  -0.43826  -0.43700  -0.43605  -0.43338
 Alpha  occ. eigenvalues --   -0.43308  -0.43117  -0.42325  -0.42043  -0.41859
 Alpha  occ. eigenvalues --   -0.41817  -0.41483  -0.41354  -0.41103  -0.40942
 Alpha  occ. eigenvalues --   -0.40649  -0.40373  -0.40131  -0.39947  -0.39321
 Alpha  occ. eigenvalues --   -0.38911  -0.38851  -0.38676  -0.38543  -0.38188
 Alpha  occ. eigenvalues --   -0.37909  -0.37758  -0.36769  -0.36640  -0.36443
 Alpha  occ. eigenvalues --   -0.36277  -0.35884  -0.35093  -0.33513  -0.33203
 Alpha  occ. eigenvalues --   -0.32792  -0.31843  -0.31366  -0.31185  -0.25535
 Alpha  occ. eigenvalues --   -0.23146
 Alpha virt. eigenvalues --   -0.06923   0.00358   0.02792   0.04837   0.05868
 Alpha virt. eigenvalues --    0.06163   0.06519   0.07402   0.08454   0.08998
 Alpha virt. eigenvalues --    0.10438   0.11231   0.11680   0.12374   0.12729

 Mulliken charges:
               1
     1  Mg   0.994447
     2  C    0.009806
     3  C   -0.101630
     4  C   -0.085448
     5  C   -0.104248
     6  N   -0.272123
     7  C   -0.049864
     8  C   -0.086999
     9  C   -0.101969
    10  C    0.038286
    11  C    0.027836
    12  C    0.082792
    13  C   -0.013642
    14  C    0.203882
    15  O   -0.251304
    16  O   -0.392997
    17  N   -0.559337
    18  C    0.182592
    19  C   -0.148771
    20  C   -0.045728
    21  C    0.192017
    22  C    0.067142
    23  C    0.041254
    24  O   -0.228584
    25  C   -0.024770
    26  N   -0.389830
    27  C    0.049591
    28  C   -0.043117
    29  C   -0.067376
    30  C    0.086502
    31  C    0.015872
    32  C   -0.020316
    33  C   -0.061961
    34  N   -0.412114
    35  C    0.106399
    36  C   -0.164915
    37  C   -0.047808
    38  C    0.133038
    39  C    0.074161
    40  C    0.095718
    41  O   -0.179431
    42  C   -0.087635
    43  C    0.283995
    44  O   -0.247538
    45  O   -0.364613
    46  C    0.146011
    47  C    0.245090
    48  C   -0.166546
    49  C   -0.230005
    50  C    0.036852
    51  C    0.054689
    52  C   -0.045411
    53  C    0.014656
    54  C   -0.151956
    55  C   -0.003395
    56  C    0.007391
    57  C   -0.052854
    58  C   -0.001203
    59  C   -0.212971
    60  C    0.018413
    61  C    0.026278
    62  C   -0.048817
    63  C   -0.013158
    64  C   -0.226006
    65  C   -0.013885
    66  C    0.015666
    67  H   -0.004742
    68  H    0.013071
    69  H   -0.015300
    70  H    0.041814
    71  H    0.033288
    72  H    0.035439
    73  H    0.043111
    74  H    0.037350
    75  H    0.041529
    76  H    0.057987
    77  H    0.052089
    78  H    0.055600
    79  H    0.049767
    80  H    0.045491
    81  H    0.032684
    82  H    0.059415
    83  H    0.052653
    84  H    0.043155
    85  H    0.042255
    86  H    0.031890
    87  H    0.048071
    88  H    0.034324
    89  H    0.034125
    90  H    0.043918
    91  H    0.030630
    92  H    0.052661
    93  H    0.040009
    94  H    0.033529
    95  H    0.054138
    96  H    0.027341
    97  H    0.050820
    98  H    0.088727
    99  H    0.049235
   100  H    0.033927
   101  H    0.051119
   102  H    0.067210
   103  H    0.062503
   104  H    0.032720
   105  H    0.055404
   106  H    0.033981
   107  H    0.035490
   108  H    0.026764
   109  H    0.019873
   110  H    0.023992
   111  H    0.029833
   112  H    0.020568
   113  H    0.028234
   114  H    0.024755
   115  H    0.024658
   116  H    0.022986
   117  H    0.031276
   118  H    0.015164
   119  H    0.031690
   120  H    0.020669
   121  H    0.017203
   122  H   -0.000789
   123  H    0.015602
   124  H    0.014434
   125  H    0.030447
   126  H    0.036210
   127  H    0.035661
   128  H    0.000047
   129  H    0.021289
   130  H    0.009682
   131  H    0.017527
   132  H    0.030520
   133  H    0.013626
   134  H    0.020201
   135  H    0.014277
   136  H    0.028823
   137  H    0.045491
   138  H    0.029222
   139  H    0.028623
   140  H    0.032911
 Sum of Mulliken charges =  -0.00000

 Dipole moment (field-independent basis, Debye):
    X=              3.7900    Y=              3.6151    Z=             -1.8315  Tot=              5.5486
 Quadrupole moment (field-independent basis, Debye-Ang):
   XX=           -371.8059   YY=           -429.2111   ZZ=           -403.1656
   XY=            -21.9950   XZ=              0.3700   YZ=              6.9039

 Normal termination of Gaussian 16 at Wed May  4 12:17:03 2022.
