 Gaussian 16, Revision A.03,
 Gaussian 16:  ES64L-G16RevA.03 25-Dec-2016

 --------------------
 #p ZINDO=(nstates=5)
 --------------------

 ------------------------------
 step_1701_chromophore_15 ZINDO
 ------------------------------
 Symbolic Z-matrix:
 Charge =  0 Multiplicity = 1

                         Standard orientation:
 ---------------------------------------------------------------------
 Center     Atomic      Atomic             Coordinates (Angstroms)
 Number     Number       Type             X           Y           Z
 ---------------------------------------------------------------------
      1         12           0       -5.141540    1.084173    0.009716
      2          6           0       -4.181886   -2.281563    0.422673
      3          6           0       -1.805963    1.744628   -0.027200
      4          6           0       -5.990680    4.155097    0.098147
      5          6           0       -8.516516    0.055997    0.586224
      6          7           0       -3.178879   -0.207150    0.146735
      7          6           0       -3.048345   -1.539105    0.164528
      8          6           0       -1.645278   -1.973277   -0.192378
      9          6           0       -0.886950   -0.669858    0.108176
     10          6           0       -2.001314    0.394124    0.115250
     11          6           0        0.001574   -0.577516    1.377812
     12          6           0       -1.479945   -2.406330   -1.646809
     13          6           0       -0.418904   -3.577116   -1.845537
     14          6           0        0.696623   -3.886111   -0.858300
     15          8           0        0.736777   -4.741038    0.007657
     16          8           0        1.769763   -3.035997   -1.100288
     17          7           0       -4.091346    2.686551   -0.156596
     18          6           0       -2.711241    2.810067   -0.252153
     19          6           0       -2.379057    4.205748   -0.568810
     20          6           0       -3.615052    4.918121   -0.437835
     21          6           0       -4.624910    3.946202   -0.148362
     22          6           0       -0.947353    4.738795   -0.901626
     23          6           0       -3.768470    6.402414   -0.615134
     24          8           0       -4.849173    6.962091   -0.486613
     25          6           0       -2.558233    7.312849   -0.966679
     26          7           0       -7.018227    1.959770    0.252640
     27          6           0       -7.103341    3.312723    0.263433
     28          6           0       -8.565453    3.749426    0.410984
     29          6           0       -9.352957    2.400509    0.331478
     30          6           0       -8.265069    1.389500    0.347185
     31          6           0       -8.797018    4.722896    1.575871
     32          6           0      -10.393179    2.016666   -0.823652
     33          6           0      -11.641289    1.282905   -0.346501
     34          7           0       -6.233658   -0.724672    0.351496
     35          6           0       -7.569890   -1.003555    0.587291
     36          6           0       -7.805553   -2.411290    0.811279
     37          6           0       -6.485543   -2.940734    0.809670
     38          6           0       -5.585150   -1.905915    0.439599
     39          6           0       -9.152863   -3.107586    0.864914
     40          6           0       -5.642911   -4.123268    0.980158
     41          8           0       -5.985744   -5.189831    1.381263
     42          6           0       -4.176369   -3.743790    0.926454
     43          6           0       -3.463841   -4.889711    0.127871
     44          8           0       -3.607826   -5.112750   -1.064898
     45          8           0       -3.019259   -5.815590    1.118045
     46          6           0       -2.566199   -7.037565    0.483259
     47          6           0        3.076433   -3.487545   -0.589863
     48          6           0        3.967740   -2.775300   -1.624136
     49          6           0        5.368429   -2.784539   -1.683110
     50          6           0        6.166535   -3.770668   -0.814964
     51          6           0        6.097451   -1.978647   -2.683636
     52          6           0        6.904498   -0.795011   -2.059643
     53          6           0        8.427570   -0.646203   -2.568347
     54          6           0        8.802052    0.790359   -2.907732
     55          6           0        9.477376    0.818283   -4.297601
     56          6           0        9.791047    1.424060   -1.912996
     57          6           0       10.977386    0.534345   -1.405855
     58          6           0       12.326722    1.240175   -1.344190
     59          6           0       12.438898    2.233279   -0.142014
     60          6           0       13.366047    3.454663   -0.499379
     61          6           0       12.792580    1.490389    1.188669
     62          6           0       11.822278    1.742130    2.295747
     63          6           0       12.244048    0.972687    3.619502
     64          6           0       10.964943    0.495227    4.350879
     65          6           0       10.083723    1.785587    4.682641
     66          6           0       11.334223   -0.587423    5.417915
     67          1           0       -0.750979    2.009164    0.072068
     68          1           0       -6.295777    5.200828    0.183447
     69          1           0       -9.542071   -0.213927    0.843598
     70          1           0       -1.302481   -2.763343    0.475846
     71          1           0       -0.202671   -0.511512   -0.725287
     72          1           0       -0.067835    0.419384    1.811284
     73          1           0        1.035976   -0.828904    1.143727
     74          1           0       -0.298953   -1.287570    2.148782
     75          1           0       -1.223634   -1.561752   -2.286078
     76          1           0       -2.417360   -2.861970   -1.962844
     77          1           0        0.053194   -3.598055   -2.827473
     78          1           0       -1.062438   -4.452628   -1.928114
     79          1           0       -0.422523    5.220599   -0.077051
     80          1           0       -0.902523    5.425952   -1.746635
     81          1           0       -0.268334    3.912029   -1.112852
     82          1           0       -2.043146    7.108631   -1.905377
     83          1           0       -1.868649    7.367650   -0.123385
     84          1           0       -2.887729    8.347864   -1.053247
     85          1           0       -8.802413    4.349744   -0.467487
     86          1           0       -9.938598    2.215745    1.232583
     87          1           0       -7.879285    4.832953    2.152278
     88          1           0       -9.654032    4.478633    2.203376
     89          1           0       -9.063974    5.733046    1.265775
     90          1           0      -10.007756    1.339346   -1.585764
     91          1           0      -10.607079    2.965499   -1.315534
     92          1           0      -12.445903    1.927691   -0.699575
     93          1           0      -11.714997    0.972103    0.694765
     94          1           0      -11.644270    0.296117   -0.810491
     95          1           0       -9.165191   -4.088445    0.390849
     96          1           0       -9.882136   -2.500128    0.328658
     97          1           0       -9.544112   -3.293749    1.865165
     98          1           0       -3.847101   -3.802972    1.963493
     99          1           0       -2.198039   -7.672811    1.287751
    100          1           0       -1.726328   -6.815784   -0.175321
    101          1           0       -3.161758   -7.651529   -0.191877
    102          1           0        3.125131   -4.576541   -0.605294
    103          1           0        3.287742   -3.089443    0.402069
    104          1           0        3.417905   -2.175274   -2.347909
    105          1           0        6.567977   -4.543916   -1.469720
    106          1           0        5.515877   -4.197241   -0.052618
    107          1           0        6.975249   -3.225107   -0.328993
    108          1           0        5.458742   -1.612903   -3.487447
    109          1           0        6.752232   -2.726449   -3.132025
    110          1           0        6.916519   -0.998168   -0.988507
    111          1           0        6.328783    0.124215   -2.174523
    112          1           0        8.511190   -1.327133   -3.415093
    113          1           0        9.121105   -1.085443   -1.851505
    114          1           0        7.941805    1.457807   -2.858769
    115          1           0        9.853243   -0.180391   -4.521315
    116          1           0       10.331501    1.489531   -4.390048
    117          1           0        8.779789    1.111911   -5.082081
    118          1           0        9.202088    1.542895   -1.003260
    119          1           0       10.189531    2.389909   -2.223697
    120          1           0       11.168606   -0.365868   -1.989931
    121          1           0       10.844656    0.122399   -0.405883
    122          1           0       12.430028    1.834423   -2.252067
    123          1           0       13.228536    0.628199   -1.356588
    124          1           0       11.406039    2.544351    0.016180
    125          1           0       13.853705    3.323767   -1.465566
    126          1           0       14.120512    3.665812    0.258207
    127          1           0       12.568066    4.190884   -0.597146
    128          1           0       13.664881    2.013711    1.581120
    129          1           0       13.144533    0.465054    1.070711
    130          1           0       10.825608    1.502715    1.924894
    131          1           0       11.723759    2.794345    2.561669
    132          1           0       12.822779    1.563332    4.329481
    133          1           0       12.856759    0.124806    3.312843
    134          1           0       10.338815   -0.029448    3.630389
    135          1           0        9.649112    1.676059    5.676501
    136          1           0        9.167527    1.723639    4.095004
    137          1           0       10.601386    2.744472    4.649156
    138          1           0       10.519002   -1.310090    5.385248
    139          1           0       11.359571   -0.146122    6.413637
    140          1           0       12.288831   -1.050590    5.166977
 ---------------------------------------------------------------------

 SCF Done:  E(RZINDO/S) =  -474.252957309     A.U. after   20 cycles

 Excitation energies and oscillator strengths:

 Excited State   1:      Singlet-A      1.2626 eV  982.00 nm  f=0.6035  <S**2>=0.000
     175 ->178         0.20064
     176 ->177         0.66039
 This state for optimization and/or second-order correction.
 Total Energy, E(CIS/TDA) =  -474.206558803
 Copying the excited state density for this state as the 1-particle RhoCI density.

 Excited State   2:      Singlet-A      1.8993 eV  652.78 nm  f=0.0807  <S**2>=0.000
     175 ->177         0.57138
     176 ->178        -0.39067

 Excited State   3:      Singlet-A      2.8741 eV  431.38 nm  f=0.0155  <S**2>=0.000
     170 ->177         0.31883
     170 ->179         0.29026
     170 ->180         0.22729
     170 ->182         0.27288
     170 ->186         0.18749
     170 ->187        -0.15429

 Excited State   4:      Singlet-A      2.9675 eV  417.80 nm  f=0.0011  <S**2>=0.000
     168 ->177         0.30664
     168 ->178        -0.15966
     168 ->179        -0.42174
     168 ->180         0.20259
     168 ->182         0.19811
     168 ->186        -0.22613
     168 ->187        -0.12362

 Excited State   5:      Singlet-A      3.0534 eV  406.05 nm  f=1.2124  <S**2>=0.000
     171 ->177        -0.10381
     175 ->177         0.36755
     176 ->178         0.55828

 The electronic state is 1-A.
 Alpha  occ. eigenvalues --   -1.84306  -1.81936  -1.81579  -1.73141  -1.71924
 Alpha  occ. eigenvalues --   -1.70004  -1.66064  -1.60372  -1.59358  -1.58594
 Alpha  occ. eigenvalues --   -1.54727  -1.51252  -1.48682  -1.47585  -1.47097
 Alpha  occ. eigenvalues --   -1.45057  -1.43177  -1.39704  -1.38511  -1.36838
 Alpha  occ. eigenvalues --   -1.36277  -1.33013  -1.32014  -1.30979  -1.28729
 Alpha  occ. eigenvalues --   -1.26967  -1.24849  -1.20563  -1.19641  -1.18042
 Alpha  occ. eigenvalues --   -1.17667  -1.16270  -1.15310  -1.14664  -1.13110
 Alpha  occ. eigenvalues --   -1.12899  -1.11587  -1.10694  -1.05237  -1.03195
 Alpha  occ. eigenvalues --   -1.02172  -1.01524  -0.99830  -0.97975  -0.97576
 Alpha  occ. eigenvalues --   -0.96393  -0.95234  -0.94337  -0.93595  -0.92262
 Alpha  occ. eigenvalues --   -0.91030  -0.90096  -0.89305  -0.87596  -0.86438
 Alpha  occ. eigenvalues --   -0.85922  -0.85099  -0.83449  -0.82655  -0.80337
 Alpha  occ. eigenvalues --   -0.80273  -0.79059  -0.77557  -0.77020  -0.75705
 Alpha  occ. eigenvalues --   -0.75238  -0.74913  -0.74431  -0.73713  -0.73022
 Alpha  occ. eigenvalues --   -0.72123  -0.71467  -0.71397  -0.70694  -0.70226
 Alpha  occ. eigenvalues --   -0.69225  -0.68768  -0.68531  -0.68066  -0.67695
 Alpha  occ. eigenvalues --   -0.67577  -0.67098  -0.66732  -0.66263  -0.65868
 Alpha  occ. eigenvalues --   -0.65722  -0.64304  -0.64057  -0.63587  -0.63497
 Alpha  occ. eigenvalues --   -0.62620  -0.62320  -0.61937  -0.61506  -0.61443
 Alpha  occ. eigenvalues --   -0.61144  -0.61070  -0.60406  -0.60215  -0.59893
 Alpha  occ. eigenvalues --   -0.59525  -0.59240  -0.58820  -0.58350  -0.57940
 Alpha  occ. eigenvalues --   -0.57702  -0.57519  -0.57435  -0.57030  -0.56426
 Alpha  occ. eigenvalues --   -0.56345  -0.55669  -0.55586  -0.55162  -0.54946
 Alpha  occ. eigenvalues --   -0.54020  -0.53796  -0.53733  -0.53393  -0.52454
 Alpha  occ. eigenvalues --   -0.52310  -0.52172  -0.52097  -0.51850  -0.51793
 Alpha  occ. eigenvalues --   -0.51407  -0.50736  -0.50601  -0.50497  -0.50433
 Alpha  occ. eigenvalues --   -0.49819  -0.49730  -0.49498  -0.49391  -0.48708
 Alpha  occ. eigenvalues --   -0.48658  -0.48461  -0.48196  -0.48133  -0.47602
 Alpha  occ. eigenvalues --   -0.47583  -0.47255  -0.46976  -0.46909  -0.46834
 Alpha  occ. eigenvalues --   -0.46348  -0.46276  -0.46095  -0.45566  -0.45191
 Alpha  occ. eigenvalues --   -0.45137  -0.45101  -0.44767  -0.44638  -0.44055
 Alpha  occ. eigenvalues --   -0.43839  -0.43405  -0.42682  -0.42670  -0.42369
 Alpha  occ. eigenvalues --   -0.42065  -0.41969  -0.41577  -0.39268  -0.38979
 Alpha  occ. eigenvalues --   -0.38122  -0.37108  -0.35694  -0.34539  -0.33825
 Alpha  occ. eigenvalues --   -0.33761  -0.32308  -0.32013  -0.31349  -0.26260
 Alpha  occ. eigenvalues --   -0.21885
 Alpha virt. eigenvalues --   -0.08555  -0.01837  -0.00251   0.01038   0.02019
 Alpha virt. eigenvalues --    0.02336   0.02997   0.03149   0.04125   0.05092
 Alpha virt. eigenvalues --    0.06535   0.06755   0.06845   0.07952   0.08271

 Mulliken charges:
               1
     1  Mg   0.429782
     2  C   -0.046844
     3  C   -0.072059
     4  C   -0.072559
     5  C   -0.071696
     6  N   -0.279001
     7  C    0.121263
     8  C    0.018929
     9  C    0.003333
    10  C    0.139596
    11  C   -0.050058
    12  C   -0.007640
    13  C   -0.007518
    14  C    0.471303
    15  O   -0.510032
    16  O   -0.287748
    17  N   -0.325101
    18  C    0.111319
    19  C    0.001726
    20  C   -0.033219
    21  C    0.157608
    22  C   -0.044349
    23  C    0.325365
    24  O   -0.516559
    25  C   -0.034689
    26  N   -0.277713
    27  C    0.149853
    28  C    0.018042
    29  C   -0.002329
    30  C    0.123679
    31  C   -0.048440
    32  C   -0.025711
    33  C   -0.059530
    34  N   -0.326866
    35  C    0.093979
    36  C    0.016934
    37  C   -0.053113
    38  C    0.099746
    39  C   -0.033385
    40  C    0.340808
    41  O   -0.511042
    42  C    0.048550
    43  C    0.470403
    44  O   -0.499204
    45  O   -0.254224
    46  C    0.073243
    47  C    0.106691
    48  C   -0.115556
    49  C   -0.012468
    50  C   -0.042615
    51  C   -0.013467
    52  C   -0.040415
    53  C   -0.033194
    54  C   -0.000155
    55  C   -0.057953
    56  C   -0.028359
    57  C   -0.033913
    58  C   -0.038372
    59  C   -0.024848
    60  C   -0.063300
    61  C   -0.037423
    62  C   -0.032668
    63  C   -0.038201
    64  C   -0.022103
    65  C   -0.060595
    66  C   -0.055760
    67  H    0.017915
    68  H    0.033240
    69  H    0.024959
    70  H    0.036025
    71  H    0.023188
    72  H    0.022951
    73  H    0.022031
    74  H    0.022228
    75  H    0.030642
    76  H    0.036373
    77  H    0.035427
    78  H    0.037284
    79  H    0.031723
    80  H    0.033534
    81  H    0.017911
    82  H    0.039515
    83  H    0.034281
    84  H    0.028044
    85  H    0.029460
    86  H    0.027827
    87  H    0.027578
    88  H    0.020336
    89  H    0.019534
    90  H    0.027379
    91  H    0.017118
    92  H    0.025086
    93  H    0.027927
    94  H    0.015931
    95  H    0.032016
    96  H    0.018468
    97  H    0.033611
    98  H    0.062233
    99  H    0.024435
   100  H    0.030867
   101  H    0.053431
   102  H    0.060332
   103  H    0.051853
   104  H    0.035265
   105  H    0.033980
   106  H    0.025171
   107  H    0.025851
   108  H    0.021975
   109  H    0.021218
   110  H    0.017541
   111  H    0.024969
   112  H    0.018637
   113  H    0.026014
   114  H    0.023411
   115  H    0.018500
   116  H    0.017151
   117  H    0.013981
   118  H    0.005962
   119  H    0.028268
   120  H    0.012112
   121  H    0.017292
   122  H    0.005150
   123  H    0.018265
   124  H    0.018047
   125  H    0.022293
   126  H    0.028427
   127  H    0.021751
   128  H    0.004197
   129  H    0.029361
   130  H    0.016916
   131  H    0.017248
   132  H    0.024610
   133  H    0.014484
   134  H    0.012114
   135  H    0.008072
   136  H    0.020818
   137  H    0.033174
   138  H    0.017197
   139  H    0.021058
   140  H    0.026671
 Sum of Mulliken charges =  -0.00000

 Dipole moment (field-independent basis, Debye):
    X=              6.3033    Y=              5.3316    Z=             -1.9331  Tot=              8.4791
 N-N= 4.300301817534D+03 E-N= 0.000000000000D+00  KE=-9.275061195341D+03
 Leave Link  601 at Wed May  4 12:30:30 2022, MaxMem=  6710886400 cpu:               0.8 elap:               0.0
 (Enter /sw/apps/gaussian-16.0/g16/l9999.exe)
 1\1\GINC-BP1-COMPUTE049\SP\RZINDO CIS\STO-3G\C55H74Mg1N4O6\OF15641\04-
 May-2022\0\\#p ZINDO=(nstates=5)\\step_1701_chromophore_15 ZINDO\\0,1\
 Mg,0,46.939,34.748,27.732\C,0,45.472,33.11,30.486\C,0,46.945,37.504,29
 .724\C,0,47.833,36.341,25.12\C,0,46.312,31.799,25.811\N,0,46.288,35.21
 4,29.945\C,0,45.863,34.369,30.892\C,0,45.977,34.968,32.275\C,0,46.03,3
 6.46,31.907\C,0,46.418,36.443,30.416\C,0,44.789,37.356,32.166\C,0,47.2
 2,34.526,33.043\C,0,46.986,34.398,34.613\C,0,45.878,35.119,35.366\O,0,

 Normal termination of Gaussian 16 at Wed May  4 12:30:30 2022.
