 Gaussian 16, Revision A.03,
 Gaussian 16:  ES64L-G16RevA.03 25-Dec-2016

 ------------------------------
 #p blyp/Def2SVP td=(nstates=5)
 ------------------------------

 -------------------------------------------------
 step_751_chromophore_6 TDDFT with blyp functional
 -------------------------------------------------
 Symbolic Z-matrix:
 Charge =  0 Multiplicity = 1

                         Standard orientation:
 ---------------------------------------------------------------------
 Center     Atomic      Atomic             Coordinates (Angstroms)
 Number     Number       Type             X           Y           Z
 ---------------------------------------------------------------------
      1         12           0        5.429501    0.958853    0.328923
      2          6           0        4.166781   -2.286342    0.525734
      3          6           0        2.148584    2.098546   -0.170409
      4          6           0        6.634015    4.005201   -0.376568
      5          6           0        8.758630   -0.296671    0.369622
      6          7           0        3.399783    0.013886    0.065454
      7          6           0        3.167993   -1.288728    0.406044
      8          6           0        1.682243   -1.555828    0.199749
      9          6           0        0.965399   -0.139015    0.074166
     10          6           0        2.261988    0.733472   -0.072529
     11          6           0       -0.045425    0.015355   -1.199829
     12          6           0        1.051242   -2.394418    1.387315
     13          6           0        0.280206   -3.715097    1.064279
     14          6           0       -0.585783   -3.634088   -0.191771
     15          8           0       -0.241508   -4.075280   -1.328102
     16          8           0       -1.801774   -3.151170    0.109396
     17          7           0        4.513029    2.866400   -0.056359
     18          6           0        3.170491    3.132525   -0.171505
     19          6           0        3.009929    4.596293   -0.313162
     20          6           0        4.323412    5.149859   -0.425312
     21          6           0        5.229083    3.998368   -0.311808
     22          6           0        1.617179    5.244147   -0.370066
     23          6           0        4.753702    6.574740   -0.703283
     24          8           0        5.934291    6.839235   -0.972614
     25          6           0        3.705966    7.766958   -0.572388
     26          7           0        7.362652    1.732787   -0.046102
     27          6           0        7.603932    3.032569   -0.195564
     28          6           0        9.144398    3.382082   -0.421199
     29          6           0        9.821729    2.034442    0.070636
     30          6           0        8.590785    1.072180    0.137723
     31          6           0        9.512244    3.805381   -1.858591
     32          6           0       10.701844    2.202795    1.284579
     33          6           0       12.071237    1.459749    1.339505
     34          7           0        6.320200   -0.968419    0.422697
     35          6           0        7.686552   -1.330279    0.454406
     36          6           0        7.768491   -2.778832    0.674446
     37          6           0        6.404835   -3.263538    0.640449
     38          6           0        5.564457   -2.114530    0.535689
     39          6           0        9.000590   -3.641193    0.975956
     40          6           0        5.489887   -4.364191    0.784445
     41          8           0        5.680831   -5.574027    0.897256
     42          6           0        4.055199   -3.812495    0.698679
     43          6           0        3.409360   -4.609640   -0.400358
     44          8           0        3.353855   -4.272364   -1.586055
     45          8           0        2.951314   -5.768640    0.075618
     46          6           0        2.368619   -6.715288   -0.915369
     47          6           0       -2.717522   -3.289585   -0.970297
     48          6           0       -4.075321   -2.965312   -0.412807
     49          6           0       -5.255506   -3.627054   -0.383477
     50          6           0       -5.531164   -4.954589   -1.044719
     51          6           0       -6.452203   -3.036289    0.348586
     52          6           0       -6.721817   -1.564394    0.014534
     53          6           0       -8.192437   -1.205031   -0.404055
     54          6           0       -8.654074    0.300305   -0.146058
     55          6           0       -9.530894    0.438372    1.147358
     56          6           0       -9.202989    1.001401   -1.457866
     57          6           0      -10.584520    0.315910   -1.948190
     58          6           0      -11.756206    1.193166   -2.536927
     59          6           0      -13.119006    0.789377   -1.910283
     60          6           0      -14.262578    0.968934   -2.857643
     61          6           0      -13.483091    1.787297   -0.783805
     62          6           0      -13.337792    1.183163    0.661070
     63          6           0      -12.660399    2.217011    1.746320
     64          6           0      -13.411274    2.370523    3.077221
     65          6           0      -12.450251    3.192077    3.981488
     66          6           0      -14.835894    2.946748    2.921648
     67          1           0        1.128698    2.487259   -0.123521
     68          1           0        7.258813    4.871252   -0.608425
     69          1           0        9.816280   -0.566746    0.386741
     70          1           0        1.627022   -2.113907   -0.735009
     71          1           0        0.415821    0.082120    0.988966
     72          1           0        0.511622    0.430038   -2.039496
     73          1           0       -1.008477    0.501903   -1.046019
     74          1           0       -0.340333   -0.976138   -1.543470
     75          1           0        0.268144   -1.811994    1.871970
     76          1           0        1.841655   -2.585220    2.113219
     77          1           0       -0.304891   -3.903577    1.964800
     78          1           0        0.943509   -4.575833    0.980207
     79          1           0        1.497755    6.200765    0.139052
     80          1           0        0.832936    4.622650    0.060788
     81          1           0        1.369320    5.385453   -1.421956
     82          1           0        3.056002    7.868412   -1.440479
     83          1           0        4.366631    8.632574   -0.621393
     84          1           0        3.257704    7.702825    0.418719
     85          1           0        9.492223    4.191985    0.219298
     86          1           0       10.436174    1.612618   -0.723825
     87          1           0        9.891340    2.913812   -2.357256
     88          1           0       10.220630    4.631716   -1.801061
     89          1           0        8.685526    4.258832   -2.404530
     90          1           0       10.050363    1.800621    2.060444
     91          1           0       10.901872    3.243481    1.538823
     92          1           0       12.882209    2.141151    1.080704
     93          1           0       11.995750    0.716647    0.545387
     94          1           0       12.199113    0.911525    2.273486
     95          1           0        9.613637   -3.700819    0.076921
     96          1           0        8.577883   -4.468785    1.546545
     97          1           0        9.631043   -3.084570    1.670556
     98          1           0        3.599894   -3.990482    1.672888
     99          1           0        3.111056   -7.478454   -1.148768
    100          1           0        2.033202   -6.183527   -1.806075
    101          1           0        1.528244   -7.234932   -0.453985
    102          1           0       -2.688486   -4.348284   -1.229380
    103          1           0       -2.476277   -2.594593   -1.775637
    104          1           0       -4.106031   -1.992159    0.076580
    105          1           0       -6.019426   -4.666281   -1.975969
    106          1           0       -6.235128   -5.578391   -0.493854
    107          1           0       -4.585157   -5.481318   -1.170726
    108          1           0       -6.212102   -3.173282    1.403823
    109          1           0       -7.377563   -3.593590    0.204511
    110          1           0       -6.138180   -1.312207   -0.870488
    111          1           0       -6.423377   -1.078784    0.944064
    112          1           0       -8.912029   -1.848570    0.102267
    113          1           0       -8.389932   -1.359515   -1.464743
    114          1           0       -7.815121    0.929117    0.153705
    115          1           0      -10.578380    0.519704    0.853915
    116          1           0       -9.427758    1.275454    1.837869
    117          1           0       -9.382499   -0.409048    1.816290
    118          1           0       -8.434853    1.020348   -2.230458
    119          1           0       -9.446496    2.032617   -1.201580
    120          1           0      -11.020982   -0.245505   -1.123037
    121          1           0      -10.322587   -0.336437   -2.781346
    122          1           0      -11.808496    0.984319   -3.605977
    123          1           0      -11.459352    2.242143   -2.503004
    124          1           0      -12.999242   -0.125515   -1.328608
    125          1           0      -13.964105    0.548203   -3.818507
    126          1           0      -14.421830    2.040111   -2.977044
    127          1           0      -15.171595    0.536940   -2.438850
    128          1           0      -14.541504    2.048079   -0.802667
    129          1           0      -12.858195    2.681313   -0.791288
    130          1           0      -12.665199    0.324823    0.646222
    131          1           0      -14.320647    0.940983    1.065058
    132          1           0      -12.480015    3.168407    1.245340
    133          1           0      -11.687320    1.802073    2.011285
    134          1           0      -13.539610    1.403834    3.564089
    135          1           0      -11.409051    2.912095    3.818215
    136          1           0      -12.795361    3.151862    5.015042
    137          1           0      -12.613452    4.233026    3.703689
    138          1           0      -15.014249    3.749578    3.637515
    139          1           0      -15.631803    2.218094    3.076400
    140          1           0      -14.883838    3.287734    1.887298
 ---------------------------------------------------------------------

 SCF Done:  E(RB-LYP) =  -3007.38628313     A.U. after   21 cycles

 Excitation energies and oscillator strengths:

 Excited State   1:      Singlet-A      1.7670 eV  701.65 nm  f=0.0074  <S**2>=0.000
     244 -> 247        0.69775
     246 -> 247       -0.10124
 This state for optimization and/or second-order correction.
 Total Energy, E(TD-HF/TD-DFT) =  -3007.32134606
 Copying the excited state density for this state as the 1-particle RhoCI density.

 Excited State   2:      Singlet-A      1.8095 eV  685.20 nm  f=0.3324  <S**2>=0.000
     244 -> 247        0.10212
     245 -> 248        0.17535
     246 -> 247        0.68410
     246 <- 247       -0.15526

 Excited State   3:      Singlet-A      1.9372 eV  640.01 nm  f=0.0138  <S**2>=0.000
     243 -> 247        0.63592
     245 -> 247       -0.28448

 Excited State   4:      Singlet-A      1.9664 eV  630.51 nm  f=0.0722  <S**2>=0.000
     243 -> 247        0.30149
     245 -> 247        0.59184
     246 -> 248       -0.18952

 Excited State   5:      Singlet-A      2.3143 eV  535.72 nm  f=0.0018  <S**2>=0.000
     241 -> 247        0.68071
     242 -> 247       -0.18572

 The electronic state is 1-A.
 Alpha  occ. eigenvalues --  -46.27938 -18.83327 -18.81513 -18.76944 -18.75941
 Alpha  occ. eigenvalues --  -18.75119 -18.74824 -14.03355 -14.03242 -14.01386
 Alpha  occ. eigenvalues --  -14.00893 -10.04439 -10.02962 -10.00424  -9.99047
 Alpha  occ. eigenvalues --   -9.98128  -9.96758  -9.96588  -9.96578  -9.96444
 Alpha  occ. eigenvalues --   -9.96437  -9.96239  -9.96087  -9.96072  -9.94771
 Alpha  occ. eigenvalues --   -9.94715  -9.94466  -9.94264  -9.93836  -9.93824
 Alpha  occ. eigenvalues --   -9.93644  -9.93618  -9.93589  -9.93534  -9.93510
 Alpha  occ. eigenvalues --   -9.93451  -9.93442  -9.93234  -9.93092  -9.93034
 Alpha  occ. eigenvalues --   -9.92835  -9.92625  -9.92546  -9.92429  -9.92382
 Alpha  occ. eigenvalues --   -9.92309  -9.92253  -9.92224  -9.92184  -9.92142
 Alpha  occ. eigenvalues --   -9.92023  -9.92010  -9.91829  -9.91641  -9.91638
 Alpha  occ. eigenvalues --   -9.91538  -9.91495  -9.91294  -9.91251  -9.91235
 Alpha  occ. eigenvalues --   -9.91231  -9.91034  -9.90974  -9.90877  -9.90860
 Alpha  occ. eigenvalues --   -9.90672  -2.92349  -1.72777  -1.72229  -1.72064
 Alpha  occ. eigenvalues --   -0.99816  -0.97285  -0.90836  -0.90396  -0.88836
 Alpha  occ. eigenvalues --   -0.88038  -0.86048  -0.85561  -0.84903  -0.83755
 Alpha  occ. eigenvalues --   -0.74964  -0.73910  -0.73126  -0.72486  -0.72060
 Alpha  occ. eigenvalues --   -0.71309  -0.71207  -0.70939  -0.70252  -0.69709
 Alpha  occ. eigenvalues --   -0.69006  -0.68877  -0.67501  -0.67112  -0.66875
 Alpha  occ. eigenvalues --   -0.66001  -0.65486  -0.65043  -0.64652  -0.64069
 Alpha  occ. eigenvalues --   -0.63889  -0.62493  -0.61874  -0.61543  -0.60695
 Alpha  occ. eigenvalues --   -0.60447  -0.60332  -0.59848  -0.59756  -0.58484
 Alpha  occ. eigenvalues --   -0.58310  -0.57606  -0.56105  -0.55248  -0.54411
 Alpha  occ. eigenvalues --   -0.53786  -0.53543  -0.52743  -0.52490  -0.51513
 Alpha  occ. eigenvalues --   -0.51435  -0.51162  -0.50704  -0.50293  -0.50026
 Alpha  occ. eigenvalues --   -0.49881  -0.48525  -0.48051  -0.47691  -0.46813
 Alpha  occ. eigenvalues --   -0.46414  -0.46024  -0.44998  -0.44648  -0.44563
 Alpha  occ. eigenvalues --   -0.44104  -0.43757  -0.42797  -0.42228  -0.42092
 Alpha  occ. eigenvalues --   -0.41694  -0.41610  -0.41504  -0.41186  -0.40970
 Alpha  occ. eigenvalues --   -0.40841  -0.40626  -0.40098  -0.39988  -0.39715
 Alpha  occ. eigenvalues --   -0.39572  -0.39455  -0.39333  -0.39296  -0.39084
 Alpha  occ. eigenvalues --   -0.38707  -0.38561  -0.38381  -0.38208  -0.38118
 Alpha  occ. eigenvalues --   -0.38064  -0.37923  -0.37487  -0.37461  -0.37193
 Alpha  occ. eigenvalues --   -0.37042  -0.36951  -0.36622  -0.36521  -0.36313
 Alpha  occ. eigenvalues --   -0.36205  -0.35912  -0.35772  -0.35554  -0.35280
 Alpha  occ. eigenvalues --   -0.35224  -0.35118  -0.34905  -0.34697  -0.34401
 Alpha  occ. eigenvalues --   -0.34346  -0.34127  -0.34019  -0.33701  -0.33552
 Alpha  occ. eigenvalues --   -0.33312  -0.33224  -0.33093  -0.33041  -0.32896
 Alpha  occ. eigenvalues --   -0.32725  -0.32645  -0.32614  -0.32274  -0.32210
 Alpha  occ. eigenvalues --   -0.32043  -0.31822  -0.31765  -0.31503  -0.31180
 Alpha  occ. eigenvalues --   -0.31009  -0.30899  -0.30587  -0.30502  -0.30337
 Alpha  occ. eigenvalues --   -0.30218  -0.30031  -0.29994  -0.29888  -0.29773
 Alpha  occ. eigenvalues --   -0.29550  -0.29507  -0.29236  -0.29083  -0.28848
 Alpha  occ. eigenvalues --   -0.28505  -0.28274  -0.28050  -0.27814  -0.27711
 Alpha  occ. eigenvalues --   -0.27483  -0.27373  -0.27300  -0.27054  -0.26132
 Alpha  occ. eigenvalues --   -0.26038  -0.25920  -0.25884  -0.25776  -0.25125
 Alpha  occ. eigenvalues --   -0.25091  -0.24809  -0.24093  -0.23671  -0.23472
 Alpha  occ. eigenvalues --   -0.23295  -0.22228  -0.21858  -0.20832  -0.20554
 Alpha  occ. eigenvalues --   -0.20317  -0.19962  -0.18849  -0.18207  -0.17268
 Alpha  occ. eigenvalues --   -0.15998
 Alpha virt. eigenvalues --   -0.11808  -0.06712  -0.06323  -0.04754  -0.03959
 Alpha virt. eigenvalues --   -0.02686  -0.01959  -0.01531  -0.01244   0.00436
 Alpha virt. eigenvalues --    0.01516   0.02082   0.02155   0.02759   0.03062

 Mulliken charges:
               1
     1  Mg   0.682012
     2  C    0.112112
     3  C   -0.020310
     4  C   -0.003371
     5  C   -0.046547
     6  N   -0.193894
     7  C   -0.082309
     8  C   -0.001841
     9  C   -0.014681
    10  C    0.023841
    11  C    0.101678
    12  C    0.071723
    13  C    0.154244
    14  C    0.086277
    15  O   -0.239286
    16  O   -0.235972
    17  N   -0.262700
    18  C    0.092193
    19  C   -0.125019
    20  C    0.064773
    21  C    0.137586
    22  C    0.150954
    23  C   -0.085456
    24  O   -0.171072
    25  C    0.103268
    26  N   -0.230589
    27  C   -0.048753
    28  C   -0.015024
    29  C    0.013754
    30  C    0.019340
    31  C    0.133591
    32  C    0.097790
    33  C    0.066658
    34  N   -0.286991
    35  C    0.128569
    36  C   -0.209494
    37  C    0.123498
    38  C    0.004180
    39  C    0.199658
    40  C   -0.098541
    41  O   -0.141464
    42  C    0.053884
    43  C    0.119649
    44  O   -0.193260
    45  O   -0.249695
    46  C    0.206328
    47  C    0.347027
    48  C   -0.111242
    49  C   -0.194940
    50  C    0.152939
    51  C    0.138357
    52  C    0.081214
    53  C    0.092222
    54  C   -0.059537
    55  C    0.060526
    56  C    0.092605
    57  C    0.016339
    58  C    0.124167
    59  C   -0.082212
    60  C    0.141516
    61  C    0.088033
    62  C    0.039806
    63  C    0.046656
    64  C   -0.094956
    65  C    0.106902
    66  C    0.115944
    67  H   -0.067429
    68  H   -0.049056
    69  H   -0.065900
    70  H    0.028726
    71  H   -0.013584
    72  H   -0.001722
    73  H   -0.005419
    74  H   -0.006757
    75  H   -0.019829
    76  H   -0.014242
    77  H   -0.018389
    78  H    0.001484
    79  H   -0.004018
    80  H   -0.008141
    81  H    0.008149
    82  H    0.015801
    83  H   -0.011645
    84  H    0.019910
    85  H   -0.021749
    86  H   -0.029169
    87  H   -0.002038
    88  H   -0.008933
    89  H    0.000622
    90  H   -0.028693
    91  H   -0.016870
    92  H    0.002012
    93  H   -0.015454
    94  H    0.002201
    95  H    0.010227
    96  H    0.022434
    97  H   -0.022152
    98  H    0.001936
    99  H    0.021528
   100  H    0.042985
   101  H    0.008731
   102  H   -0.016169
   103  H    0.010386
   104  H   -0.042891
   105  H    0.007443
   106  H   -0.007347
   107  H   -0.005662
   108  H   -0.010355
   109  H   -0.043616
   110  H   -0.011341
   111  H   -0.017471
   112  H   -0.034048
   113  H   -0.035616
   114  H   -0.037336
   115  H   -0.005024
   116  H   -0.010438
   117  H   -0.019607
   118  H   -0.020771
   119  H   -0.033944
   120  H   -0.013828
   121  H   -0.019069
   122  H   -0.049303
   123  H   -0.034519
   124  H   -0.024838
   125  H   -0.026163
   126  H   -0.012960
   127  H   -0.011965
   128  H   -0.029925
   129  H   -0.030520
   130  H   -0.019860
   131  H   -0.030913
   132  H   -0.029871
   133  H   -0.038127
   134  H   -0.037228
   135  H   -0.010571
   136  H   -0.021061
   137  H   -0.026341
   138  H   -0.019944
   139  H   -0.012328
   140  H   -0.015070
 Sum of Mulliken charges =  -0.00000

 Dipole moment (field-independent basis, Debye):
    X=             -4.1795    Y=              2.6548    Z=              2.9781  Tot=              5.7780
 Quadrupole moment (field-independent basis, Debye-Ang):
   XX=           -374.0088   YY=           -428.2341   ZZ=           -409.2035
   XY=             22.2891   XZ=             11.6314   YZ=             -0.5341

 Normal termination of Gaussian 16 at Thu May  5 09:34:17 2022.
