 Gaussian 16, Revision A.03,
 Gaussian 16:  ES64L-G16RevA.03 25-Dec-2016

 -----------------------------------
 #p cam-b3lyp/Def2SVP td=(nstates=5)
 -----------------------------------

 ------------------------------------------------------
 step_751_chromophore_6 TDDFT with cam-b3lyp functional
 ------------------------------------------------------
 Symbolic Z-matrix:
 Charge =  0 Multiplicity = 1

                         Standard orientation:
 ---------------------------------------------------------------------
 Center     Atomic      Atomic             Coordinates (Angstroms)
 Number     Number       Type             X           Y           Z
 ---------------------------------------------------------------------
      1         12           0        5.429501    0.958853    0.328923
      2          6           0        4.166781   -2.286342    0.525734
      3          6           0        2.148584    2.098546   -0.170409
      4          6           0        6.634015    4.005201   -0.376568
      5          6           0        8.758630   -0.296671    0.369622
      6          7           0        3.399783    0.013886    0.065454
      7          6           0        3.167993   -1.288728    0.406044
      8          6           0        1.682243   -1.555828    0.199749
      9          6           0        0.965399   -0.139015    0.074166
     10          6           0        2.261988    0.733472   -0.072529
     11          6           0       -0.045425    0.015355   -1.199829
     12          6           0        1.051242   -2.394418    1.387315
     13          6           0        0.280206   -3.715097    1.064279
     14          6           0       -0.585783   -3.634088   -0.191771
     15          8           0       -0.241508   -4.075280   -1.328102
     16          8           0       -1.801774   -3.151170    0.109396
     17          7           0        4.513029    2.866400   -0.056359
     18          6           0        3.170491    3.132525   -0.171505
     19          6           0        3.009929    4.596293   -0.313162
     20          6           0        4.323412    5.149859   -0.425312
     21          6           0        5.229083    3.998368   -0.311808
     22          6           0        1.617179    5.244147   -0.370066
     23          6           0        4.753702    6.574740   -0.703283
     24          8           0        5.934291    6.839235   -0.972614
     25          6           0        3.705966    7.766958   -0.572388
     26          7           0        7.362652    1.732787   -0.046102
     27          6           0        7.603932    3.032569   -0.195564
     28          6           0        9.144398    3.382082   -0.421199
     29          6           0        9.821729    2.034442    0.070636
     30          6           0        8.590785    1.072180    0.137723
     31          6           0        9.512244    3.805381   -1.858591
     32          6           0       10.701844    2.202795    1.284579
     33          6           0       12.071237    1.459749    1.339505
     34          7           0        6.320200   -0.968419    0.422697
     35          6           0        7.686552   -1.330279    0.454406
     36          6           0        7.768491   -2.778832    0.674446
     37          6           0        6.404835   -3.263538    0.640449
     38          6           0        5.564457   -2.114530    0.535689
     39          6           0        9.000590   -3.641193    0.975956
     40          6           0        5.489887   -4.364191    0.784445
     41          8           0        5.680831   -5.574027    0.897256
     42          6           0        4.055199   -3.812495    0.698679
     43          6           0        3.409360   -4.609640   -0.400358
     44          8           0        3.353855   -4.272364   -1.586055
     45          8           0        2.951314   -5.768640    0.075618
     46          6           0        2.368619   -6.715288   -0.915369
     47          6           0       -2.717522   -3.289585   -0.970297
     48          6           0       -4.075321   -2.965312   -0.412807
     49          6           0       -5.255506   -3.627054   -0.383477
     50          6           0       -5.531164   -4.954589   -1.044719
     51          6           0       -6.452203   -3.036289    0.348586
     52          6           0       -6.721817   -1.564394    0.014534
     53          6           0       -8.192437   -1.205031   -0.404055
     54          6           0       -8.654074    0.300305   -0.146058
     55          6           0       -9.530894    0.438372    1.147358
     56          6           0       -9.202989    1.001401   -1.457866
     57          6           0      -10.584520    0.315910   -1.948190
     58          6           0      -11.756206    1.193166   -2.536927
     59          6           0      -13.119006    0.789377   -1.910283
     60          6           0      -14.262578    0.968934   -2.857643
     61          6           0      -13.483091    1.787297   -0.783805
     62          6           0      -13.337792    1.183163    0.661070
     63          6           0      -12.660399    2.217011    1.746320
     64          6           0      -13.411274    2.370523    3.077221
     65          6           0      -12.450251    3.192077    3.981488
     66          6           0      -14.835894    2.946748    2.921648
     67          1           0        1.128698    2.487259   -0.123521
     68          1           0        7.258813    4.871252   -0.608425
     69          1           0        9.816280   -0.566746    0.386741
     70          1           0        1.627022   -2.113907   -0.735009
     71          1           0        0.415821    0.082120    0.988966
     72          1           0        0.511622    0.430038   -2.039496
     73          1           0       -1.008477    0.501903   -1.046019
     74          1           0       -0.340333   -0.976138   -1.543470
     75          1           0        0.268144   -1.811994    1.871970
     76          1           0        1.841655   -2.585220    2.113219
     77          1           0       -0.304891   -3.903577    1.964800
     78          1           0        0.943509   -4.575833    0.980207
     79          1           0        1.497755    6.200765    0.139052
     80          1           0        0.832936    4.622650    0.060788
     81          1           0        1.369320    5.385453   -1.421956
     82          1           0        3.056002    7.868412   -1.440479
     83          1           0        4.366631    8.632574   -0.621393
     84          1           0        3.257704    7.702825    0.418719
     85          1           0        9.492223    4.191985    0.219298
     86          1           0       10.436174    1.612618   -0.723825
     87          1           0        9.891340    2.913812   -2.357256
     88          1           0       10.220630    4.631716   -1.801061
     89          1           0        8.685526    4.258832   -2.404530
     90          1           0       10.050363    1.800621    2.060444
     91          1           0       10.901872    3.243481    1.538823
     92          1           0       12.882209    2.141151    1.080704
     93          1           0       11.995750    0.716647    0.545387
     94          1           0       12.199113    0.911525    2.273486
     95          1           0        9.613637   -3.700819    0.076921
     96          1           0        8.577883   -4.468785    1.546545
     97          1           0        9.631043   -3.084570    1.670556
     98          1           0        3.599894   -3.990482    1.672888
     99          1           0        3.111056   -7.478454   -1.148768
    100          1           0        2.033202   -6.183527   -1.806075
    101          1           0        1.528244   -7.234932   -0.453985
    102          1           0       -2.688486   -4.348284   -1.229380
    103          1           0       -2.476277   -2.594593   -1.775637
    104          1           0       -4.106031   -1.992159    0.076580
    105          1           0       -6.019426   -4.666281   -1.975969
    106          1           0       -6.235128   -5.578391   -0.493854
    107          1           0       -4.585157   -5.481318   -1.170726
    108          1           0       -6.212102   -3.173282    1.403823
    109          1           0       -7.377563   -3.593590    0.204511
    110          1           0       -6.138180   -1.312207   -0.870488
    111          1           0       -6.423377   -1.078784    0.944064
    112          1           0       -8.912029   -1.848570    0.102267
    113          1           0       -8.389932   -1.359515   -1.464743
    114          1           0       -7.815121    0.929117    0.153705
    115          1           0      -10.578380    0.519704    0.853915
    116          1           0       -9.427758    1.275454    1.837869
    117          1           0       -9.382499   -0.409048    1.816290
    118          1           0       -8.434853    1.020348   -2.230458
    119          1           0       -9.446496    2.032617   -1.201580
    120          1           0      -11.020982   -0.245505   -1.123037
    121          1           0      -10.322587   -0.336437   -2.781346
    122          1           0      -11.808496    0.984319   -3.605977
    123          1           0      -11.459352    2.242143   -2.503004
    124          1           0      -12.999242   -0.125515   -1.328608
    125          1           0      -13.964105    0.548203   -3.818507
    126          1           0      -14.421830    2.040111   -2.977044
    127          1           0      -15.171595    0.536940   -2.438850
    128          1           0      -14.541504    2.048079   -0.802667
    129          1           0      -12.858195    2.681313   -0.791288
    130          1           0      -12.665199    0.324823    0.646222
    131          1           0      -14.320647    0.940983    1.065058
    132          1           0      -12.480015    3.168407    1.245340
    133          1           0      -11.687320    1.802073    2.011285
    134          1           0      -13.539610    1.403834    3.564089
    135          1           0      -11.409051    2.912095    3.818215
    136          1           0      -12.795361    3.151862    5.015042
    137          1           0      -12.613452    4.233026    3.703689
    138          1           0      -15.014249    3.749578    3.637515
    139          1           0      -15.631803    2.218094    3.076400
    140          1           0      -14.883838    3.287734    1.887298
 ---------------------------------------------------------------------

 SCF Done:  E(RCAM-B3LYP) =  -3007.16434529     A.U. after   17 cycles

 Excitation energies and oscillator strengths:

 Excited State   1:      Singlet-A      1.7075 eV  726.13 nm  f=0.4205  <S**2>=0.000
     245 -> 248        0.17566
     246 -> 247        0.68735
     245 <- 248        0.10671
 This state for optimization and/or second-order correction.
 Total Energy, E(TD-HF/TD-DFT) =  -3007.10159730
 Copying the excited state density for this state as the 1-particle RhoCI density.

 Excited State   2:      Singlet-A      2.1671 eV  572.13 nm  f=0.1440  <S**2>=0.000
     245 -> 247        0.65481
     246 -> 248       -0.25206

 Excited State   3:      Singlet-A      3.2393 eV  382.75 nm  f=0.0052  <S**2>=0.000
     241 -> 247       -0.19150
     244 -> 247        0.66567

 Excited State   4:      Singlet-A      3.4305 eV  361.42 nm  f=0.0131  <S**2>=0.000
     241 -> 247        0.27803
     243 -> 247        0.51658
     243 -> 249        0.19741
     243 -> 250        0.18281
     244 -> 247        0.11772
     246 -> 248        0.17228

 Excited State   5:      Singlet-A      3.4458 eV  359.81 nm  f=0.0238  <S**2>=0.000
     241 -> 247        0.52267
     243 -> 247       -0.28208
     243 -> 249       -0.16090
     243 -> 250       -0.15265
     246 -> 248        0.23989

 The electronic state is 1-A.
 Alpha  occ. eigenvalues --  -46.89495 -19.26223 -19.24255 -19.19848 -19.19518
 Alpha  occ. eigenvalues --  -19.17957 -19.17684 -14.42216 -14.42075 -14.40012
 Alpha  occ. eigenvalues --  -14.39111 -10.39758 -10.38183 -10.36055 -10.34068
 Alpha  occ. eigenvalues --  -10.32143 -10.31093 -10.31042 -10.31039 -10.30853
 Alpha  occ. eigenvalues --  -10.30803 -10.30787 -10.30460 -10.30339 -10.29912
 Alpha  occ. eigenvalues --  -10.28862 -10.28425 -10.28314 -10.28008 -10.27889
 Alpha  occ. eigenvalues --  -10.27871 -10.27798 -10.27692 -10.27625 -10.27581
 Alpha  occ. eigenvalues --  -10.27510 -10.27485 -10.27452 -10.27283 -10.27213
 Alpha  occ. eigenvalues --  -10.26788 -10.26670 -10.26455 -10.26176 -10.26050
 Alpha  occ. eigenvalues --  -10.25999 -10.25922 -10.25848 -10.25841 -10.25772
 Alpha  occ. eigenvalues --  -10.25761 -10.25707 -10.25643 -10.25564 -10.25433
 Alpha  occ. eigenvalues --  -10.25431 -10.25348 -10.25066 -10.25025 -10.24975
 Alpha  occ. eigenvalues --  -10.24918 -10.24856 -10.24597 -10.24511 -10.24465
 Alpha  occ. eigenvalues --  -10.24396  -3.17800  -1.92709  -1.92253  -1.92096
 Alpha  occ. eigenvalues --   -1.18241  -1.15615  -1.09541  -1.08481  -1.06653
 Alpha  occ. eigenvalues --   -1.05757  -1.03824  -1.03226  -1.02588  -1.00940
 Alpha  occ. eigenvalues --   -0.91854  -0.90788  -0.89972  -0.89145  -0.88763
 Alpha  occ. eigenvalues --   -0.88009  -0.87962  -0.87564  -0.86882  -0.86568
 Alpha  occ. eigenvalues --   -0.85269  -0.85042  -0.83761  -0.83197  -0.82948
 Alpha  occ. eigenvalues --   -0.82025  -0.81462  -0.80987  -0.80591  -0.79957
 Alpha  occ. eigenvalues --   -0.79882  -0.78442  -0.77423  -0.76942  -0.76083
 Alpha  occ. eigenvalues --   -0.75847  -0.75625  -0.75167  -0.75060  -0.73698
 Alpha  occ. eigenvalues --   -0.73376  -0.72494  -0.70957  -0.70027  -0.68945
 Alpha  occ. eigenvalues --   -0.68405  -0.68159  -0.67162  -0.67053  -0.65880
 Alpha  occ. eigenvalues --   -0.65588  -0.65177  -0.64763  -0.64172  -0.64127
 Alpha  occ. eigenvalues --   -0.63762  -0.62462  -0.61850  -0.61216  -0.60408
 Alpha  occ. eigenvalues --   -0.60248  -0.59454  -0.58461  -0.57956  -0.57906
 Alpha  occ. eigenvalues --   -0.57568  -0.56984  -0.55929  -0.55499  -0.55273
 Alpha  occ. eigenvalues --   -0.54666  -0.54513  -0.54435  -0.54012  -0.53889
 Alpha  occ. eigenvalues --   -0.53615  -0.53306  -0.52907  -0.52663  -0.52524
 Alpha  occ. eigenvalues --   -0.52499  -0.52251  -0.52027  -0.51769  -0.51511
 Alpha  occ. eigenvalues --   -0.51410  -0.51017  -0.50839  -0.50640  -0.50474
 Alpha  occ. eigenvalues --   -0.50346  -0.50317  -0.49972  -0.49671  -0.49499
 Alpha  occ. eigenvalues --   -0.49329  -0.49199  -0.48830  -0.48731  -0.48683
 Alpha  occ. eigenvalues --   -0.48514  -0.48167  -0.48073  -0.47853  -0.47684
 Alpha  occ. eigenvalues --   -0.47527  -0.47245  -0.47110  -0.46729  -0.46349
 Alpha  occ. eigenvalues --   -0.46150  -0.46068  -0.45877  -0.45538  -0.45216
 Alpha  occ. eigenvalues --   -0.45198  -0.44930  -0.44761  -0.44598  -0.44518
 Alpha  occ. eigenvalues --   -0.44422  -0.44311  -0.44223  -0.43911  -0.43856
 Alpha  occ. eigenvalues --   -0.43745  -0.43647  -0.43258  -0.43077  -0.42763
 Alpha  occ. eigenvalues --   -0.42696  -0.42564  -0.42375  -0.41857  -0.41709
 Alpha  occ. eigenvalues --   -0.41540  -0.41331  -0.41227  -0.41054  -0.40966
 Alpha  occ. eigenvalues --   -0.40764  -0.40613  -0.40605  -0.40219  -0.40166
 Alpha  occ. eigenvalues --   -0.39880  -0.39230  -0.38995  -0.38829  -0.38694
 Alpha  occ. eigenvalues --   -0.38412  -0.38359  -0.38169  -0.37814  -0.37246
 Alpha  occ. eigenvalues --   -0.37126  -0.36770  -0.36535  -0.36485  -0.35972
 Alpha  occ. eigenvalues --   -0.35696  -0.35404  -0.35278  -0.34106  -0.34036
 Alpha  occ. eigenvalues --   -0.33933  -0.32969  -0.32605  -0.31419  -0.31271
 Alpha  occ. eigenvalues --   -0.30409  -0.30146  -0.30018  -0.28847  -0.23972
 Alpha  occ. eigenvalues --   -0.21360
 Alpha virt. eigenvalues --   -0.09047  -0.01420   0.00084   0.02222   0.02320
 Alpha virt. eigenvalues --    0.03815   0.05439   0.05790   0.06572   0.07114
 Alpha virt. eigenvalues --    0.08314   0.08420   0.08964   0.09255   0.09340

 Mulliken charges:
               1
     1  Mg   0.810101
     2  C    0.086925
     3  C   -0.036840
     4  C   -0.031582
     5  C   -0.051585
     6  N   -0.265022
     7  C   -0.030327
     8  C   -0.066308
     9  C   -0.061985
    10  C    0.044359
    11  C    0.049826
    12  C    0.024922
    13  C    0.088776
    14  C    0.157880
    15  O   -0.279910
    16  O   -0.295919
    17  N   -0.349934
    18  C    0.105466
    19  C   -0.132467
    20  C   -0.002399
    21  C    0.164574
    22  C    0.097854
    23  C   -0.007318
    24  O   -0.210180
    25  C    0.028707
    26  N   -0.302785
    27  C   -0.019190
    28  C   -0.064427
    29  C   -0.041184
    30  C    0.034578
    31  C    0.075219
    32  C    0.038882
    33  C    0.006543
    34  N   -0.371712
    35  C    0.126851
    36  C   -0.202148
    37  C    0.045358
    38  C    0.035459
    39  C    0.145772
    40  C   -0.001258
    41  O   -0.181789
    42  C   -0.020073
    43  C    0.198476
    44  O   -0.231550
    45  O   -0.312622
    46  C    0.169614
    47  C    0.311426
    48  C   -0.134306
    49  C   -0.216021
    50  C    0.091515
    51  C    0.083816
    52  C    0.019482
    53  C    0.040976
    54  C   -0.116371
    55  C    0.017493
    56  C    0.047089
    57  C   -0.033764
    58  C    0.071661
    59  C   -0.140796
    60  C    0.076899
    61  C    0.038291
    62  C   -0.010190
    63  C   -0.001218
    64  C   -0.149935
    65  C    0.047103
    66  C    0.052624
    67  H   -0.032736
    68  H   -0.009693
    69  H   -0.031743
    70  H    0.062163
    71  H    0.019936
    72  H    0.025013
    73  H    0.018496
    74  H    0.013341
    75  H    0.009842
    76  H    0.015916
    77  H    0.018596
    78  H    0.031101
    79  H    0.022954
    80  H    0.019757
    81  H    0.036523
    82  H    0.044698
    83  H    0.024674
    84  H    0.045867
    85  H    0.012986
    86  H    0.005908
    87  H    0.022356
    88  H    0.016018
    89  H    0.026014
    90  H    0.002522
    91  H    0.010877
    92  H    0.024947
    93  H    0.004396
    94  H    0.026531
    95  H    0.034725
    96  H    0.047172
    97  H    0.002339
    98  H    0.042171
    99  H    0.043791
   100  H    0.069266
   101  H    0.029349
   102  H    0.014504
   103  H    0.036736
   104  H   -0.009357
   105  H    0.031522
   106  H    0.017866
   107  H    0.017410
   108  H    0.020111
   109  H   -0.011973
   110  H    0.017717
   111  H    0.010035
   112  H   -0.006923
   113  H   -0.006909
   114  H   -0.004482
   115  H    0.001852
   116  H    0.012145
   117  H    0.005031
   118  H    0.007489
   119  H   -0.006694
   120  H    0.007256
   121  H    0.008100
   122  H   -0.018319
   123  H   -0.006266
   124  H    0.007845
   125  H   -0.000539
   126  H    0.011404
   127  H    0.013595
   128  H   -0.000683
   129  H   -0.003923
   130  H    0.003689
   131  H   -0.002193
   132  H   -0.003101
   133  H   -0.014711
   134  H   -0.005843
   135  H    0.012639
   136  H    0.005091
   137  H   -0.002455
   138  H    0.005585
   139  H    0.012008
   140  H    0.007275
 Sum of Mulliken charges =  -0.00000

 Dipole moment (field-independent basis, Debye):
    X=             -4.8306    Y=              4.0125    Z=              3.0757  Tot=              6.9925
 Quadrupole moment (field-independent basis, Debye-Ang):
   XX=           -376.7505   YY=           -421.7118   ZZ=           -409.4430
   XY=             27.3945   XZ=             11.4619   YZ=             -1.2525

 Normal termination of Gaussian 16 at Thu May  5 08:36:47 2022.
