 Gaussian 16, Revision A.03,
 Gaussian 16:  ES64L-G16RevA.03 25-Dec-2016

 ---------------------------------
 #p PBE1PBE/Def2SVP td=(nstates=5)
 ---------------------------------

 ----------------------------------------------------
 step_751_chromophore_6 TDDFT with PBE1PBE functional
 ----------------------------------------------------
 Symbolic Z-matrix:
 Charge =  0 Multiplicity = 1

                         Standard orientation:
 ---------------------------------------------------------------------
 Center     Atomic      Atomic             Coordinates (Angstroms)
 Number     Number       Type             X           Y           Z
 ---------------------------------------------------------------------
      1         12           0        5.429501    0.958853    0.328923
      2          6           0        4.166781   -2.286342    0.525734
      3          6           0        2.148584    2.098546   -0.170409
      4          6           0        6.634015    4.005201   -0.376568
      5          6           0        8.758630   -0.296671    0.369622
      6          7           0        3.399783    0.013886    0.065454
      7          6           0        3.167993   -1.288728    0.406044
      8          6           0        1.682243   -1.555828    0.199749
      9          6           0        0.965399   -0.139015    0.074166
     10          6           0        2.261988    0.733472   -0.072529
     11          6           0       -0.045425    0.015355   -1.199829
     12          6           0        1.051242   -2.394418    1.387315
     13          6           0        0.280206   -3.715097    1.064279
     14          6           0       -0.585783   -3.634088   -0.191771
     15          8           0       -0.241508   -4.075280   -1.328102
     16          8           0       -1.801774   -3.151170    0.109396
     17          7           0        4.513029    2.866400   -0.056359
     18          6           0        3.170491    3.132525   -0.171505
     19          6           0        3.009929    4.596293   -0.313162
     20          6           0        4.323412    5.149859   -0.425312
     21          6           0        5.229083    3.998368   -0.311808
     22          6           0        1.617179    5.244147   -0.370066
     23          6           0        4.753702    6.574740   -0.703283
     24          8           0        5.934291    6.839235   -0.972614
     25          6           0        3.705966    7.766958   -0.572388
     26          7           0        7.362652    1.732787   -0.046102
     27          6           0        7.603932    3.032569   -0.195564
     28          6           0        9.144398    3.382082   -0.421199
     29          6           0        9.821729    2.034442    0.070636
     30          6           0        8.590785    1.072180    0.137723
     31          6           0        9.512244    3.805381   -1.858591
     32          6           0       10.701844    2.202795    1.284579
     33          6           0       12.071237    1.459749    1.339505
     34          7           0        6.320200   -0.968419    0.422697
     35          6           0        7.686552   -1.330279    0.454406
     36          6           0        7.768491   -2.778832    0.674446
     37          6           0        6.404835   -3.263538    0.640449
     38          6           0        5.564457   -2.114530    0.535689
     39          6           0        9.000590   -3.641193    0.975956
     40          6           0        5.489887   -4.364191    0.784445
     41          8           0        5.680831   -5.574027    0.897256
     42          6           0        4.055199   -3.812495    0.698679
     43          6           0        3.409360   -4.609640   -0.400358
     44          8           0        3.353855   -4.272364   -1.586055
     45          8           0        2.951314   -5.768640    0.075618
     46          6           0        2.368619   -6.715288   -0.915369
     47          6           0       -2.717522   -3.289585   -0.970297
     48          6           0       -4.075321   -2.965312   -0.412807
     49          6           0       -5.255506   -3.627054   -0.383477
     50          6           0       -5.531164   -4.954589   -1.044719
     51          6           0       -6.452203   -3.036289    0.348586
     52          6           0       -6.721817   -1.564394    0.014534
     53          6           0       -8.192437   -1.205031   -0.404055
     54          6           0       -8.654074    0.300305   -0.146058
     55          6           0       -9.530894    0.438372    1.147358
     56          6           0       -9.202989    1.001401   -1.457866
     57          6           0      -10.584520    0.315910   -1.948190
     58          6           0      -11.756206    1.193166   -2.536927
     59          6           0      -13.119006    0.789377   -1.910283
     60          6           0      -14.262578    0.968934   -2.857643
     61          6           0      -13.483091    1.787297   -0.783805
     62          6           0      -13.337792    1.183163    0.661070
     63          6           0      -12.660399    2.217011    1.746320
     64          6           0      -13.411274    2.370523    3.077221
     65          6           0      -12.450251    3.192077    3.981488
     66          6           0      -14.835894    2.946748    2.921648
     67          1           0        1.128698    2.487259   -0.123521
     68          1           0        7.258813    4.871252   -0.608425
     69          1           0        9.816280   -0.566746    0.386741
     70          1           0        1.627022   -2.113907   -0.735009
     71          1           0        0.415821    0.082120    0.988966
     72          1           0        0.511622    0.430038   -2.039496
     73          1           0       -1.008477    0.501903   -1.046019
     74          1           0       -0.340333   -0.976138   -1.543470
     75          1           0        0.268144   -1.811994    1.871970
     76          1           0        1.841655   -2.585220    2.113219
     77          1           0       -0.304891   -3.903577    1.964800
     78          1           0        0.943509   -4.575833    0.980207
     79          1           0        1.497755    6.200765    0.139052
     80          1           0        0.832936    4.622650    0.060788
     81          1           0        1.369320    5.385453   -1.421956
     82          1           0        3.056002    7.868412   -1.440479
     83          1           0        4.366631    8.632574   -0.621393
     84          1           0        3.257704    7.702825    0.418719
     85          1           0        9.492223    4.191985    0.219298
     86          1           0       10.436174    1.612618   -0.723825
     87          1           0        9.891340    2.913812   -2.357256
     88          1           0       10.220630    4.631716   -1.801061
     89          1           0        8.685526    4.258832   -2.404530
     90          1           0       10.050363    1.800621    2.060444
     91          1           0       10.901872    3.243481    1.538823
     92          1           0       12.882209    2.141151    1.080704
     93          1           0       11.995750    0.716647    0.545387
     94          1           0       12.199113    0.911525    2.273486
     95          1           0        9.613637   -3.700819    0.076921
     96          1           0        8.577883   -4.468785    1.546545
     97          1           0        9.631043   -3.084570    1.670556
     98          1           0        3.599894   -3.990482    1.672888
     99          1           0        3.111056   -7.478454   -1.148768
    100          1           0        2.033202   -6.183527   -1.806075
    101          1           0        1.528244   -7.234932   -0.453985
    102          1           0       -2.688486   -4.348284   -1.229380
    103          1           0       -2.476277   -2.594593   -1.775637
    104          1           0       -4.106031   -1.992159    0.076580
    105          1           0       -6.019426   -4.666281   -1.975969
    106          1           0       -6.235128   -5.578391   -0.493854
    107          1           0       -4.585157   -5.481318   -1.170726
    108          1           0       -6.212102   -3.173282    1.403823
    109          1           0       -7.377563   -3.593590    0.204511
    110          1           0       -6.138180   -1.312207   -0.870488
    111          1           0       -6.423377   -1.078784    0.944064
    112          1           0       -8.912029   -1.848570    0.102267
    113          1           0       -8.389932   -1.359515   -1.464743
    114          1           0       -7.815121    0.929117    0.153705
    115          1           0      -10.578380    0.519704    0.853915
    116          1           0       -9.427758    1.275454    1.837869
    117          1           0       -9.382499   -0.409048    1.816290
    118          1           0       -8.434853    1.020348   -2.230458
    119          1           0       -9.446496    2.032617   -1.201580
    120          1           0      -11.020982   -0.245505   -1.123037
    121          1           0      -10.322587   -0.336437   -2.781346
    122          1           0      -11.808496    0.984319   -3.605977
    123          1           0      -11.459352    2.242143   -2.503004
    124          1           0      -12.999242   -0.125515   -1.328608
    125          1           0      -13.964105    0.548203   -3.818507
    126          1           0      -14.421830    2.040111   -2.977044
    127          1           0      -15.171595    0.536940   -2.438850
    128          1           0      -14.541504    2.048079   -0.802667
    129          1           0      -12.858195    2.681313   -0.791288
    130          1           0      -12.665199    0.324823    0.646222
    131          1           0      -14.320647    0.940983    1.065058
    132          1           0      -12.480015    3.168407    1.245340
    133          1           0      -11.687320    1.802073    2.011285
    134          1           0      -13.539610    1.403834    3.564089
    135          1           0      -11.409051    2.912095    3.818215
    136          1           0      -12.795361    3.151862    5.015042
    137          1           0      -12.613452    4.233026    3.703689
    138          1           0      -15.014249    3.749578    3.637515
    139          1           0      -15.631803    2.218094    3.076400
    140          1           0      -14.883838    3.287734    1.887298
 ---------------------------------------------------------------------

 SCF Done:  E(RPBE1PBE) =  -3005.35234869     A.U. after   15 cycles

 Excitation energies and oscillator strengths:

 Excited State   1:      Singlet-A      1.8528 eV  669.16 nm  f=0.4080  <S**2>=0.000
     245 -> 248        0.17073
     246 -> 247        0.69482
     246 <- 247       -0.11317
 This state for optimization and/or second-order correction.
 Total Energy, E(TD-HF/TD-DFT) =  -3005.28425784
 Copying the excited state density for this state as the 1-particle RhoCI density.

 Excited State   2:      Singlet-A      2.1710 eV  571.10 nm  f=0.1288  <S**2>=0.000
     245 -> 247        0.66303
     246 -> 248       -0.23159

 Excited State   3:      Singlet-A      2.8443 eV  435.91 nm  f=0.0016  <S**2>=0.000
     243 -> 247        0.61811
     243 -> 249        0.13454
     244 -> 247       -0.29128

 Excited State   4:      Singlet-A      2.8929 eV  428.57 nm  f=0.0074  <S**2>=0.000
     243 -> 247        0.28506
     244 -> 247        0.62798

 Excited State   5:      Singlet-A      3.0313 eV  409.01 nm  f=0.0002  <S**2>=0.000
     240 -> 247        0.58055
     240 -> 249       -0.15398
     241 -> 247       -0.34201

 The electronic state is 1-A.
 Alpha  occ. eigenvalues --  -46.92912 -19.26891 -19.24987 -19.20206 -19.19528
 Alpha  occ. eigenvalues --  -19.18300 -19.18145 -14.41720 -14.41591 -14.39561
 Alpha  occ. eigenvalues --  -14.38949 -10.36850 -10.35277 -10.33016 -10.31401
 Alpha  occ. eigenvalues --  -10.29526 -10.28945 -10.28731 -10.28644 -10.28479
 Alpha  occ. eigenvalues --  -10.28441 -10.28318 -10.28267 -10.27760 -10.27290
 Alpha  occ. eigenvalues --  -10.26675 -10.26378 -10.26366 -10.25895 -10.25693
 Alpha  occ. eigenvalues --  -10.25557 -10.25458 -10.25378 -10.25319 -10.25292
 Alpha  occ. eigenvalues --  -10.25285 -10.25142 -10.24907 -10.24834 -10.24742
 Alpha  occ. eigenvalues --  -10.24424 -10.23909 -10.23889 -10.23660 -10.23633
 Alpha  occ. eigenvalues --  -10.23561 -10.23484 -10.23483 -10.23406 -10.23363
 Alpha  occ. eigenvalues --  -10.23245 -10.23240 -10.23222 -10.23152 -10.23055
 Alpha  occ. eigenvalues --  -10.23012 -10.23011 -10.23003 -10.22663 -10.22612
 Alpha  occ. eigenvalues --  -10.22462 -10.22346 -10.21993 -10.21970 -10.21914
 Alpha  occ. eigenvalues --  -10.21856  -3.14804  -1.87652  -1.87174  -1.87021
 Alpha  occ. eigenvalues --   -1.13101  -1.10480  -1.04059  -1.03418  -1.01514
 Alpha  occ. eigenvalues --   -1.00651  -0.98375  -0.97813  -0.97148  -0.95805
 Alpha  occ. eigenvalues --   -0.86360  -0.84940  -0.84069  -0.83444  -0.82981
 Alpha  occ. eigenvalues --   -0.82208  -0.82093  -0.81670  -0.81141  -0.80690
 Alpha  occ. eigenvalues --   -0.79580  -0.79492  -0.77972  -0.77462  -0.77281
 Alpha  occ. eigenvalues --   -0.76220  -0.75685  -0.75164  -0.74848  -0.74151
 Alpha  occ. eigenvalues --   -0.74042  -0.72588  -0.71713  -0.71284  -0.70236
 Alpha  occ. eigenvalues --   -0.70009  -0.69929  -0.69430  -0.69301  -0.67883
 Alpha  occ. eigenvalues --   -0.67694  -0.67017  -0.65378  -0.64395  -0.63331
 Alpha  occ. eigenvalues --   -0.62693  -0.62556  -0.61521  -0.61314  -0.60084
 Alpha  occ. eigenvalues --   -0.60028  -0.59610  -0.59339  -0.58705  -0.58365
 Alpha  occ. eigenvalues --   -0.58231  -0.56651  -0.56100  -0.55890  -0.54792
 Alpha  occ. eigenvalues --   -0.54647  -0.54105  -0.52988  -0.52545  -0.52286
 Alpha  occ. eigenvalues --   -0.52062  -0.51715  -0.50535  -0.50019  -0.49841
 Alpha  occ. eigenvalues --   -0.49260  -0.49021  -0.48790  -0.48604  -0.48437
 Alpha  occ. eigenvalues --   -0.48185  -0.47674  -0.47591  -0.47137  -0.47122
 Alpha  occ. eigenvalues --   -0.46744  -0.46701  -0.46633  -0.46314  -0.46075
 Alpha  occ. eigenvalues --   -0.45982  -0.45505  -0.45463  -0.45231  -0.45068
 Alpha  occ. eigenvalues --   -0.44893  -0.44855  -0.44427  -0.44361  -0.44133
 Alpha  occ. eigenvalues --   -0.43886  -0.43806  -0.43385  -0.43325  -0.43224
 Alpha  occ. eigenvalues --   -0.43106  -0.42761  -0.42751  -0.42519  -0.42340
 Alpha  occ. eigenvalues --   -0.42224  -0.41817  -0.41712  -0.41401  -0.40977
 Alpha  occ. eigenvalues --   -0.40796  -0.40753  -0.40668  -0.40279  -0.39919
 Alpha  occ. eigenvalues --   -0.39880  -0.39637  -0.39437  -0.39396  -0.39217
 Alpha  occ. eigenvalues --   -0.39144  -0.39099  -0.39016  -0.38662  -0.38565
 Alpha  occ. eigenvalues --   -0.38417  -0.38349  -0.37965  -0.37890  -0.37510
 Alpha  occ. eigenvalues --   -0.37472  -0.37331  -0.37080  -0.36847  -0.36609
 Alpha  occ. eigenvalues --   -0.36289  -0.36259  -0.36031  -0.36018  -0.35885
 Alpha  occ. eigenvalues --   -0.35681  -0.35501  -0.35422  -0.35103  -0.34985
 Alpha  occ. eigenvalues --   -0.34704  -0.34201  -0.33820  -0.33791  -0.33557
 Alpha  occ. eigenvalues --   -0.33368  -0.33196  -0.32927  -0.32686  -0.32285
 Alpha  occ. eigenvalues --   -0.32145  -0.31598  -0.31554  -0.31426  -0.31046
 Alpha  occ. eigenvalues --   -0.30548  -0.30423  -0.30250  -0.29357  -0.29056
 Alpha  occ. eigenvalues --   -0.28775  -0.28449  -0.27686  -0.26950  -0.25921
 Alpha  occ. eigenvalues --   -0.25860  -0.25446  -0.25067  -0.24745  -0.20918
 Alpha  occ. eigenvalues --   -0.18964
 Alpha virt. eigenvalues --   -0.11463  -0.04979  -0.04080  -0.02204  -0.00806
 Alpha virt. eigenvalues --   -0.00416   0.01019   0.01357   0.01923   0.03427
 Alpha virt. eigenvalues --    0.04545   0.04910   0.05070   0.05711   0.05987

 Mulliken charges:
               1
     1  Mg   0.953179
     2  C    0.076172
     3  C   -0.031676
     4  C   -0.030157
     5  C   -0.049078
     6  N   -0.371681
     7  C    0.047952
     8  C   -0.142949
     9  C   -0.132477
    10  C    0.079983
    11  C   -0.011198
    12  C   -0.023095
    13  C    0.011752
    14  C    0.217740
    15  O   -0.310113
    16  O   -0.325790
    17  N   -0.460175
    18  C    0.133271
    19  C   -0.166980
    20  C   -0.048873
    21  C    0.190469
    22  C    0.043434
    23  C    0.043878
    24  O   -0.246610
    25  C   -0.044086
    26  N   -0.405284
    27  C    0.020915
    28  C   -0.138268
    29  C   -0.113426
    30  C    0.065702
    31  C    0.018565
    32  C   -0.018883
    33  C   -0.068012
    34  N   -0.489167
    35  C    0.153777
    36  C   -0.217389
    37  C    0.007151
    38  C    0.084088
    39  C    0.087771
    40  C    0.086129
    41  O   -0.224681
    42  C   -0.122859
    43  C    0.281840
    44  O   -0.266863
    45  O   -0.344481
    46  C    0.115366
    47  C    0.267911
    48  C   -0.145883
    49  C   -0.264660
    50  C    0.026867
    51  C    0.030925
    52  C   -0.052176
    53  C   -0.012175
    54  C   -0.196438
    55  C   -0.050340
    56  C   -0.011252
    57  C   -0.093969
    58  C    0.024969
    59  C   -0.234844
    60  C    0.008254
    61  C   -0.007643
    62  C   -0.073476
    63  C   -0.064262
    64  C   -0.237261
    65  C   -0.018767
    66  C   -0.009884
    67  H   -0.000351
    68  H    0.023467
    69  H    0.002391
    70  H    0.099853
    71  H    0.054847
    72  H    0.052884
    73  H    0.045095
    74  H    0.044691
    75  H    0.042396
    76  H    0.048442
    77  H    0.051447
    78  H    0.067756
    79  H    0.048710
    80  H    0.044889
    81  H    0.063682
    82  H    0.070035
    83  H    0.051614
    84  H    0.070970
    85  H    0.049072
    86  H    0.043445
    87  H    0.049092
    88  H    0.043418
    89  H    0.053351
    90  H    0.037028
    91  H    0.043128
    92  H    0.052939
    93  H    0.031409
    94  H    0.053875
    95  H    0.063573
    96  H    0.074861
    97  H    0.032336
    98  H    0.079663
    99  H    0.065732
   100  H    0.089678
   101  H    0.050773
   102  H    0.042969
   103  H    0.063796
   104  H    0.021963
   105  H    0.060694
   106  H    0.045042
   107  H    0.044853
   108  H    0.053570
   109  H    0.019294
   110  H    0.051234
   111  H    0.041914
   112  H    0.024505
   113  H    0.027081
   114  H    0.034360
   115  H    0.038801
   116  H    0.039166
   117  H    0.032611
   118  H    0.039842
   119  H    0.027005
   120  H    0.037234
   121  H    0.040646
   122  H    0.014902
   123  H    0.024032
   124  H    0.045540
   125  H    0.028087
   126  H    0.040370
   127  H    0.043158
   128  H    0.032060
   129  H    0.027898
   130  H    0.033335
   131  H    0.032022
   132  H    0.028588
   133  H    0.024790
   134  H    0.032514
   135  H    0.039826
   136  H    0.033780
   137  H    0.026653
   138  H    0.033192
   139  H    0.038870
   140  H    0.036826
 Sum of Mulliken charges =  -0.00000

 Dipole moment (field-independent basis, Debye):
    X=             -4.6040    Y=              3.4724    Z=              3.1593  Tot=              6.5754
 Quadrupole moment (field-independent basis, Debye-Ang):
   XX=           -367.8340   YY=           -420.4092   ZZ=           -407.0034
   XY=             24.7402   XZ=             11.8725   YZ=             -1.2551

 Normal termination of Gaussian 16 at Thu May  5 08:52:35 2022.
