 Gaussian 16, Revision A.03,
 Gaussian 16:  ES64L-G16RevA.03 25-Dec-2016

 --------------------------------
 #p wB97XD/Def2SVP td=(nstates=5)
 --------------------------------

 ---------------------------------------------------
 step_751_chromophore_6 TDDFT with wB97XD functional
 ---------------------------------------------------
 Symbolic Z-matrix:
 Charge =  0 Multiplicity = 1

                         Standard orientation:
 ---------------------------------------------------------------------
 Center     Atomic      Atomic             Coordinates (Angstroms)
 Number     Number       Type             X           Y           Z
 ---------------------------------------------------------------------
      1         12           0        5.429501    0.958853    0.328923
      2          6           0        4.166781   -2.286342    0.525734
      3          6           0        2.148584    2.098546   -0.170409
      4          6           0        6.634015    4.005201   -0.376568
      5          6           0        8.758630   -0.296671    0.369622
      6          7           0        3.399783    0.013886    0.065454
      7          6           0        3.167993   -1.288728    0.406044
      8          6           0        1.682243   -1.555828    0.199749
      9          6           0        0.965399   -0.139015    0.074166
     10          6           0        2.261988    0.733472   -0.072529
     11          6           0       -0.045425    0.015355   -1.199829
     12          6           0        1.051242   -2.394418    1.387315
     13          6           0        0.280206   -3.715097    1.064279
     14          6           0       -0.585783   -3.634088   -0.191771
     15          8           0       -0.241508   -4.075280   -1.328102
     16          8           0       -1.801774   -3.151170    0.109396
     17          7           0        4.513029    2.866400   -0.056359
     18          6           0        3.170491    3.132525   -0.171505
     19          6           0        3.009929    4.596293   -0.313162
     20          6           0        4.323412    5.149859   -0.425312
     21          6           0        5.229083    3.998368   -0.311808
     22          6           0        1.617179    5.244147   -0.370066
     23          6           0        4.753702    6.574740   -0.703283
     24          8           0        5.934291    6.839235   -0.972614
     25          6           0        3.705966    7.766958   -0.572388
     26          7           0        7.362652    1.732787   -0.046102
     27          6           0        7.603932    3.032569   -0.195564
     28          6           0        9.144398    3.382082   -0.421199
     29          6           0        9.821729    2.034442    0.070636
     30          6           0        8.590785    1.072180    0.137723
     31          6           0        9.512244    3.805381   -1.858591
     32          6           0       10.701844    2.202795    1.284579
     33          6           0       12.071237    1.459749    1.339505
     34          7           0        6.320200   -0.968419    0.422697
     35          6           0        7.686552   -1.330279    0.454406
     36          6           0        7.768491   -2.778832    0.674446
     37          6           0        6.404835   -3.263538    0.640449
     38          6           0        5.564457   -2.114530    0.535689
     39          6           0        9.000590   -3.641193    0.975956
     40          6           0        5.489887   -4.364191    0.784445
     41          8           0        5.680831   -5.574027    0.897256
     42          6           0        4.055199   -3.812495    0.698679
     43          6           0        3.409360   -4.609640   -0.400358
     44          8           0        3.353855   -4.272364   -1.586055
     45          8           0        2.951314   -5.768640    0.075618
     46          6           0        2.368619   -6.715288   -0.915369
     47          6           0       -2.717522   -3.289585   -0.970297
     48          6           0       -4.075321   -2.965312   -0.412807
     49          6           0       -5.255506   -3.627054   -0.383477
     50          6           0       -5.531164   -4.954589   -1.044719
     51          6           0       -6.452203   -3.036289    0.348586
     52          6           0       -6.721817   -1.564394    0.014534
     53          6           0       -8.192437   -1.205031   -0.404055
     54          6           0       -8.654074    0.300305   -0.146058
     55          6           0       -9.530894    0.438372    1.147358
     56          6           0       -9.202989    1.001401   -1.457866
     57          6           0      -10.584520    0.315910   -1.948190
     58          6           0      -11.756206    1.193166   -2.536927
     59          6           0      -13.119006    0.789377   -1.910283
     60          6           0      -14.262578    0.968934   -2.857643
     61          6           0      -13.483091    1.787297   -0.783805
     62          6           0      -13.337792    1.183163    0.661070
     63          6           0      -12.660399    2.217011    1.746320
     64          6           0      -13.411274    2.370523    3.077221
     65          6           0      -12.450251    3.192077    3.981488
     66          6           0      -14.835894    2.946748    2.921648
     67          1           0        1.128698    2.487259   -0.123521
     68          1           0        7.258813    4.871252   -0.608425
     69          1           0        9.816280   -0.566746    0.386741
     70          1           0        1.627022   -2.113907   -0.735009
     71          1           0        0.415821    0.082120    0.988966
     72          1           0        0.511622    0.430038   -2.039496
     73          1           0       -1.008477    0.501903   -1.046019
     74          1           0       -0.340333   -0.976138   -1.543470
     75          1           0        0.268144   -1.811994    1.871970
     76          1           0        1.841655   -2.585220    2.113219
     77          1           0       -0.304891   -3.903577    1.964800
     78          1           0        0.943509   -4.575833    0.980207
     79          1           0        1.497755    6.200765    0.139052
     80          1           0        0.832936    4.622650    0.060788
     81          1           0        1.369320    5.385453   -1.421956
     82          1           0        3.056002    7.868412   -1.440479
     83          1           0        4.366631    8.632574   -0.621393
     84          1           0        3.257704    7.702825    0.418719
     85          1           0        9.492223    4.191985    0.219298
     86          1           0       10.436174    1.612618   -0.723825
     87          1           0        9.891340    2.913812   -2.357256
     88          1           0       10.220630    4.631716   -1.801061
     89          1           0        8.685526    4.258832   -2.404530
     90          1           0       10.050363    1.800621    2.060444
     91          1           0       10.901872    3.243481    1.538823
     92          1           0       12.882209    2.141151    1.080704
     93          1           0       11.995750    0.716647    0.545387
     94          1           0       12.199113    0.911525    2.273486
     95          1           0        9.613637   -3.700819    0.076921
     96          1           0        8.577883   -4.468785    1.546545
     97          1           0        9.631043   -3.084570    1.670556
     98          1           0        3.599894   -3.990482    1.672888
     99          1           0        3.111056   -7.478454   -1.148768
    100          1           0        2.033202   -6.183527   -1.806075
    101          1           0        1.528244   -7.234932   -0.453985
    102          1           0       -2.688486   -4.348284   -1.229380
    103          1           0       -2.476277   -2.594593   -1.775637
    104          1           0       -4.106031   -1.992159    0.076580
    105          1           0       -6.019426   -4.666281   -1.975969
    106          1           0       -6.235128   -5.578391   -0.493854
    107          1           0       -4.585157   -5.481318   -1.170726
    108          1           0       -6.212102   -3.173282    1.403823
    109          1           0       -7.377563   -3.593590    0.204511
    110          1           0       -6.138180   -1.312207   -0.870488
    111          1           0       -6.423377   -1.078784    0.944064
    112          1           0       -8.912029   -1.848570    0.102267
    113          1           0       -8.389932   -1.359515   -1.464743
    114          1           0       -7.815121    0.929117    0.153705
    115          1           0      -10.578380    0.519704    0.853915
    116          1           0       -9.427758    1.275454    1.837869
    117          1           0       -9.382499   -0.409048    1.816290
    118          1           0       -8.434853    1.020348   -2.230458
    119          1           0       -9.446496    2.032617   -1.201580
    120          1           0      -11.020982   -0.245505   -1.123037
    121          1           0      -10.322587   -0.336437   -2.781346
    122          1           0      -11.808496    0.984319   -3.605977
    123          1           0      -11.459352    2.242143   -2.503004
    124          1           0      -12.999242   -0.125515   -1.328608
    125          1           0      -13.964105    0.548203   -3.818507
    126          1           0      -14.421830    2.040111   -2.977044
    127          1           0      -15.171595    0.536940   -2.438850
    128          1           0      -14.541504    2.048079   -0.802667
    129          1           0      -12.858195    2.681313   -0.791288
    130          1           0      -12.665199    0.324823    0.646222
    131          1           0      -14.320647    0.940983    1.065058
    132          1           0      -12.480015    3.168407    1.245340
    133          1           0      -11.687320    1.802073    2.011285
    134          1           0      -13.539610    1.403834    3.564089
    135          1           0      -11.409051    2.912095    3.818215
    136          1           0      -12.795361    3.151862    5.015042
    137          1           0      -12.613452    4.233026    3.703689
    138          1           0      -15.014249    3.749578    3.637515
    139          1           0      -15.631803    2.218094    3.076400
    140          1           0      -14.883838    3.287734    1.887298
 ---------------------------------------------------------------------

 SCF Done:  E(RwB97XD) =  -3007.86533255     A.U. after   19 cycles

 Excitation energies and oscillator strengths:

 Excited State   1:      Singlet-A      1.6555 eV  748.91 nm  f=0.4186  <S**2>=0.000
     245 -> 248        0.18018
     246 -> 247        0.68524
     245 <- 248        0.11515
 This state for optimization and/or second-order correction.
 Total Energy, E(TD-HF/TD-DFT) =  -3007.80449329
 Copying the excited state density for this state as the 1-particle RhoCI density.

 Excited State   2:      Singlet-A      2.1132 eV  586.70 nm  f=0.1407  <S**2>=0.000
     245 -> 247        0.65256
     246 -> 248       -0.25490

 Excited State   3:      Singlet-A      3.2807 eV  377.92 nm  f=0.0042  <S**2>=0.000
     241 -> 247       -0.25000
     244 -> 247        0.64261

 Excited State   4:      Singlet-A      3.4513 eV  359.24 nm  f=0.0517  <S**2>=0.000
     239 -> 247        0.14223
     241 -> 247        0.52959
     243 -> 247        0.15031
     244 -> 247        0.18810
     246 -> 248        0.32404

 Excited State   5:      Singlet-A      3.4951 eV  354.74 nm  f=0.0022  <S**2>=0.000
     241 -> 247       -0.15547
     243 -> 247        0.54666
     243 -> 249        0.27683
     243 -> 250        0.25689

 The electronic state is 1-A.
 Alpha  occ. eigenvalues --  -46.95845 -19.31431 -19.29438 -19.24795 -19.24599
 Alpha  occ. eigenvalues --  -19.22875 -19.22683 -14.46804 -14.46672 -14.44648
 Alpha  occ. eigenvalues --  -14.43688 -10.43585 -10.42002 -10.40102 -10.38030
 Alpha  occ. eigenvalues --  -10.36018 -10.35189 -10.35159 -10.35026 -10.34979
 Alpha  occ. eigenvalues --  -10.34855 -10.34801 -10.34329 -10.34180 -10.34174
 Alpha  occ. eigenvalues --  -10.32953 -10.32386 -10.32377 -10.32124 -10.32050
 Alpha  occ. eigenvalues --  -10.31957 -10.31824 -10.31683 -10.31643 -10.31630
 Alpha  occ. eigenvalues --  -10.31534 -10.31526 -10.31441 -10.31369 -10.31131
 Alpha  occ. eigenvalues --  -10.30704 -10.30701 -10.30346 -10.30005 -10.30004
 Alpha  occ. eigenvalues --  -10.29910 -10.29853 -10.29798 -10.29743 -10.29720
 Alpha  occ. eigenvalues --  -10.29668 -10.29577 -10.29571 -10.29512 -10.29393
 Alpha  occ. eigenvalues --  -10.29383 -10.29327 -10.29028 -10.28977 -10.28972
 Alpha  occ. eigenvalues --  -10.28825 -10.28796 -10.28411 -10.28346 -10.28343
 Alpha  occ. eigenvalues --  -10.28300  -3.21617  -1.95208  -1.94734  -1.94575
 Alpha  occ. eigenvalues --   -1.20434  -1.17762  -1.11806  -1.10662  -1.08824
 Alpha  occ. eigenvalues --   -1.07909  -1.05855  -1.05244  -1.04651  -1.02922
 Alpha  occ. eigenvalues --   -0.93806  -0.92610  -0.91738  -0.91003  -0.90602
 Alpha  occ. eigenvalues --   -0.89934  -0.89776  -0.89353  -0.88861  -0.88537
 Alpha  occ. eigenvalues --   -0.87155  -0.86942  -0.85643  -0.85057  -0.84860
 Alpha  occ. eigenvalues --   -0.83879  -0.83360  -0.82885  -0.82524  -0.81889
 Alpha  occ. eigenvalues --   -0.81730  -0.80428  -0.79312  -0.78838  -0.77916
 Alpha  occ. eigenvalues --   -0.77656  -0.77545  -0.77053  -0.76983  -0.75546
 Alpha  occ. eigenvalues --   -0.75294  -0.74461  -0.72932  -0.71976  -0.70864
 Alpha  occ. eigenvalues --   -0.70310  -0.70143  -0.69128  -0.68987  -0.67745
 Alpha  occ. eigenvalues --   -0.67543  -0.67091  -0.66785  -0.66143  -0.65932
 Alpha  occ. eigenvalues --   -0.65752  -0.64304  -0.63724  -0.63193  -0.62309
 Alpha  occ. eigenvalues --   -0.62289  -0.61436  -0.60407  -0.59904  -0.59782
 Alpha  occ. eigenvalues --   -0.59490  -0.58992  -0.57924  -0.57475  -0.57194
 Alpha  occ. eigenvalues --   -0.56607  -0.56401  -0.56318  -0.55974  -0.55781
 Alpha  occ. eigenvalues --   -0.55537  -0.55148  -0.54829  -0.54543  -0.54498
 Alpha  occ. eigenvalues --   -0.54455  -0.54129  -0.53948  -0.53663  -0.53412
 Alpha  occ. eigenvalues --   -0.53349  -0.52900  -0.52738  -0.52562  -0.52408
 Alpha  occ. eigenvalues --   -0.52250  -0.52213  -0.51937  -0.51577  -0.51435
 Alpha  occ. eigenvalues --   -0.51209  -0.51097  -0.50794  -0.50644  -0.50624
 Alpha  occ. eigenvalues --   -0.50433  -0.50045  -0.50012  -0.49781  -0.49616
 Alpha  occ. eigenvalues --   -0.49444  -0.49200  -0.48993  -0.48642  -0.48272
 Alpha  occ. eigenvalues --   -0.48044  -0.47979  -0.47807  -0.47448  -0.47149
 Alpha  occ. eigenvalues --   -0.47089  -0.46801  -0.46637  -0.46497  -0.46381
 Alpha  occ. eigenvalues --   -0.46316  -0.46245  -0.46166  -0.45875  -0.45767
 Alpha  occ. eigenvalues --   -0.45618  -0.45565  -0.45121  -0.44993  -0.44700
 Alpha  occ. eigenvalues --   -0.44638  -0.44531  -0.44360  -0.43755  -0.43618
 Alpha  occ. eigenvalues --   -0.43408  -0.43218  -0.43093  -0.42946  -0.42881
 Alpha  occ. eigenvalues --   -0.42699  -0.42530  -0.42482  -0.42090  -0.42070
 Alpha  occ. eigenvalues --   -0.41751  -0.41138  -0.40869  -0.40730  -0.40568
 Alpha  occ. eigenvalues --   -0.40293  -0.40275  -0.40006  -0.39686  -0.39226
 Alpha  occ. eigenvalues --   -0.39100  -0.38644  -0.38605  -0.38395  -0.37897
 Alpha  occ. eigenvalues --   -0.37558  -0.37381  -0.37147  -0.36092  -0.35886
 Alpha  occ. eigenvalues --   -0.35825  -0.35109  -0.34642  -0.33604  -0.33286
 Alpha  occ. eigenvalues --   -0.32643  -0.32184  -0.31948  -0.30967  -0.25898
 Alpha  occ. eigenvalues --   -0.23168
 Alpha virt. eigenvalues --   -0.07408   0.00503   0.02137   0.04329   0.05430
 Alpha virt. eigenvalues --    0.06054   0.07742   0.08115   0.08823   0.09862
 Alpha virt. eigenvalues --    0.11054   0.11722   0.11754   0.12434   0.12658

 Mulliken charges:
               1
     1  Mg   0.945044
     2  C    0.071891
     3  C   -0.048822
     4  C   -0.045986
     5  C   -0.060837
     6  N   -0.336235
     7  C    0.016336
     8  C   -0.116964
     9  C   -0.111094
    10  C    0.069275
    11  C    0.004914
    12  C   -0.010721
    13  C    0.034819
    14  C    0.202739
    15  O   -0.305642
    16  O   -0.324209
    17  N   -0.430131
    18  C    0.126194
    19  C   -0.153973
    20  C   -0.043214
    21  C    0.187051
    22  C    0.054491
    23  C    0.038111
    24  O   -0.239974
    25  C   -0.032054
    26  N   -0.374824
    27  C    0.008985
    28  C   -0.112772
    29  C   -0.084643
    30  C    0.054175
    31  C    0.027698
    32  C   -0.008350
    33  C   -0.049174
    34  N   -0.455005
    35  C    0.138384
    36  C   -0.215096
    37  C    0.006031
    38  C    0.066717
    39  C    0.100141
    40  C    0.070291
    41  O   -0.217430
    42  C   -0.083921
    43  C    0.257741
    44  O   -0.259945
    45  O   -0.342458
    46  C    0.130103
    47  C    0.284227
    48  C   -0.157174
    49  C   -0.245000
    50  C    0.040963
    51  C    0.041882
    52  C   -0.031412
    53  C    0.002488
    54  C   -0.170406
    55  C   -0.021117
    56  C    0.006184
    57  C   -0.073646
    58  C    0.033366
    59  C   -0.198344
    60  C    0.025556
    61  C    0.004339
    62  C   -0.053539
    63  C   -0.034847
    64  C   -0.210552
    65  C   -0.003837
    66  C    0.000492
    67  H   -0.007859
    68  H    0.016789
    69  H   -0.004260
    70  H    0.085640
    71  H    0.045717
    72  H    0.046919
    73  H    0.040438
    74  H    0.034009
    75  H    0.033658
    76  H    0.039371
    77  H    0.047218
    78  H    0.054702
    79  H    0.044611
    80  H    0.041977
    81  H    0.060328
    82  H    0.067525
    83  H    0.050450
    84  H    0.066286
    85  H    0.039023
    86  H    0.029176
    87  H    0.043777
    88  H    0.038677
    89  H    0.047162
    90  H    0.027305
    91  H    0.035139
    92  H    0.047568
    93  H    0.022667
    94  H    0.049177
    95  H    0.057835
    96  H    0.070352
    97  H    0.024467
    98  H    0.070463
    99  H    0.062272
   100  H    0.086896
   101  H    0.046761
   102  H    0.034879
   103  H    0.059385
   104  H    0.016814
   105  H    0.054272
   106  H    0.040344
   107  H    0.038777
   108  H    0.046375
   109  H    0.011384
   110  H    0.040631
   111  H    0.034233
   112  H    0.014657
   113  H    0.017467
   114  H    0.022951
   115  H    0.009896
   116  H    0.033327
   117  H    0.026610
   118  H    0.033002
   119  H    0.017018
   120  H    0.021173
   121  H    0.032776
   122  H    0.006539
   123  H    0.015911
   124  H    0.032177
   125  H    0.021740
   126  H    0.032235
   127  H    0.036993
   128  H    0.022098
   129  H    0.015726
   130  H    0.023304
   131  H    0.022877
   132  H    0.017733
   133  H    0.003539
   134  H    0.022027
   135  H    0.034185
   136  H    0.028610
   137  H    0.018449
   138  H    0.028266
   139  H    0.034159
   140  H    0.027940
 Sum of Mulliken charges =  -0.00000

 Dipole moment (field-independent basis, Debye):
    X=             -4.9692    Y=              4.2470    Z=              3.0989  Tot=              7.2342
 Quadrupole moment (field-independent basis, Debye-Ang):
   XX=           -371.8985   YY=           -416.9895   ZZ=           -406.6262
   XY=             27.9876   XZ=             11.6287   YZ=             -1.3822

 Normal termination of Gaussian 16 at Thu May  5 09:21:09 2022.
