 Gaussian 16, Revision A.03,
 Gaussian 16:  ES64L-G16RevA.03 25-Dec-2016

 --------------------
 #p ZINDO=(nstates=5)
 --------------------

 ----------------------------
 step_751_chromophore_6 ZINDO
 ----------------------------
 Symbolic Z-matrix:
 Charge =  0 Multiplicity = 1

                         Standard orientation:
 ---------------------------------------------------------------------
 Center     Atomic      Atomic             Coordinates (Angstroms)
 Number     Number       Type             X           Y           Z
 ---------------------------------------------------------------------
      1         12           0        5.429501    0.958853    0.328923
      2          6           0        4.166781   -2.286342    0.525734
      3          6           0        2.148584    2.098546   -0.170409
      4          6           0        6.634015    4.005201   -0.376568
      5          6           0        8.758630   -0.296671    0.369622
      6          7           0        3.399783    0.013886    0.065454
      7          6           0        3.167993   -1.288728    0.406044
      8          6           0        1.682243   -1.555828    0.199749
      9          6           0        0.965399   -0.139015    0.074166
     10          6           0        2.261988    0.733472   -0.072529
     11          6           0       -0.045425    0.015355   -1.199829
     12          6           0        1.051242   -2.394418    1.387315
     13          6           0        0.280206   -3.715097    1.064279
     14          6           0       -0.585783   -3.634088   -0.191771
     15          8           0       -0.241508   -4.075280   -1.328102
     16          8           0       -1.801774   -3.151170    0.109396
     17          7           0        4.513029    2.866400   -0.056359
     18          6           0        3.170491    3.132525   -0.171505
     19          6           0        3.009929    4.596293   -0.313162
     20          6           0        4.323412    5.149859   -0.425312
     21          6           0        5.229083    3.998368   -0.311808
     22          6           0        1.617179    5.244147   -0.370066
     23          6           0        4.753702    6.574740   -0.703283
     24          8           0        5.934291    6.839235   -0.972614
     25          6           0        3.705966    7.766958   -0.572388
     26          7           0        7.362652    1.732787   -0.046102
     27          6           0        7.603932    3.032569   -0.195564
     28          6           0        9.144398    3.382082   -0.421199
     29          6           0        9.821729    2.034442    0.070636
     30          6           0        8.590785    1.072180    0.137723
     31          6           0        9.512244    3.805381   -1.858591
     32          6           0       10.701844    2.202795    1.284579
     33          6           0       12.071237    1.459749    1.339505
     34          7           0        6.320200   -0.968419    0.422697
     35          6           0        7.686552   -1.330279    0.454406
     36          6           0        7.768491   -2.778832    0.674446
     37          6           0        6.404835   -3.263538    0.640449
     38          6           0        5.564457   -2.114530    0.535689
     39          6           0        9.000590   -3.641193    0.975956
     40          6           0        5.489887   -4.364191    0.784445
     41          8           0        5.680831   -5.574027    0.897256
     42          6           0        4.055199   -3.812495    0.698679
     43          6           0        3.409360   -4.609640   -0.400358
     44          8           0        3.353855   -4.272364   -1.586055
     45          8           0        2.951314   -5.768640    0.075618
     46          6           0        2.368619   -6.715288   -0.915369
     47          6           0       -2.717522   -3.289585   -0.970297
     48          6           0       -4.075321   -2.965312   -0.412807
     49          6           0       -5.255506   -3.627054   -0.383477
     50          6           0       -5.531164   -4.954589   -1.044719
     51          6           0       -6.452203   -3.036289    0.348586
     52          6           0       -6.721817   -1.564394    0.014534
     53          6           0       -8.192437   -1.205031   -0.404055
     54          6           0       -8.654074    0.300305   -0.146058
     55          6           0       -9.530894    0.438372    1.147358
     56          6           0       -9.202989    1.001401   -1.457866
     57          6           0      -10.584520    0.315910   -1.948190
     58          6           0      -11.756206    1.193166   -2.536927
     59          6           0      -13.119006    0.789377   -1.910283
     60          6           0      -14.262578    0.968934   -2.857643
     61          6           0      -13.483091    1.787297   -0.783805
     62          6           0      -13.337792    1.183163    0.661070
     63          6           0      -12.660399    2.217011    1.746320
     64          6           0      -13.411274    2.370523    3.077221
     65          6           0      -12.450251    3.192077    3.981488
     66          6           0      -14.835894    2.946748    2.921648
     67          1           0        1.128698    2.487259   -0.123521
     68          1           0        7.258813    4.871252   -0.608425
     69          1           0        9.816280   -0.566746    0.386741
     70          1           0        1.627022   -2.113907   -0.735009
     71          1           0        0.415821    0.082120    0.988966
     72          1           0        0.511622    0.430038   -2.039496
     73          1           0       -1.008477    0.501903   -1.046019
     74          1           0       -0.340333   -0.976138   -1.543470
     75          1           0        0.268144   -1.811994    1.871970
     76          1           0        1.841655   -2.585220    2.113219
     77          1           0       -0.304891   -3.903577    1.964800
     78          1           0        0.943509   -4.575833    0.980207
     79          1           0        1.497755    6.200765    0.139052
     80          1           0        0.832936    4.622650    0.060788
     81          1           0        1.369320    5.385453   -1.421956
     82          1           0        3.056002    7.868412   -1.440479
     83          1           0        4.366631    8.632574   -0.621393
     84          1           0        3.257704    7.702825    0.418719
     85          1           0        9.492223    4.191985    0.219298
     86          1           0       10.436174    1.612618   -0.723825
     87          1           0        9.891340    2.913812   -2.357256
     88          1           0       10.220630    4.631716   -1.801061
     89          1           0        8.685526    4.258832   -2.404530
     90          1           0       10.050363    1.800621    2.060444
     91          1           0       10.901872    3.243481    1.538823
     92          1           0       12.882209    2.141151    1.080704
     93          1           0       11.995750    0.716647    0.545387
     94          1           0       12.199113    0.911525    2.273486
     95          1           0        9.613637   -3.700819    0.076921
     96          1           0        8.577883   -4.468785    1.546545
     97          1           0        9.631043   -3.084570    1.670556
     98          1           0        3.599894   -3.990482    1.672888
     99          1           0        3.111056   -7.478454   -1.148768
    100          1           0        2.033202   -6.183527   -1.806075
    101          1           0        1.528244   -7.234932   -0.453985
    102          1           0       -2.688486   -4.348284   -1.229380
    103          1           0       -2.476277   -2.594593   -1.775637
    104          1           0       -4.106031   -1.992159    0.076580
    105          1           0       -6.019426   -4.666281   -1.975969
    106          1           0       -6.235128   -5.578391   -0.493854
    107          1           0       -4.585157   -5.481318   -1.170726
    108          1           0       -6.212102   -3.173282    1.403823
    109          1           0       -7.377563   -3.593590    0.204511
    110          1           0       -6.138180   -1.312207   -0.870488
    111          1           0       -6.423377   -1.078784    0.944064
    112          1           0       -8.912029   -1.848570    0.102267
    113          1           0       -8.389932   -1.359515   -1.464743
    114          1           0       -7.815121    0.929117    0.153705
    115          1           0      -10.578380    0.519704    0.853915
    116          1           0       -9.427758    1.275454    1.837869
    117          1           0       -9.382499   -0.409048    1.816290
    118          1           0       -8.434853    1.020348   -2.230458
    119          1           0       -9.446496    2.032617   -1.201580
    120          1           0      -11.020982   -0.245505   -1.123037
    121          1           0      -10.322587   -0.336437   -2.781346
    122          1           0      -11.808496    0.984319   -3.605977
    123          1           0      -11.459352    2.242143   -2.503004
    124          1           0      -12.999242   -0.125515   -1.328608
    125          1           0      -13.964105    0.548203   -3.818507
    126          1           0      -14.421830    2.040111   -2.977044
    127          1           0      -15.171595    0.536940   -2.438850
    128          1           0      -14.541504    2.048079   -0.802667
    129          1           0      -12.858195    2.681313   -0.791288
    130          1           0      -12.665199    0.324823    0.646222
    131          1           0      -14.320647    0.940983    1.065058
    132          1           0      -12.480015    3.168407    1.245340
    133          1           0      -11.687320    1.802073    2.011285
    134          1           0      -13.539610    1.403834    3.564089
    135          1           0      -11.409051    2.912095    3.818215
    136          1           0      -12.795361    3.151862    5.015042
    137          1           0      -12.613452    4.233026    3.703689
    138          1           0      -15.014249    3.749578    3.637515
    139          1           0      -15.631803    2.218094    3.076400
    140          1           0      -14.883838    3.287734    1.887298
 ---------------------------------------------------------------------

 SCF Done:  E(RZINDO/S) =  -473.767084424     A.U. after   20 cycles

 Excitation energies and oscillator strengths:

 Excited State   1:      Singlet-A      1.2760 eV  971.67 nm  f=0.6206  <S**2>=0.000
     175 ->178        -0.18036
     176 ->177         0.66672
 This state for optimization and/or second-order correction.
 Total Energy, E(CIS/TDA) =  -473.720192525
 Copying the excited state density for this state as the 1-particle RhoCI density.

 Excited State   2:      Singlet-A      1.8864 eV  657.25 nm  f=0.0939  <S**2>=0.000
     175 ->177         0.57898
     176 ->178         0.37137

 Excited State   3:      Singlet-A      2.9702 eV  417.43 nm  f=0.1514  <S**2>=0.000
     166 ->179        -0.14546
     167 ->179         0.11319
     168 ->177         0.27946
     168 ->179        -0.38181
     168 ->180         0.18915
     168 ->184         0.11055
     168 ->186        -0.15903
     175 ->177        -0.13769
     176 ->178         0.23729

 Excited State   4:      Singlet-A      2.9783 eV  416.29 nm  f=0.5784  <S**2>=0.000
     168 ->177        -0.12766
     168 ->179         0.19420
     175 ->177        -0.25997
     176 ->178         0.44881
     176 ->179         0.25909
     176 ->180         0.14721

 Excited State   5:      Singlet-A      3.0104 eV  411.86 nm  f=0.0004  <S**2>=0.000
     170 ->177         0.31415
     170 ->178         0.19012
     170 ->179         0.26298
     170 ->180         0.35523
     170 ->181        -0.16340
     170 ->186         0.14572
     170 ->188         0.18025
     170 ->203        -0.12866

 The electronic state is 1-A.
 Alpha  occ. eigenvalues --   -1.80601  -1.79436  -1.77640  -1.76230  -1.72111
 Alpha  occ. eigenvalues --   -1.68586  -1.65175  -1.58818  -1.57260  -1.56933
 Alpha  occ. eigenvalues --   -1.55559  -1.51411  -1.48402  -1.47451  -1.46365
 Alpha  occ. eigenvalues --   -1.42083  -1.41130  -1.38560  -1.37499  -1.35975
 Alpha  occ. eigenvalues --   -1.34854  -1.32435  -1.31260  -1.30849  -1.28292
 Alpha  occ. eigenvalues --   -1.26808  -1.23227  -1.21820  -1.20868  -1.17668
 Alpha  occ. eigenvalues --   -1.17591  -1.16386  -1.15024  -1.14643  -1.12768
 Alpha  occ. eigenvalues --   -1.12211  -1.11409  -1.09399  -1.04289  -1.03219
 Alpha  occ. eigenvalues --   -1.01663  -1.00820  -0.98079  -0.97083  -0.96584
 Alpha  occ. eigenvalues --   -0.95527  -0.94408  -0.93116  -0.92951  -0.92106
 Alpha  occ. eigenvalues --   -0.91488  -0.90032  -0.88427  -0.87158  -0.85667
 Alpha  occ. eigenvalues --   -0.84992  -0.83929  -0.83233  -0.81575  -0.80597
 Alpha  occ. eigenvalues --   -0.78985  -0.77773  -0.77065  -0.76465  -0.76367
 Alpha  occ. eigenvalues --   -0.75984  -0.74289  -0.74217  -0.73682  -0.73461
 Alpha  occ. eigenvalues --   -0.72978  -0.72201  -0.71814  -0.71385  -0.70628
 Alpha  occ. eigenvalues --   -0.69295  -0.69153  -0.68743  -0.68127  -0.67396
 Alpha  occ. eigenvalues --   -0.67271  -0.67008  -0.66660  -0.66364  -0.65763
 Alpha  occ. eigenvalues --   -0.65314  -0.64842  -0.64488  -0.63932  -0.63588
 Alpha  occ. eigenvalues --   -0.63434  -0.63222  -0.62604  -0.62340  -0.61738
 Alpha  occ. eigenvalues --   -0.61615  -0.61234  -0.60960  -0.60532  -0.59264
 Alpha  occ. eigenvalues --   -0.59224  -0.58774  -0.58698  -0.58164  -0.57896
 Alpha  occ. eigenvalues --   -0.57345  -0.57205  -0.57062  -0.56567  -0.56456
 Alpha  occ. eigenvalues --   -0.56308  -0.55585  -0.55095  -0.54564  -0.54375
 Alpha  occ. eigenvalues --   -0.54171  -0.53386  -0.53056  -0.52775  -0.52485
 Alpha  occ. eigenvalues --   -0.52166  -0.51997  -0.51760  -0.51658  -0.51348
 Alpha  occ. eigenvalues --   -0.51133  -0.50986  -0.50730  -0.50500  -0.50277
 Alpha  occ. eigenvalues --   -0.50026  -0.49632  -0.49467  -0.49002  -0.48426
 Alpha  occ. eigenvalues --   -0.48334  -0.48245  -0.47926  -0.47840  -0.47740
 Alpha  occ. eigenvalues --   -0.47450  -0.47226  -0.46952  -0.46622  -0.46546
 Alpha  occ. eigenvalues --   -0.46506  -0.46282  -0.46244  -0.46058  -0.45671
 Alpha  occ. eigenvalues --   -0.44918  -0.44843  -0.44296  -0.43956  -0.43818
 Alpha  occ. eigenvalues --   -0.43687  -0.43125  -0.42839  -0.42511  -0.41914
 Alpha  occ. eigenvalues --   -0.41905  -0.41588  -0.40098  -0.38646  -0.38510
 Alpha  occ. eigenvalues --   -0.37203  -0.36805  -0.36333  -0.34356  -0.34120
 Alpha  occ. eigenvalues --   -0.33880  -0.32625  -0.32105  -0.31302  -0.26511
 Alpha  occ. eigenvalues --   -0.22071
 Alpha virt. eigenvalues --   -0.08837  -0.01905  -0.00791   0.01179   0.01370
 Alpha virt. eigenvalues --    0.02028   0.02900   0.03906   0.04827   0.05010
 Alpha virt. eigenvalues --    0.06121   0.06493   0.07319   0.07809   0.08057

 Mulliken charges:
               1
     1  Mg   0.426999
     2  C   -0.032872
     3  C   -0.084215
     4  C   -0.069680
     5  C   -0.064272
     6  N   -0.272286
     7  C    0.105080
     8  C    0.003323
     9  C   -0.008995
    10  C    0.158839
    11  C   -0.060671
    12  C   -0.030390
    13  C    0.002775
    14  C    0.469442
    15  O   -0.534080
    16  O   -0.249310
    17  N   -0.324940
    18  C    0.123769
    19  C    0.023777
    20  C   -0.034437
    21  C    0.161695
    22  C   -0.041468
    23  C    0.320125
    24  O   -0.513830
    25  C   -0.038054
    26  N   -0.258551
    27  C    0.166014
    28  C   -0.003939
    29  C    0.002748
    30  C    0.088393
    31  C   -0.049790
    32  C   -0.029083
    33  C   -0.060900
    34  N   -0.331255
    35  C    0.065605
    36  C    0.012825
    37  C   -0.067090
    38  C    0.100459
    39  C   -0.045223
    40  C    0.339788
    41  O   -0.541084
    42  C    0.059328
    43  C    0.498219
    44  O   -0.537375
    45  O   -0.256845
    46  C    0.074229
    47  C    0.114140
    48  C   -0.104218
    49  C   -0.001484
    50  C   -0.043888
    51  C   -0.022463
    52  C   -0.032162
    53  C   -0.037610
    54  C   -0.017230
    55  C   -0.066488
    56  C   -0.034608
    57  C   -0.052413
    58  C   -0.037428
    59  C   -0.013708
    60  C   -0.045210
    61  C   -0.045186
    62  C   -0.062181
    63  C   -0.048297
    64  C   -0.009728
    65  C   -0.060624
    66  C   -0.056921
    67  H    0.021985
    68  H    0.042748
    69  H    0.031730
    70  H    0.058861
    71  H    0.037136
    72  H    0.028166
    73  H    0.027319
    74  H    0.022403
    75  H    0.018719
    76  H    0.025513
    77  H    0.029863
    78  H    0.044114
    79  H    0.028244
    80  H    0.025273
    81  H    0.033928
    82  H    0.047879
    83  H    0.033882
    84  H    0.041702
    85  H    0.031354
    86  H    0.025438
    87  H    0.028992
    88  H    0.021078
    89  H    0.027126
    90  H    0.016337
    91  H    0.020196
    92  H    0.025738
    93  H    0.015678
    94  H    0.027647
    95  H    0.046316
    96  H    0.048134
    97  H    0.014364
    98  H    0.051119
    99  H    0.043490
   100  H    0.060946
   101  H    0.028355
   102  H    0.050774
   103  H    0.056457
   104  H    0.016830
   105  H    0.034085
   106  H    0.025043
   107  H    0.027406
   108  H    0.024330
   109  H    0.017998
   110  H    0.027671
   111  H    0.028115
   112  H    0.017735
   113  H    0.019871
   114  H    0.009426
   115  H    0.021562
   116  H    0.019683
   117  H    0.014884
   118  H    0.026503
   119  H    0.014713
   120  H    0.028065
   121  H    0.015728
   122  H    0.009591
   123  H    0.026044
   124  H    0.039444
   125  H    0.011427
   126  H    0.021217
   127  H    0.020864
   128  H    0.018081
   129  H    0.023916
   130  H    0.022412
   131  H    0.022583
   132  H    0.023904
   133  H    0.015028
   134  H    0.015700
   135  H    0.027881
   136  H    0.015529
   137  H    0.013713
   138  H    0.019244
   139  H    0.018660
   140  H    0.021024
 Sum of Mulliken charges =  -0.00000

 Dipole moment (field-independent basis, Debye):
    X=             -7.1581    Y=              7.7480    Z=              5.3223  Tot=             11.8151
 N-N= 4.274317727702D+03 E-N= 0.000000000000D+00  KE=-9.223134391956D+03
 Leave Link  601 at Thu May  5 09:34:23 2022, MaxMem=  6710886400 cpu:               0.8 elap:               0.0
 (Enter /sw/apps/gaussian-16.0/g16/l9999.exe)
 1\1\GINC-BP1-COMPUTE069\SP\RZINDO CIS\STO-3G\C55H74Mg1N4O6\OF15641\05-
 May-2022\0\\#p ZINDO=(nstates=5)\\step_751_chromophore_6 ZINDO\\0,1\Mg
 ,0,16.994,-2.06,27.892\C,0,16.272,-0.005,30.616\C,0,18.912,-4.065,30.0
 4\C,0,18.128,-3.758,25.235\C,0,15.432,0.255,25.687\N,0,17.641,-1.979,3
 0.05\C,0,17.024,-1.158,30.951\C,0,17.638,-1.438,32.317\C,0,18.425,-2.8
 18,32.202\C,0,18.373,-2.953,30.639\C,0,19.952,-2.795,32.782\C,0,16.546
 ,-1.515,33.463\C,0,16.699,-0.607,34.726\C,0,18.138,-0.475,35.222\O,0,1

 Normal termination of Gaussian 16 at Thu May  5 09:34:23 2022.
