 Gaussian 16, Revision A.03,
 Gaussian 16:  ES64L-G16RevA.03 25-Dec-2016

 ------------------------------
 #p blyp/Def2SVP td=(nstates=5)
 ------------------------------

 ---------------------------------------------------
 step_1251_chromophore_13 TDDFT with blyp functional
 ---------------------------------------------------
 Symbolic Z-matrix:
 Charge =  0 Multiplicity = 1

                         Standard orientation:
 ---------------------------------------------------------------------
 Center     Atomic      Atomic             Coordinates (Angstroms)
 Number     Number       Type             X           Y           Z
 ---------------------------------------------------------------------
      1         12           0        5.755531    0.394563    0.058106
      2          6           0        3.427034   -2.222646    0.092609
      3          6           0        3.247866    2.579920   -0.847802
      4          6           0        8.043606    2.677221   -0.346970
      5          6           0        8.295035   -1.902628    0.622933
      6          7           0        3.584060    0.192584   -0.209387
      7          6           0        2.829268   -0.984975   -0.113379
      8          6           0        1.388875   -0.726176   -0.450829
      9          6           0        1.447718    0.682700   -1.193236
     10          6           0        2.815558    1.200439   -0.733988
     11          6           0        1.427404    0.738619   -2.745317
     12          6           0        0.412482   -0.740013    0.791849
     13          6           0       -0.385511   -1.981643    1.131628
     14          6           0       -1.837279   -1.781091    1.386917
     15          8           0       -2.380259   -1.650045    2.453697
     16          8           0       -2.570514   -1.925899    0.153239
     17          7           0        5.639979    2.417271   -0.358297
     18          6           0        4.512967    3.180992   -0.653659
     19          6           0        4.882526    4.580952   -0.730811
     20          6           0        6.295892    4.655710   -0.649209
     21          6           0        6.713025    3.243141   -0.457619
     22          6           0        3.825079    5.608539   -0.742820
     23          6           0        7.186222    5.830669   -0.702362
     24          8           0        8.405571    5.750662   -0.381248
     25          6           0        6.673769    7.162058   -1.126282
     26          7           0        7.801893    0.395424    0.235159
     27          6           0        8.575411    1.446308   -0.035353
     28          6           0       10.097071    1.221440    0.170969
     29          6           0       10.126904   -0.187338    0.700551
     30          6           0        8.652535   -0.588620    0.515983
     31          6           0       11.076548    1.574635   -0.954401
     32          6           0       10.645035   -0.523693    2.097917
     33          6           0        9.836179   -0.059091    3.267542
     34          7           0        5.946039   -1.675785    0.219155
     35          6           0        7.029185   -2.495776    0.398317
     36          6           0        6.634982   -3.844531    0.450536
     37          6           0        5.191020   -3.829232    0.364619
     38          6           0        4.827069   -2.470746    0.209245
     39          6           0        7.395809   -5.005443    0.828417
     40          6           0        4.003808   -4.601641    0.325496
     41          8           0        3.835497   -5.814428    0.508069
     42          6           0        2.852466   -3.620600    0.105355
     43          6           0        2.178492   -3.936500   -1.183325
     44          8           0        2.422862   -3.424283   -2.240891
     45          8           0        1.156131   -4.730599   -1.010174
     46          6           0        0.245900   -5.055199   -2.131238
     47          6           0       -4.004111   -2.343565    0.377537
     48          6           0       -5.065054   -1.517125   -0.372396
     49          6           0       -6.383792   -1.513060   -0.240903
     50          6           0       -7.149814   -2.308981    0.806237
     51          6           0       -7.301290   -0.501752   -1.058778
     52          6           0       -7.010055    0.887274   -0.483565
     53          6           0       -8.221654    1.808792   -0.684890
     54          6           0       -8.788978    2.463458    0.618403
     55          6           0       -7.790946    3.609850    1.085602
     56          6           0       -9.190819    1.467904    1.762465
     57          6           0      -10.332117    2.091924    2.624548
     58          6           0      -11.606508    1.236431    2.836227
     59          6           0      -12.796868    1.768845    1.937410
     60          6           0      -13.950236    2.289598    2.894615
     61          6           0      -13.329114    0.577512    1.090452
     62          6           0      -13.383056    0.991012   -0.373202
     63          6           0      -13.735719   -0.197068   -1.308125
     64          6           0      -12.977765   -0.265148   -2.645102
     65          6           0      -13.675733   -1.194066   -3.614938
     66          6           0      -11.552361   -0.806146   -2.380271
     67          1           0        2.397462    3.232191   -1.058572
     68          1           0        8.827587    3.414964   -0.528659
     69          1           0        9.109816   -2.585036    0.872157
     70          1           0        1.025129   -1.388728   -1.236355
     71          1           0        0.696710    1.329798   -0.738363
     72          1           0        1.322609   -0.263650   -3.161140
     73          1           0        2.370031    1.030404   -3.209890
     74          1           0        0.607867    1.381514   -3.064291
     75          1           0       -0.291908    0.073120    0.615910
     76          1           0        1.028255   -0.479030    1.653157
     77          1           0       -0.050678   -2.405748    2.077911
     78          1           0       -0.283818   -2.657795    0.282044
     79          1           0        2.840449    5.210685   -0.494994
     80          1           0        3.727113    6.096360   -1.712086
     81          1           0        3.988327    6.323997    0.063094
     82          1           0        5.926289    7.516855   -0.416857
     83          1           0        6.261097    7.102342   -2.133719
     84          1           0        7.482486    7.892011   -1.168054
     85          1           0       10.440806    1.866150    0.979781
     86          1           0       10.714478   -0.839396    0.054398
     87          1           0       11.917543    0.917791   -1.178406
     88          1           0       11.459458    2.515262   -0.559337
     89          1           0       10.555620    1.926027   -1.844010
     90          1           0       11.617806   -0.061482    2.268118
     91          1           0       10.846922   -1.593524    2.143184
     92          1           0       10.417712    0.533826    3.973697
     93          1           0        9.331185   -0.951029    3.639209
     94          1           0        9.072329    0.647200    2.941502
     95          1           0        8.477092   -4.862829    0.841705
     96          1           0        7.213061   -5.788949    0.092575
     97          1           0        7.098137   -5.274744    1.841512
     98          1           0        2.017393   -3.618652    0.806561
     99          1           0       -0.623666   -4.400307   -2.083979
    100          1           0       -0.183337   -6.052321   -2.034109
    101          1           0        0.715929   -5.049235   -3.115577
    102          1           0       -4.256243   -2.443045    1.433804
    103          1           0       -4.113897   -3.312152   -0.110130
    104          1           0       -4.670305   -0.840529   -1.130885
    105          1           0       -7.270468   -1.823886    1.775670
    106          1           0       -6.753282   -3.271819    1.129191
    107          1           0       -8.174252   -2.395080    0.443970
    108          1           0       -8.354609   -0.708181   -0.869878
    109          1           0       -6.886716   -0.557467   -2.065800
    110          1           0       -6.161685    1.236224   -1.073508
    111          1           0       -6.699652    0.734711    0.549809
    112          1           0       -9.077782    1.316957   -1.147737
    113          1           0       -7.977401    2.648664   -1.334746
    114          1           0       -9.694140    2.965146    0.276758
    115          1           0       -7.925863    3.983926    2.100548
    116          1           0       -7.824460    4.466650    0.412578
    117          1           0       -6.742367    3.311719    1.075130
    118          1           0       -8.232346    1.309611    2.257068
    119          1           0       -9.359175    0.540766    1.214952
    120          1           0      -10.577719    3.060733    2.190100
    121          1           0       -9.841454    2.167087    3.595365
    122          1           0      -11.931206    1.124893    3.870795
    123          1           0      -11.297249    0.255051    2.475522
    124          1           0      -12.545111    2.658165    1.361395
    125          1           0      -14.507073    2.867418    2.157305
    126          1           0      -13.593494    2.883520    3.736630
    127          1           0      -14.508875    1.467452    3.340352
    128          1           0      -14.258981    0.273948    1.572125
    129          1           0      -12.716456   -0.318666    1.184307
    130          1           0      -12.453846    1.478790   -0.670184
    131          1           0      -14.058421    1.843182   -0.450052
    132          1           0      -14.823226   -0.187446   -1.380907
    133          1           0      -13.550166   -1.178153   -0.870013
    134          1           0      -12.798703    0.772182   -2.928955
    135          1           0      -14.692589   -0.830386   -3.756608
    136          1           0      -13.805550   -2.157864   -3.124027
    137          1           0      -13.181336   -1.263171   -4.585137
    138          1           0      -11.276704   -1.621548   -3.048637
    139          1           0      -11.374670   -1.117985   -1.350270
    140          1           0      -10.874043    0.009344   -2.630899
 ---------------------------------------------------------------------

 SCF Done:  E(RB-LYP) =  -3007.37744224     A.U. after   22 cycles

 Excitation energies and oscillator strengths:

 Excited State   1:      Singlet-A      1.7259 eV  718.39 nm  f=0.0978  <S**2>=0.000
     243 -> 247       -0.17657
     244 -> 247        0.44012
     245 -> 247       -0.23530
     245 -> 248       -0.10754
     246 -> 247        0.46041
 This state for optimization and/or second-order correction.
 Total Energy, E(TD-HF/TD-DFT) =  -3007.31401778
 Copying the excited state density for this state as the 1-particle RhoCI density.

 Excited State   2:      Singlet-A      1.7725 eV  699.49 nm  f=0.1382  <S**2>=0.000
     243 -> 247        0.15652
     244 -> 247        0.50329
     245 -> 248        0.10600
     246 -> 247       -0.45317
     246 <- 247        0.10320

 Excited State   3:      Singlet-A      1.8531 eV  669.06 nm  f=0.0758  <S**2>=0.000
     243 -> 247        0.60788
     245 -> 247        0.22361
     246 -> 247        0.25231

 Excited State   4:      Singlet-A      1.9828 eV  625.31 nm  f=0.1064  <S**2>=0.000
     243 -> 247       -0.26741
     244 -> 247        0.20401
     245 -> 247        0.57385
     246 -> 248        0.16907
     246 -> 249        0.11308

 Excited State   5:      Singlet-A      2.2209 eV  558.25 nm  f=0.0000  <S**2>=0.000
     241 -> 247        0.70710

 The electronic state is 1-A.
 Alpha  occ. eigenvalues --  -46.26457 -18.82501 -18.81476 -18.78055 -18.75617
 Alpha  occ. eigenvalues --  -18.75261 -18.74663 -14.03546 -14.02890 -14.01322
 Alpha  occ. eigenvalues --  -14.00164 -10.04443 -10.03353  -9.99824  -9.98857
 Alpha  occ. eigenvalues --   -9.98402  -9.97964  -9.97207  -9.96553  -9.96499
 Alpha  occ. eigenvalues --   -9.96142  -9.95980  -9.95398  -9.94669  -9.94597
 Alpha  occ. eigenvalues --   -9.94431  -9.94377  -9.94191  -9.94059  -9.93927
 Alpha  occ. eigenvalues --   -9.93548  -9.93535  -9.93529  -9.93464  -9.93377
 Alpha  occ. eigenvalues --   -9.93371  -9.92948  -9.92798  -9.92654  -9.92587
 Alpha  occ. eigenvalues --   -9.92281  -9.92147  -9.92122  -9.92064  -9.92029
 Alpha  occ. eigenvalues --   -9.92006  -9.91921  -9.91919  -9.91687  -9.91556
 Alpha  occ. eigenvalues --   -9.91530  -9.91461  -9.91445  -9.91377  -9.91311
 Alpha  occ. eigenvalues --   -9.91293  -9.91276  -9.91113  -9.91027  -9.90961
 Alpha  occ. eigenvalues --   -9.90948  -9.90930  -9.90907  -9.90760  -9.90686
 Alpha  occ. eigenvalues --   -9.90452  -2.91217  -1.71652  -1.71093  -1.70929
 Alpha  occ. eigenvalues --   -0.99845  -0.96896  -0.90219  -0.89804  -0.89521
 Alpha  occ. eigenvalues --   -0.89481  -0.88050  -0.85705  -0.85331  -0.84627
 Alpha  occ. eigenvalues --   -0.75868  -0.73476  -0.73373  -0.73164  -0.72930
 Alpha  occ. eigenvalues --   -0.72035  -0.71792  -0.71059  -0.70814  -0.70746
 Alpha  occ. eigenvalues --   -0.69992  -0.69510  -0.68141  -0.68018  -0.67574
 Alpha  occ. eigenvalues --   -0.66687  -0.66179  -0.65662  -0.64918  -0.64544
 Alpha  occ. eigenvalues --   -0.63697  -0.63000  -0.62751  -0.62287  -0.61196
 Alpha  occ. eigenvalues --   -0.60259  -0.60132  -0.59862  -0.59326  -0.58991
 Alpha  occ. eigenvalues --   -0.58165  -0.57595  -0.56617  -0.56091  -0.55435
 Alpha  occ. eigenvalues --   -0.54327  -0.53779  -0.53299  -0.52808  -0.51495
 Alpha  occ. eigenvalues --   -0.51269  -0.50914  -0.50607  -0.50393  -0.50182
 Alpha  occ. eigenvalues --   -0.48926  -0.48864  -0.48471  -0.47561  -0.47062
 Alpha  occ. eigenvalues --   -0.46301  -0.45976  -0.45901  -0.45271  -0.44358
 Alpha  occ. eigenvalues --   -0.44266  -0.44116  -0.43283  -0.42941  -0.42712
 Alpha  occ. eigenvalues --   -0.42429  -0.41976  -0.41889  -0.41360  -0.41290
 Alpha  occ. eigenvalues --   -0.41118  -0.40750  -0.40709  -0.40261  -0.40182
 Alpha  occ. eigenvalues --   -0.40008  -0.39910  -0.39726  -0.39377  -0.39255
 Alpha  occ. eigenvalues --   -0.39013  -0.38728  -0.38636  -0.38617  -0.38318
 Alpha  occ. eigenvalues --   -0.38296  -0.38038  -0.37823  -0.37788  -0.37466
 Alpha  occ. eigenvalues --   -0.37044  -0.36905  -0.36797  -0.36644  -0.36586
 Alpha  occ. eigenvalues --   -0.36463  -0.36199  -0.36128  -0.35521  -0.35444
 Alpha  occ. eigenvalues --   -0.35271  -0.35132  -0.34902  -0.34612  -0.34478
 Alpha  occ. eigenvalues --   -0.34354  -0.34312  -0.34264  -0.34065  -0.33898
 Alpha  occ. eigenvalues --   -0.33780  -0.33537  -0.33495  -0.33210  -0.32924
 Alpha  occ. eigenvalues --   -0.32759  -0.32594  -0.32534  -0.32334  -0.32143
 Alpha  occ. eigenvalues --   -0.31996  -0.31934  -0.31619  -0.31498  -0.31448
 Alpha  occ. eigenvalues --   -0.31316  -0.31238  -0.31119  -0.30810  -0.30749
 Alpha  occ. eigenvalues --   -0.30468  -0.30211  -0.30123  -0.29988  -0.29852
 Alpha  occ. eigenvalues --   -0.29695  -0.29534  -0.29452  -0.29243  -0.29139
 Alpha  occ. eigenvalues --   -0.29118  -0.28728  -0.28595  -0.28404  -0.27578
 Alpha  occ. eigenvalues --   -0.27541  -0.27228  -0.26915  -0.26664  -0.26590
 Alpha  occ. eigenvalues --   -0.26529  -0.26076  -0.25952  -0.25909  -0.25382
 Alpha  occ. eigenvalues --   -0.25171  -0.24747  -0.24213  -0.23815  -0.23579
 Alpha  occ. eigenvalues --   -0.23107  -0.22921  -0.22088  -0.21368  -0.20980
 Alpha  occ. eigenvalues --   -0.19936  -0.19677  -0.18476  -0.18157  -0.17121
 Alpha  occ. eigenvalues --   -0.15872
 Alpha virt. eigenvalues --   -0.11775  -0.06690  -0.06637  -0.04619  -0.04088
 Alpha virt. eigenvalues --   -0.01914  -0.01285  -0.01201  -0.00826   0.00072
 Alpha virt. eigenvalues --    0.01162   0.01289   0.01377   0.02230   0.02423

 Mulliken charges:
               1
     1  Mg   0.705390
     2  C    0.051857
     3  C   -0.052567
     4  C   -0.052359
     5  C   -0.113393
     6  N   -0.228152
     7  C   -0.039834
     8  C   -0.019478
     9  C   -0.022600
    10  C   -0.020867
    11  C    0.147466
    12  C    0.122071
    13  C    0.168258
    14  C    0.061605
    15  O   -0.152368
    16  O   -0.334490
    17  N   -0.295110
    18  C    0.147113
    19  C   -0.128364
    20  C    0.095491
    21  C    0.083113
    22  C    0.163987
    23  C   -0.104597
    24  O   -0.199694
    25  C    0.143271
    26  N   -0.193177
    27  C    0.032904
    28  C    0.055990
    29  C    0.058418
    30  C    0.005969
    31  C    0.136501
    32  C    0.066184
    33  C    0.087356
    34  N   -0.267917
    35  C    0.148328
    36  C   -0.166804
    37  C    0.109645
    38  C    0.034692
    39  C    0.181296
    40  C   -0.056483
    41  O   -0.151935
    42  C    0.069632
    43  C    0.059241
    44  O   -0.176869
    45  O   -0.226061
    46  C    0.205946
    47  C    0.304835
    48  C   -0.089044
    49  C   -0.168440
    50  C    0.117228
    51  C    0.124626
    52  C    0.065534
    53  C    0.091739
    54  C   -0.104679
    55  C    0.081270
    56  C    0.088427
    57  C    0.097811
    58  C    0.127247
    59  C   -0.100192
    60  C    0.081666
    61  C    0.110827
    62  C    0.069644
    63  C    0.085034
    64  C   -0.071896
    65  C    0.131539
    66  C    0.077546
    67  H   -0.067883
    68  H   -0.059804
    69  H   -0.080436
    70  H   -0.014894
    71  H   -0.030752
    72  H   -0.000694
    73  H    0.002941
    74  H    0.001889
    75  H   -0.012508
    76  H   -0.013468
    77  H    0.011768
    78  H    0.003032
    79  H   -0.015831
    80  H    0.005688
    81  H    0.005654
    82  H    0.004901
    83  H    0.005247
    84  H   -0.008002
    85  H   -0.024631
    86  H   -0.043244
    87  H    0.003934
    88  H   -0.010532
    89  H   -0.009476
    90  H   -0.033062
    91  H   -0.022021
    92  H   -0.008905
    93  H   -0.002030
    94  H   -0.009089
    95  H   -0.030286
    96  H    0.007342
    97  H    0.016821
    98  H   -0.012362
    99  H    0.019296
   100  H    0.015585
   101  H    0.028965
   102  H    0.017157
   103  H    0.000796
   104  H   -0.045207
   105  H   -0.000182
   106  H   -0.011144
   107  H   -0.016714
   108  H   -0.015370
   109  H   -0.014927
   110  H   -0.028908
   111  H    0.000259
   112  H   -0.024963
   113  H   -0.042378
   114  H   -0.038899
   115  H   -0.020296
   116  H   -0.022298
   117  H   -0.021761
   118  H   -0.026148
   119  H   -0.038774
   120  H   -0.010791
   121  H   -0.033115
   122  H   -0.034001
   123  H   -0.039834
   124  H   -0.027133
   125  H   -0.013169
   126  H   -0.012819
   127  H   -0.009880
   128  H   -0.040342
   129  H   -0.034692
   130  H   -0.032187
   131  H   -0.034700
   132  H   -0.041565
   133  H   -0.040402
   134  H   -0.035958
   135  H   -0.027093
   136  H   -0.018980
   137  H   -0.008087
   138  H   -0.023670
   139  H   -0.005035
   140  H   -0.009269
 Sum of Mulliken charges =  -0.00000

 Dipole moment (field-independent basis, Debye):
    X=             -2.4126    Y=              2.8985    Z=             -1.2063  Tot=              3.9594
 Quadrupole moment (field-independent basis, Debye-Ang):
   XX=           -383.2564   YY=           -421.8341   ZZ=           -407.8743
   XY=             -1.3033   XZ=             11.5346   YZ=             -0.4622

 Normal termination of Gaussian 16 at Wed Apr 27 16:26:02 2022.
