 Gaussian 16, Revision A.03,
 Gaussian 16:  ES64L-G16RevA.03 25-Dec-2016

 -----------------------------------
 #p cam-b3lyp/Def2SVP td=(nstates=5)
 -----------------------------------

 --------------------------------------------------------
 step_1251_chromophore_13 TDDFT with cam-b3lyp functional
 --------------------------------------------------------
 Symbolic Z-matrix:
 Charge =  0 Multiplicity = 1

                         Standard orientation:
 ---------------------------------------------------------------------
 Center     Atomic      Atomic             Coordinates (Angstroms)
 Number     Number       Type             X           Y           Z
 ---------------------------------------------------------------------
      1         12           0        5.755531    0.394563    0.058106
      2          6           0        3.427034   -2.222646    0.092609
      3          6           0        3.247866    2.579920   -0.847802
      4          6           0        8.043606    2.677221   -0.346970
      5          6           0        8.295035   -1.902628    0.622933
      6          7           0        3.584060    0.192584   -0.209387
      7          6           0        2.829268   -0.984975   -0.113379
      8          6           0        1.388875   -0.726176   -0.450829
      9          6           0        1.447718    0.682700   -1.193236
     10          6           0        2.815558    1.200439   -0.733988
     11          6           0        1.427404    0.738619   -2.745317
     12          6           0        0.412482   -0.740013    0.791849
     13          6           0       -0.385511   -1.981643    1.131628
     14          6           0       -1.837279   -1.781091    1.386917
     15          8           0       -2.380259   -1.650045    2.453697
     16          8           0       -2.570514   -1.925899    0.153239
     17          7           0        5.639979    2.417271   -0.358297
     18          6           0        4.512967    3.180992   -0.653659
     19          6           0        4.882526    4.580952   -0.730811
     20          6           0        6.295892    4.655710   -0.649209
     21          6           0        6.713025    3.243141   -0.457619
     22          6           0        3.825079    5.608539   -0.742820
     23          6           0        7.186222    5.830669   -0.702362
     24          8           0        8.405571    5.750662   -0.381248
     25          6           0        6.673769    7.162058   -1.126282
     26          7           0        7.801893    0.395424    0.235159
     27          6           0        8.575411    1.446308   -0.035353
     28          6           0       10.097071    1.221440    0.170969
     29          6           0       10.126904   -0.187338    0.700551
     30          6           0        8.652535   -0.588620    0.515983
     31          6           0       11.076548    1.574635   -0.954401
     32          6           0       10.645035   -0.523693    2.097917
     33          6           0        9.836179   -0.059091    3.267542
     34          7           0        5.946039   -1.675785    0.219155
     35          6           0        7.029185   -2.495776    0.398317
     36          6           0        6.634982   -3.844531    0.450536
     37          6           0        5.191020   -3.829232    0.364619
     38          6           0        4.827069   -2.470746    0.209245
     39          6           0        7.395809   -5.005443    0.828417
     40          6           0        4.003808   -4.601641    0.325496
     41          8           0        3.835497   -5.814428    0.508069
     42          6           0        2.852466   -3.620600    0.105355
     43          6           0        2.178492   -3.936500   -1.183325
     44          8           0        2.422862   -3.424283   -2.240891
     45          8           0        1.156131   -4.730599   -1.010174
     46          6           0        0.245900   -5.055199   -2.131238
     47          6           0       -4.004111   -2.343565    0.377537
     48          6           0       -5.065054   -1.517125   -0.372396
     49          6           0       -6.383792   -1.513060   -0.240903
     50          6           0       -7.149814   -2.308981    0.806237
     51          6           0       -7.301290   -0.501752   -1.058778
     52          6           0       -7.010055    0.887274   -0.483565
     53          6           0       -8.221654    1.808792   -0.684890
     54          6           0       -8.788978    2.463458    0.618403
     55          6           0       -7.790946    3.609850    1.085602
     56          6           0       -9.190819    1.467904    1.762465
     57          6           0      -10.332117    2.091924    2.624548
     58          6           0      -11.606508    1.236431    2.836227
     59          6           0      -12.796868    1.768845    1.937410
     60          6           0      -13.950236    2.289598    2.894615
     61          6           0      -13.329114    0.577512    1.090452
     62          6           0      -13.383056    0.991012   -0.373202
     63          6           0      -13.735719   -0.197068   -1.308125
     64          6           0      -12.977765   -0.265148   -2.645102
     65          6           0      -13.675733   -1.194066   -3.614938
     66          6           0      -11.552361   -0.806146   -2.380271
     67          1           0        2.397462    3.232191   -1.058572
     68          1           0        8.827587    3.414964   -0.528659
     69          1           0        9.109816   -2.585036    0.872157
     70          1           0        1.025129   -1.388728   -1.236355
     71          1           0        0.696710    1.329798   -0.738363
     72          1           0        1.322609   -0.263650   -3.161140
     73          1           0        2.370031    1.030404   -3.209890
     74          1           0        0.607867    1.381514   -3.064291
     75          1           0       -0.291908    0.073120    0.615910
     76          1           0        1.028255   -0.479030    1.653157
     77          1           0       -0.050678   -2.405748    2.077911
     78          1           0       -0.283818   -2.657795    0.282044
     79          1           0        2.840449    5.210685   -0.494994
     80          1           0        3.727113    6.096360   -1.712086
     81          1           0        3.988327    6.323997    0.063094
     82          1           0        5.926289    7.516855   -0.416857
     83          1           0        6.261097    7.102342   -2.133719
     84          1           0        7.482486    7.892011   -1.168054
     85          1           0       10.440806    1.866150    0.979781
     86          1           0       10.714478   -0.839396    0.054398
     87          1           0       11.917543    0.917791   -1.178406
     88          1           0       11.459458    2.515262   -0.559337
     89          1           0       10.555620    1.926027   -1.844010
     90          1           0       11.617806   -0.061482    2.268118
     91          1           0       10.846922   -1.593524    2.143184
     92          1           0       10.417712    0.533826    3.973697
     93          1           0        9.331185   -0.951029    3.639209
     94          1           0        9.072329    0.647200    2.941502
     95          1           0        8.477092   -4.862829    0.841705
     96          1           0        7.213061   -5.788949    0.092575
     97          1           0        7.098137   -5.274744    1.841512
     98          1           0        2.017393   -3.618652    0.806561
     99          1           0       -0.623666   -4.400307   -2.083979
    100          1           0       -0.183337   -6.052321   -2.034109
    101          1           0        0.715929   -5.049235   -3.115577
    102          1           0       -4.256243   -2.443045    1.433804
    103          1           0       -4.113897   -3.312152   -0.110130
    104          1           0       -4.670305   -0.840529   -1.130885
    105          1           0       -7.270468   -1.823886    1.775670
    106          1           0       -6.753282   -3.271819    1.129191
    107          1           0       -8.174252   -2.395080    0.443970
    108          1           0       -8.354609   -0.708181   -0.869878
    109          1           0       -6.886716   -0.557467   -2.065800
    110          1           0       -6.161685    1.236224   -1.073508
    111          1           0       -6.699652    0.734711    0.549809
    112          1           0       -9.077782    1.316957   -1.147737
    113          1           0       -7.977401    2.648664   -1.334746
    114          1           0       -9.694140    2.965146    0.276758
    115          1           0       -7.925863    3.983926    2.100548
    116          1           0       -7.824460    4.466650    0.412578
    117          1           0       -6.742367    3.311719    1.075130
    118          1           0       -8.232346    1.309611    2.257068
    119          1           0       -9.359175    0.540766    1.214952
    120          1           0      -10.577719    3.060733    2.190100
    121          1           0       -9.841454    2.167087    3.595365
    122          1           0      -11.931206    1.124893    3.870795
    123          1           0      -11.297249    0.255051    2.475522
    124          1           0      -12.545111    2.658165    1.361395
    125          1           0      -14.507073    2.867418    2.157305
    126          1           0      -13.593494    2.883520    3.736630
    127          1           0      -14.508875    1.467452    3.340352
    128          1           0      -14.258981    0.273948    1.572125
    129          1           0      -12.716456   -0.318666    1.184307
    130          1           0      -12.453846    1.478790   -0.670184
    131          1           0      -14.058421    1.843182   -0.450052
    132          1           0      -14.823226   -0.187446   -1.380907
    133          1           0      -13.550166   -1.178153   -0.870013
    134          1           0      -12.798703    0.772182   -2.928955
    135          1           0      -14.692589   -0.830386   -3.756608
    136          1           0      -13.805550   -2.157864   -3.124027
    137          1           0      -13.181336   -1.263171   -4.585137
    138          1           0      -11.276704   -1.621548   -3.048637
    139          1           0      -11.374670   -1.117985   -1.350270
    140          1           0      -10.874043    0.009344   -2.630899
 ---------------------------------------------------------------------

 SCF Done:  E(RCAM-B3LYP) =  -3007.17833539     A.U. after   17 cycles

 Excitation energies and oscillator strengths:

 Excited State   1:      Singlet-A      1.7035 eV  727.81 nm  f=0.3806  <S**2>=0.000
     245 -> 248        0.16588
     246 -> 247        0.68839
     245 <- 248        0.10242
 This state for optimization and/or second-order correction.
 Total Energy, E(TD-HF/TD-DFT) =  -3007.11573210
 Copying the excited state density for this state as the 1-particle RhoCI density.

 Excited State   2:      Singlet-A      2.1609 eV  573.76 nm  f=0.1618  <S**2>=0.000
     245 -> 247        0.65612
     246 -> 248       -0.24525

 Excited State   3:      Singlet-A      3.1796 eV  389.94 nm  f=0.0068  <S**2>=0.000
     241 -> 247       -0.15116
     244 -> 247        0.67476

 Excited State   4:      Singlet-A      3.4072 eV  363.89 nm  f=0.0058  <S**2>=0.000
     240 -> 247        0.42515
     240 -> 249       -0.32542
     240 -> 250        0.12385
     241 -> 247        0.31825
     246 -> 248        0.17438

 Excited State   5:      Singlet-A      3.4624 eV  358.09 nm  f=0.0145  <S**2>=0.000
     241 -> 247       -0.15440
     242 -> 247        0.53830
     242 -> 248        0.14302
     242 -> 249        0.22761
     242 -> 250        0.25667
     246 -> 248       -0.11378

 The electronic state is 1-A.
 Alpha  occ. eigenvalues --  -46.87894 -19.25325 -19.24327 -19.21163 -19.18924
 Alpha  occ. eigenvalues --  -19.18508 -19.17476 -14.42646 -14.41548 -14.40018
 Alpha  occ. eigenvalues --  -14.38265 -10.39829 -10.38465 -10.35475 -10.33847
 Alpha  occ. eigenvalues --  -10.32364 -10.32151 -10.32061 -10.31518 -10.30886
 Alpha  occ. eigenvalues --  -10.30800 -10.30733 -10.29744 -10.29319 -10.28763
 Alpha  occ. eigenvalues --  -10.28429 -10.28294 -10.28256 -10.28095 -10.28056
 Alpha  occ. eigenvalues --  -10.27954 -10.27836 -10.27782 -10.27699 -10.27594
 Alpha  occ. eigenvalues --  -10.27439 -10.26752 -10.26630 -10.26525 -10.26517
 Alpha  occ. eigenvalues --  -10.26431 -10.25939 -10.25889 -10.25780 -10.25714
 Alpha  occ. eigenvalues --  -10.25702 -10.25683 -10.25601 -10.25581 -10.25453
 Alpha  occ. eigenvalues --  -10.25347 -10.25139 -10.25051 -10.25011 -10.24962
 Alpha  occ. eigenvalues --  -10.24828 -10.24773 -10.24700 -10.24637 -10.24612
 Alpha  occ. eigenvalues --  -10.24610 -10.24587 -10.24583 -10.24428 -10.24297
 Alpha  occ. eigenvalues --  -10.24034  -3.16566  -1.91477  -1.91027  -1.90873
 Alpha  occ. eigenvalues --   -1.18331  -1.15427  -1.08263  -1.08074  -1.07816
 Alpha  occ. eigenvalues --   -1.07269  -1.05696  -1.03612  -1.02965  -1.01969
 Alpha  occ. eigenvalues --   -0.92841  -0.90366  -0.89992  -0.89966  -0.89739
 Alpha  occ. eigenvalues --   -0.89134  -0.88507  -0.87808  -0.87422  -0.87353
 Alpha  occ. eigenvalues --   -0.86193  -0.86023  -0.84302  -0.84118  -0.83743
 Alpha  occ. eigenvalues --   -0.82909  -0.82296  -0.81729  -0.80844  -0.80382
 Alpha  occ. eigenvalues --   -0.79442  -0.79092  -0.78371  -0.77713  -0.76530
 Alpha  occ. eigenvalues --   -0.75618  -0.75429  -0.75198  -0.74612  -0.74248
 Alpha  occ. eigenvalues --   -0.73203  -0.72525  -0.71513  -0.70952  -0.70022
 Alpha  occ. eigenvalues --   -0.69026  -0.68372  -0.67872  -0.67287  -0.65666
 Alpha  occ. eigenvalues --   -0.65521  -0.64994  -0.64484  -0.64279  -0.64202
 Alpha  occ. eigenvalues --   -0.62837  -0.62566  -0.62068  -0.61352  -0.60945
 Alpha  occ. eigenvalues --   -0.59941  -0.59550  -0.59426  -0.58676  -0.57853
 Alpha  occ. eigenvalues --   -0.57587  -0.57455  -0.56620  -0.55966  -0.55666
 Alpha  occ. eigenvalues --   -0.55398  -0.55193  -0.54794  -0.54565  -0.54241
 Alpha  occ. eigenvalues --   -0.54127  -0.53456  -0.53415  -0.53340  -0.52981
 Alpha  occ. eigenvalues --   -0.52902  -0.52575  -0.52535  -0.52093  -0.51854
 Alpha  occ. eigenvalues --   -0.51494  -0.51372  -0.51083  -0.50951  -0.50847
 Alpha  occ. eigenvalues --   -0.50636  -0.50480  -0.50130  -0.50009  -0.49753
 Alpha  occ. eigenvalues --   -0.49660  -0.49390  -0.49005  -0.48850  -0.48724
 Alpha  occ. eigenvalues --   -0.48574  -0.48509  -0.48345  -0.48110  -0.47697
 Alpha  occ. eigenvalues --   -0.47559  -0.47337  -0.46816  -0.46754  -0.46476
 Alpha  occ. eigenvalues --   -0.46289  -0.46083  -0.46018  -0.45943  -0.45715
 Alpha  occ. eigenvalues --   -0.45561  -0.45202  -0.45172  -0.45051  -0.44510
 Alpha  occ. eigenvalues --   -0.44444  -0.44317  -0.44123  -0.44076  -0.43815
 Alpha  occ. eigenvalues --   -0.43538  -0.43450  -0.43406  -0.43036  -0.42954
 Alpha  occ. eigenvalues --   -0.42934  -0.42768  -0.42671  -0.42259  -0.42078
 Alpha  occ. eigenvalues --   -0.41854  -0.41784  -0.41576  -0.41363  -0.41213
 Alpha  occ. eigenvalues --   -0.41032  -0.40683  -0.40661  -0.40588  -0.40325
 Alpha  occ. eigenvalues --   -0.40155  -0.39917  -0.39615  -0.39408  -0.38683
 Alpha  occ. eigenvalues --   -0.38387  -0.38136  -0.37873  -0.37752  -0.37371
 Alpha  occ. eigenvalues --   -0.37230  -0.37085  -0.36926  -0.36799  -0.36424
 Alpha  occ. eigenvalues --   -0.35763  -0.35300  -0.35183  -0.35056  -0.34597
 Alpha  occ. eigenvalues --   -0.33703  -0.33491  -0.32881  -0.31627  -0.31453
 Alpha  occ. eigenvalues --   -0.30379  -0.30073  -0.29684  -0.28415  -0.23894
 Alpha  occ. eigenvalues --   -0.21284
 Alpha virt. eigenvalues --   -0.09002  -0.01357  -0.00328   0.02256   0.03556
 Alpha virt. eigenvalues --    0.03611   0.05581   0.05973   0.06383   0.06772
 Alpha virt. eigenvalues --    0.07342   0.07817   0.08258   0.08673   0.08933

 Mulliken charges:
               1
     1  Mg   0.841716
     2  C    0.029327
     3  C   -0.067549
     4  C   -0.076026
     5  C   -0.111362
     6  N   -0.294563
     7  C   -0.002929
     8  C   -0.071503
     9  C   -0.070991
    10  C    0.000877
    11  C    0.085402
    12  C    0.073459
    13  C    0.091356
    14  C    0.148508
    15  O   -0.193256
    16  O   -0.399394
    17  N   -0.383472
    18  C    0.153135
    19  C   -0.124969
    20  C    0.025115
    21  C    0.115389
    22  C    0.101354
    23  C   -0.023764
    24  O   -0.237124
    25  C    0.061996
    26  N   -0.270782
    27  C    0.053405
    28  C    0.001056
    29  C    0.005863
    30  C    0.013253
    31  C    0.075108
    32  C    0.016284
    33  C    0.022060
    34  N   -0.356174
    35  C    0.146800
    36  C   -0.163978
    37  C    0.032852
    38  C    0.068156
    39  C    0.125073
    40  C    0.033728
    41  O   -0.193330
    42  C   -0.005154
    43  C    0.145436
    44  O   -0.215048
    45  O   -0.289626
    46  C    0.171385
    47  C    0.277716
    48  C   -0.115421
    49  C   -0.192948
    50  C    0.058405
    51  C    0.074234
    52  C    0.007795
    53  C    0.044102
    54  C   -0.154663
    55  C    0.024359
    56  C    0.042209
    57  C    0.039696
    58  C    0.075701
    59  C   -0.158879
    60  C    0.029648
    61  C    0.061650
    62  C    0.018524
    63  C    0.031595
    64  C   -0.131536
    65  C    0.067825
    66  C    0.020834
    67  H   -0.031309
    68  H   -0.021190
    69  H   -0.046268
    70  H    0.020015
    71  H    0.004615
    72  H    0.026134
    73  H    0.029933
    74  H    0.025844
    75  H    0.017179
    76  H    0.018359
    77  H    0.044115
    78  H    0.032570
    79  H    0.015257
    80  H    0.035218
    81  H    0.033634
    82  H    0.032439
    83  H    0.034157
    84  H    0.029671
    85  H    0.011896
    86  H   -0.005180
    87  H    0.030144
    88  H    0.012930
    89  H    0.017265
    90  H   -0.004348
    91  H    0.005897
    92  H    0.015478
    93  H    0.022379
    94  H    0.011384
    95  H   -0.005940
    96  H    0.032070
    97  H    0.040338
    98  H    0.030230
    99  H    0.037984
   100  H    0.038292
   101  H    0.054367
   102  H    0.047006
   103  H    0.027345
   104  H   -0.010429
   105  H    0.023565
   106  H    0.014049
   107  H    0.007065
   108  H    0.008032
   109  H    0.015666
   110  H   -0.000356
   111  H    0.026620
   112  H   -0.000801
   113  H   -0.011777
   114  H   -0.009333
   115  H    0.004177
   116  H    0.002313
   117  H    0.001536
   118  H    0.000157
   119  H   -0.016262
   120  H    0.014357
   121  H   -0.002852
   122  H   -0.004018
   123  H   -0.011374
   124  H    0.001969
   125  H    0.009251
   126  H    0.011131
   127  H    0.011892
   128  H   -0.010827
   129  H   -0.007689
   130  H   -0.007901
   131  H   -0.006796
   132  H   -0.011074
   133  H   -0.012726
   134  H   -0.004341
   135  H   -0.001415
   136  H    0.004667
   137  H    0.017292
   138  H    0.002976
   139  H    0.013920
   140  H    0.011482
 Sum of Mulliken charges =  -0.00000

 Dipole moment (field-independent basis, Debye):
    X=             -2.6934    Y=              4.4581    Z=             -1.5460  Tot=              5.4332
 Quadrupole moment (field-independent basis, Debye-Ang):
   XX=           -384.5352   YY=           -416.2156   ZZ=           -408.1308
   XY=              7.5607   XZ=             10.0884   YZ=             -1.5992

 Normal termination of Gaussian 16 at Wed Apr 27 15:27:09 2022.
