 Gaussian 16, Revision A.03,
 Gaussian 16:  ES64L-G16RevA.03 25-Dec-2016

 ---------------------------------
 #p PBE1PBE/Def2SVP td=(nstates=5)
 ---------------------------------

 ------------------------------------------------------
 step_1251_chromophore_13 TDDFT with PBE1PBE functional
 ------------------------------------------------------
 Symbolic Z-matrix:
 Charge =  0 Multiplicity = 1

                         Standard orientation:
 ---------------------------------------------------------------------
 Center     Atomic      Atomic             Coordinates (Angstroms)
 Number     Number       Type             X           Y           Z
 ---------------------------------------------------------------------
      1         12           0        5.755531    0.394563    0.058106
      2          6           0        3.427034   -2.222646    0.092609
      3          6           0        3.247866    2.579920   -0.847802
      4          6           0        8.043606    2.677221   -0.346970
      5          6           0        8.295035   -1.902628    0.622933
      6          7           0        3.584060    0.192584   -0.209387
      7          6           0        2.829268   -0.984975   -0.113379
      8          6           0        1.388875   -0.726176   -0.450829
      9          6           0        1.447718    0.682700   -1.193236
     10          6           0        2.815558    1.200439   -0.733988
     11          6           0        1.427404    0.738619   -2.745317
     12          6           0        0.412482   -0.740013    0.791849
     13          6           0       -0.385511   -1.981643    1.131628
     14          6           0       -1.837279   -1.781091    1.386917
     15          8           0       -2.380259   -1.650045    2.453697
     16          8           0       -2.570514   -1.925899    0.153239
     17          7           0        5.639979    2.417271   -0.358297
     18          6           0        4.512967    3.180992   -0.653659
     19          6           0        4.882526    4.580952   -0.730811
     20          6           0        6.295892    4.655710   -0.649209
     21          6           0        6.713025    3.243141   -0.457619
     22          6           0        3.825079    5.608539   -0.742820
     23          6           0        7.186222    5.830669   -0.702362
     24          8           0        8.405571    5.750662   -0.381248
     25          6           0        6.673769    7.162058   -1.126282
     26          7           0        7.801893    0.395424    0.235159
     27          6           0        8.575411    1.446308   -0.035353
     28          6           0       10.097071    1.221440    0.170969
     29          6           0       10.126904   -0.187338    0.700551
     30          6           0        8.652535   -0.588620    0.515983
     31          6           0       11.076548    1.574635   -0.954401
     32          6           0       10.645035   -0.523693    2.097917
     33          6           0        9.836179   -0.059091    3.267542
     34          7           0        5.946039   -1.675785    0.219155
     35          6           0        7.029185   -2.495776    0.398317
     36          6           0        6.634982   -3.844531    0.450536
     37          6           0        5.191020   -3.829232    0.364619
     38          6           0        4.827069   -2.470746    0.209245
     39          6           0        7.395809   -5.005443    0.828417
     40          6           0        4.003808   -4.601641    0.325496
     41          8           0        3.835497   -5.814428    0.508069
     42          6           0        2.852466   -3.620600    0.105355
     43          6           0        2.178492   -3.936500   -1.183325
     44          8           0        2.422862   -3.424283   -2.240891
     45          8           0        1.156131   -4.730599   -1.010174
     46          6           0        0.245900   -5.055199   -2.131238
     47          6           0       -4.004111   -2.343565    0.377537
     48          6           0       -5.065054   -1.517125   -0.372396
     49          6           0       -6.383792   -1.513060   -0.240903
     50          6           0       -7.149814   -2.308981    0.806237
     51          6           0       -7.301290   -0.501752   -1.058778
     52          6           0       -7.010055    0.887274   -0.483565
     53          6           0       -8.221654    1.808792   -0.684890
     54          6           0       -8.788978    2.463458    0.618403
     55          6           0       -7.790946    3.609850    1.085602
     56          6           0       -9.190819    1.467904    1.762465
     57          6           0      -10.332117    2.091924    2.624548
     58          6           0      -11.606508    1.236431    2.836227
     59          6           0      -12.796868    1.768845    1.937410
     60          6           0      -13.950236    2.289598    2.894615
     61          6           0      -13.329114    0.577512    1.090452
     62          6           0      -13.383056    0.991012   -0.373202
     63          6           0      -13.735719   -0.197068   -1.308125
     64          6           0      -12.977765   -0.265148   -2.645102
     65          6           0      -13.675733   -1.194066   -3.614938
     66          6           0      -11.552361   -0.806146   -2.380271
     67          1           0        2.397462    3.232191   -1.058572
     68          1           0        8.827587    3.414964   -0.528659
     69          1           0        9.109816   -2.585036    0.872157
     70          1           0        1.025129   -1.388728   -1.236355
     71          1           0        0.696710    1.329798   -0.738363
     72          1           0        1.322609   -0.263650   -3.161140
     73          1           0        2.370031    1.030404   -3.209890
     74          1           0        0.607867    1.381514   -3.064291
     75          1           0       -0.291908    0.073120    0.615910
     76          1           0        1.028255   -0.479030    1.653157
     77          1           0       -0.050678   -2.405748    2.077911
     78          1           0       -0.283818   -2.657795    0.282044
     79          1           0        2.840449    5.210685   -0.494994
     80          1           0        3.727113    6.096360   -1.712086
     81          1           0        3.988327    6.323997    0.063094
     82          1           0        5.926289    7.516855   -0.416857
     83          1           0        6.261097    7.102342   -2.133719
     84          1           0        7.482486    7.892011   -1.168054
     85          1           0       10.440806    1.866150    0.979781
     86          1           0       10.714478   -0.839396    0.054398
     87          1           0       11.917543    0.917791   -1.178406
     88          1           0       11.459458    2.515262   -0.559337
     89          1           0       10.555620    1.926027   -1.844010
     90          1           0       11.617806   -0.061482    2.268118
     91          1           0       10.846922   -1.593524    2.143184
     92          1           0       10.417712    0.533826    3.973697
     93          1           0        9.331185   -0.951029    3.639209
     94          1           0        9.072329    0.647200    2.941502
     95          1           0        8.477092   -4.862829    0.841705
     96          1           0        7.213061   -5.788949    0.092575
     97          1           0        7.098137   -5.274744    1.841512
     98          1           0        2.017393   -3.618652    0.806561
     99          1           0       -0.623666   -4.400307   -2.083979
    100          1           0       -0.183337   -6.052321   -2.034109
    101          1           0        0.715929   -5.049235   -3.115577
    102          1           0       -4.256243   -2.443045    1.433804
    103          1           0       -4.113897   -3.312152   -0.110130
    104          1           0       -4.670305   -0.840529   -1.130885
    105          1           0       -7.270468   -1.823886    1.775670
    106          1           0       -6.753282   -3.271819    1.129191
    107          1           0       -8.174252   -2.395080    0.443970
    108          1           0       -8.354609   -0.708181   -0.869878
    109          1           0       -6.886716   -0.557467   -2.065800
    110          1           0       -6.161685    1.236224   -1.073508
    111          1           0       -6.699652    0.734711    0.549809
    112          1           0       -9.077782    1.316957   -1.147737
    113          1           0       -7.977401    2.648664   -1.334746
    114          1           0       -9.694140    2.965146    0.276758
    115          1           0       -7.925863    3.983926    2.100548
    116          1           0       -7.824460    4.466650    0.412578
    117          1           0       -6.742367    3.311719    1.075130
    118          1           0       -8.232346    1.309611    2.257068
    119          1           0       -9.359175    0.540766    1.214952
    120          1           0      -10.577719    3.060733    2.190100
    121          1           0       -9.841454    2.167087    3.595365
    122          1           0      -11.931206    1.124893    3.870795
    123          1           0      -11.297249    0.255051    2.475522
    124          1           0      -12.545111    2.658165    1.361395
    125          1           0      -14.507073    2.867418    2.157305
    126          1           0      -13.593494    2.883520    3.736630
    127          1           0      -14.508875    1.467452    3.340352
    128          1           0      -14.258981    0.273948    1.572125
    129          1           0      -12.716456   -0.318666    1.184307
    130          1           0      -12.453846    1.478790   -0.670184
    131          1           0      -14.058421    1.843182   -0.450052
    132          1           0      -14.823226   -0.187446   -1.380907
    133          1           0      -13.550166   -1.178153   -0.870013
    134          1           0      -12.798703    0.772182   -2.928955
    135          1           0      -14.692589   -0.830386   -3.756608
    136          1           0      -13.805550   -2.157864   -3.124027
    137          1           0      -13.181336   -1.263171   -4.585137
    138          1           0      -11.276704   -1.621548   -3.048637
    139          1           0      -11.374670   -1.117985   -1.350270
    140          1           0      -10.874043    0.009344   -2.630899
 ---------------------------------------------------------------------

 SCF Done:  E(RPBE1PBE) =  -3005.36768329     A.U. after   16 cycles

 Excitation energies and oscillator strengths:

 Excited State   1:      Singlet-A      1.8247 eV  679.49 nm  f=0.3572  <S**2>=0.000
     245 -> 248        0.16510
     246 -> 247        0.69574
     246 <- 247       -0.11385
 This state for optimization and/or second-order correction.
 Total Energy, E(TD-HF/TD-DFT) =  -3005.30062829
 Copying the excited state density for this state as the 1-particle RhoCI density.

 Excited State   2:      Singlet-A      2.1581 eV  574.51 nm  f=0.1566  <S**2>=0.000
     245 -> 247        0.66613
     246 -> 248       -0.22091

 Excited State   3:      Singlet-A      2.7990 eV  442.96 nm  f=0.0067  <S**2>=0.000
     242 -> 247       -0.18168
     244 -> 247        0.66859

 Excited State   4:      Singlet-A      2.8902 eV  428.99 nm  f=0.0014  <S**2>=0.000
     242 -> 247        0.64973
     242 -> 249        0.12246
     242 -> 250        0.10346
     244 -> 247        0.18725

 Excited State   5:      Singlet-A      2.9591 eV  419.00 nm  f=0.0011  <S**2>=0.000
     240 -> 247        0.30055
     240 -> 249       -0.12911
     241 -> 247        0.58614
     241 -> 249       -0.17305

 The electronic state is 1-A.
 Alpha  occ. eigenvalues --  -46.91325 -19.26010 -19.25086 -19.21437 -19.18894
 Alpha  occ. eigenvalues --  -19.18807 -19.17974 -14.42063 -14.41135 -14.39548
 Alpha  occ. eigenvalues --  -14.38134 -10.36898 -10.35522 -10.32328 -10.31178
 Alpha  occ. eigenvalues --  -10.29645 -10.29642 -10.29511 -10.28895 -10.28658
 Alpha  occ. eigenvalues --  -10.28322 -10.28210 -10.27300 -10.26933 -10.26505
 Alpha  occ. eigenvalues --  -10.26335 -10.26279 -10.26100 -10.25636 -10.25606
 Alpha  occ. eigenvalues --  -10.25595 -10.25495 -10.25356 -10.25313 -10.25207
 Alpha  occ. eigenvalues --  -10.24828 -10.24620 -10.24538 -10.24455 -10.23843
 Alpha  occ. eigenvalues --  -10.23616 -10.23564 -10.23522 -10.23490 -10.23461
 Alpha  occ. eigenvalues --  -10.23245 -10.23243 -10.23207 -10.23164 -10.23075
 Alpha  occ. eigenvalues --  -10.22995 -10.22653 -10.22598 -10.22559 -10.22515
 Alpha  occ. eigenvalues --  -10.22457 -10.22412 -10.22220 -10.22166 -10.22165
 Alpha  occ. eigenvalues --  -10.22141 -10.22115 -10.22009 -10.21978 -10.21820
 Alpha  occ. eigenvalues --  -10.21692  -3.13574  -1.86428  -1.85955  -1.85805
 Alpha  occ. eigenvalues --   -1.13196  -1.10229  -1.02970  -1.02762  -1.02698
 Alpha  occ. eigenvalues --   -1.02185  -1.00404  -0.98061  -0.97593  -0.96776
 Alpha  occ. eigenvalues --   -0.87348  -0.84501  -0.84340  -0.84140  -0.83842
 Alpha  occ. eigenvalues --   -0.83190  -0.82606  -0.82047  -0.81692  -0.81509
 Alpha  occ. eigenvalues --   -0.80729  -0.80257  -0.78504  -0.78455  -0.77999
 Alpha  occ. eigenvalues --   -0.77081  -0.76431  -0.75970  -0.75159  -0.74577
 Alpha  occ. eigenvalues --   -0.73637  -0.73183  -0.72654  -0.72094  -0.70935
 Alpha  occ. eigenvalues --   -0.69811  -0.69697  -0.69366  -0.68740  -0.68403
 Alpha  occ. eigenvalues --   -0.67594  -0.66977  -0.65895  -0.65279  -0.64415
 Alpha  occ. eigenvalues --   -0.63472  -0.62578  -0.62343  -0.61445  -0.60069
 Alpha  occ. eigenvalues --   -0.59691  -0.59556  -0.59056  -0.58780  -0.58412
 Alpha  occ. eigenvalues --   -0.57134  -0.57017  -0.56713  -0.55592  -0.55320
 Alpha  occ. eigenvalues --   -0.54464  -0.54074  -0.53822  -0.53259  -0.52329
 Alpha  occ. eigenvalues --   -0.52257  -0.52043  -0.51142  -0.50544  -0.50176
 Alpha  occ. eigenvalues --   -0.49920  -0.49773  -0.49256  -0.49161  -0.48919
 Alpha  occ. eigenvalues --   -0.48434  -0.48102  -0.47829  -0.47539  -0.47391
 Alpha  occ. eigenvalues --   -0.47328  -0.47170  -0.46966  -0.46650  -0.46432
 Alpha  occ. eigenvalues --   -0.46025  -0.45885  -0.45752  -0.45552  -0.45302
 Alpha  occ. eigenvalues --   -0.45205  -0.45075  -0.44702  -0.44660  -0.44313
 Alpha  occ. eigenvalues --   -0.44209  -0.44016  -0.43617  -0.43453  -0.43309
 Alpha  occ. eigenvalues --   -0.43170  -0.43085  -0.42992  -0.42727  -0.42265
 Alpha  occ. eigenvalues --   -0.42152  -0.42017  -0.41374  -0.41309  -0.41220
 Alpha  occ. eigenvalues --   -0.40966  -0.40794  -0.40684  -0.40523  -0.40504
 Alpha  occ. eigenvalues --   -0.40338  -0.40040  -0.39839  -0.39783  -0.39299
 Alpha  occ. eigenvalues --   -0.39153  -0.39112  -0.38886  -0.38774  -0.38631
 Alpha  occ. eigenvalues --   -0.38430  -0.38194  -0.38077  -0.37939  -0.37782
 Alpha  occ. eigenvalues --   -0.37636  -0.37514  -0.37446  -0.37080  -0.36802
 Alpha  occ. eigenvalues --   -0.36730  -0.36501  -0.36396  -0.36251  -0.35980
 Alpha  occ. eigenvalues --   -0.35919  -0.35598  -0.35587  -0.35331  -0.35067
 Alpha  occ. eigenvalues --   -0.35056  -0.34821  -0.34570  -0.34132  -0.33594
 Alpha  occ. eigenvalues --   -0.33161  -0.32997  -0.32884  -0.32529  -0.32199
 Alpha  occ. eigenvalues --   -0.32103  -0.32060  -0.31856  -0.31790  -0.31512
 Alpha  occ. eigenvalues --   -0.30682  -0.30276  -0.30145  -0.30055  -0.29748
 Alpha  occ. eigenvalues --   -0.28713  -0.28419  -0.28341  -0.27093  -0.26144
 Alpha  occ. eigenvalues --   -0.25687  -0.25110  -0.24933  -0.24385  -0.20802
 Alpha  occ. eigenvalues --   -0.18856
 Alpha virt. eigenvalues --   -0.11430  -0.04952  -0.04445  -0.02139  -0.00973
 Alpha virt. eigenvalues --    0.00638   0.01653   0.01708   0.02062   0.02802
 Alpha virt. eigenvalues --    0.03842   0.04038   0.04455   0.05037   0.05408

 Mulliken charges:
               1
     1  Mg   0.998533
     2  C    0.014783
     3  C   -0.062795
     4  C   -0.068846
     5  C   -0.093769
     6  N   -0.395980
     7  C    0.068044
     8  C   -0.143505
     9  C   -0.147459
    10  C    0.035580
    11  C    0.030962
    12  C    0.030277
    13  C    0.000234
    14  C    0.220178
    15  O   -0.227385
    16  O   -0.426513
    17  N   -0.494364
    18  C    0.168477
    19  C   -0.154146
    20  C   -0.027919
    21  C    0.149288
    22  C    0.045619
    23  C    0.025076
    24  O   -0.274968
    25  C   -0.007442
    26  N   -0.382948
    27  C    0.073830
    28  C   -0.067485
    29  C   -0.066158
    30  C    0.044933
    31  C    0.017334
    32  C   -0.045383
    33  C   -0.052093
    34  N   -0.482111
    35  C    0.172376
    36  C   -0.181424
    37  C   -0.006263
    38  C    0.125468
    39  C    0.070087
    40  C    0.116221
    41  O   -0.238343
    42  C   -0.117423
    43  C    0.244415
    44  O   -0.250231
    45  O   -0.326236
    46  C    0.117273
    47  C    0.239288
    48  C   -0.128357
    49  C   -0.242033
    50  C    0.003278
    51  C    0.006370
    52  C   -0.053351
    53  C   -0.019140
    54  C   -0.240400
    55  C   -0.033309
    56  C   -0.009331
    57  C   -0.028387
    58  C    0.024856
    59  C   -0.245477
    60  C   -0.031352
    61  C    0.014437
    62  C   -0.047894
    63  C   -0.019075
    64  C   -0.229970
    65  C    0.001630
    66  C   -0.036447
    67  H    0.000186
    68  H    0.012380
    69  H   -0.012973
    70  H    0.059768
    71  H    0.040430
    72  H    0.052078
    73  H    0.057640
    74  H    0.052434
    75  H    0.050216
    76  H    0.050908
    77  H    0.075604
    78  H    0.070315
    79  H    0.040477
    80  H    0.060987
    81  H    0.059555
    82  H    0.058257
    83  H    0.060185
    84  H    0.055728
    85  H    0.050121
    86  H    0.033937
    87  H    0.055802
    88  H    0.039791
    89  H    0.045828
    90  H    0.030871
    91  H    0.037163
    92  H    0.043624
    93  H    0.050033
    94  H    0.043107
    95  H    0.023331
    96  H    0.061444
    97  H    0.069272
    98  H    0.071731
    99  H    0.058747
   100  H    0.059936
   101  H    0.074783
   102  H    0.071960
   103  H    0.055504
   104  H    0.020007
   105  H    0.050299
   106  H    0.040671
   107  H    0.033663
   108  H    0.041583
   109  H    0.049121
   110  H    0.032995
   111  H    0.059737
   112  H    0.036803
   113  H    0.021934
   114  H    0.029985
   115  H    0.031776
   116  H    0.030108
   117  H    0.029638
   118  H    0.032160
   119  H    0.018806
   120  H    0.045494
   121  H    0.030952
   122  H    0.027087
   123  H    0.021674
   124  H    0.036725
   125  H    0.038237
   126  H    0.039448
   127  H    0.038785
   128  H    0.020911
   129  H    0.023694
   130  H    0.026384
   131  H    0.026576
   132  H    0.021882
   133  H    0.019053
   134  H    0.033392
   135  H    0.027988
   136  H    0.032596
   137  H    0.045267
   138  H    0.030712
   139  H    0.039991
   140  H    0.039579
 Sum of Mulliken charges =  -0.00000

 Dipole moment (field-independent basis, Debye):
    X=             -2.5088    Y=              3.7199    Z=             -1.3747  Tot=              4.6927
 Quadrupole moment (field-independent basis, Debye-Ang):
   XX=           -377.2717   YY=           -414.3967   ZZ=           -405.5432
   XY=              2.5993   XZ=             11.3671   YZ=             -1.7204

 Normal termination of Gaussian 16 at Wed Apr 27 15:44:19 2022.
