 Gaussian 16, Revision A.03,
 Gaussian 16:  ES64L-G16RevA.03 25-Dec-2016

 --------------------------------
 #p wB97XD/Def2SVP td=(nstates=5)
 --------------------------------

 -----------------------------------------------------
 step_1251_chromophore_13 TDDFT with wB97XD functional
 -----------------------------------------------------
 Symbolic Z-matrix:
 Charge =  0 Multiplicity = 1

                         Standard orientation:
 ---------------------------------------------------------------------
 Center     Atomic      Atomic             Coordinates (Angstroms)
 Number     Number       Type             X           Y           Z
 ---------------------------------------------------------------------
      1         12           0        5.755531    0.394563    0.058106
      2          6           0        3.427034   -2.222646    0.092609
      3          6           0        3.247866    2.579920   -0.847802
      4          6           0        8.043606    2.677221   -0.346970
      5          6           0        8.295035   -1.902628    0.622933
      6          7           0        3.584060    0.192584   -0.209387
      7          6           0        2.829268   -0.984975   -0.113379
      8          6           0        1.388875   -0.726176   -0.450829
      9          6           0        1.447718    0.682700   -1.193236
     10          6           0        2.815558    1.200439   -0.733988
     11          6           0        1.427404    0.738619   -2.745317
     12          6           0        0.412482   -0.740013    0.791849
     13          6           0       -0.385511   -1.981643    1.131628
     14          6           0       -1.837279   -1.781091    1.386917
     15          8           0       -2.380259   -1.650045    2.453697
     16          8           0       -2.570514   -1.925899    0.153239
     17          7           0        5.639979    2.417271   -0.358297
     18          6           0        4.512967    3.180992   -0.653659
     19          6           0        4.882526    4.580952   -0.730811
     20          6           0        6.295892    4.655710   -0.649209
     21          6           0        6.713025    3.243141   -0.457619
     22          6           0        3.825079    5.608539   -0.742820
     23          6           0        7.186222    5.830669   -0.702362
     24          8           0        8.405571    5.750662   -0.381248
     25          6           0        6.673769    7.162058   -1.126282
     26          7           0        7.801893    0.395424    0.235159
     27          6           0        8.575411    1.446308   -0.035353
     28          6           0       10.097071    1.221440    0.170969
     29          6           0       10.126904   -0.187338    0.700551
     30          6           0        8.652535   -0.588620    0.515983
     31          6           0       11.076548    1.574635   -0.954401
     32          6           0       10.645035   -0.523693    2.097917
     33          6           0        9.836179   -0.059091    3.267542
     34          7           0        5.946039   -1.675785    0.219155
     35          6           0        7.029185   -2.495776    0.398317
     36          6           0        6.634982   -3.844531    0.450536
     37          6           0        5.191020   -3.829232    0.364619
     38          6           0        4.827069   -2.470746    0.209245
     39          6           0        7.395809   -5.005443    0.828417
     40          6           0        4.003808   -4.601641    0.325496
     41          8           0        3.835497   -5.814428    0.508069
     42          6           0        2.852466   -3.620600    0.105355
     43          6           0        2.178492   -3.936500   -1.183325
     44          8           0        2.422862   -3.424283   -2.240891
     45          8           0        1.156131   -4.730599   -1.010174
     46          6           0        0.245900   -5.055199   -2.131238
     47          6           0       -4.004111   -2.343565    0.377537
     48          6           0       -5.065054   -1.517125   -0.372396
     49          6           0       -6.383792   -1.513060   -0.240903
     50          6           0       -7.149814   -2.308981    0.806237
     51          6           0       -7.301290   -0.501752   -1.058778
     52          6           0       -7.010055    0.887274   -0.483565
     53          6           0       -8.221654    1.808792   -0.684890
     54          6           0       -8.788978    2.463458    0.618403
     55          6           0       -7.790946    3.609850    1.085602
     56          6           0       -9.190819    1.467904    1.762465
     57          6           0      -10.332117    2.091924    2.624548
     58          6           0      -11.606508    1.236431    2.836227
     59          6           0      -12.796868    1.768845    1.937410
     60          6           0      -13.950236    2.289598    2.894615
     61          6           0      -13.329114    0.577512    1.090452
     62          6           0      -13.383056    0.991012   -0.373202
     63          6           0      -13.735719   -0.197068   -1.308125
     64          6           0      -12.977765   -0.265148   -2.645102
     65          6           0      -13.675733   -1.194066   -3.614938
     66          6           0      -11.552361   -0.806146   -2.380271
     67          1           0        2.397462    3.232191   -1.058572
     68          1           0        8.827587    3.414964   -0.528659
     69          1           0        9.109816   -2.585036    0.872157
     70          1           0        1.025129   -1.388728   -1.236355
     71          1           0        0.696710    1.329798   -0.738363
     72          1           0        1.322609   -0.263650   -3.161140
     73          1           0        2.370031    1.030404   -3.209890
     74          1           0        0.607867    1.381514   -3.064291
     75          1           0       -0.291908    0.073120    0.615910
     76          1           0        1.028255   -0.479030    1.653157
     77          1           0       -0.050678   -2.405748    2.077911
     78          1           0       -0.283818   -2.657795    0.282044
     79          1           0        2.840449    5.210685   -0.494994
     80          1           0        3.727113    6.096360   -1.712086
     81          1           0        3.988327    6.323997    0.063094
     82          1           0        5.926289    7.516855   -0.416857
     83          1           0        6.261097    7.102342   -2.133719
     84          1           0        7.482486    7.892011   -1.168054
     85          1           0       10.440806    1.866150    0.979781
     86          1           0       10.714478   -0.839396    0.054398
     87          1           0       11.917543    0.917791   -1.178406
     88          1           0       11.459458    2.515262   -0.559337
     89          1           0       10.555620    1.926027   -1.844010
     90          1           0       11.617806   -0.061482    2.268118
     91          1           0       10.846922   -1.593524    2.143184
     92          1           0       10.417712    0.533826    3.973697
     93          1           0        9.331185   -0.951029    3.639209
     94          1           0        9.072329    0.647200    2.941502
     95          1           0        8.477092   -4.862829    0.841705
     96          1           0        7.213061   -5.788949    0.092575
     97          1           0        7.098137   -5.274744    1.841512
     98          1           0        2.017393   -3.618652    0.806561
     99          1           0       -0.623666   -4.400307   -2.083979
    100          1           0       -0.183337   -6.052321   -2.034109
    101          1           0        0.715929   -5.049235   -3.115577
    102          1           0       -4.256243   -2.443045    1.433804
    103          1           0       -4.113897   -3.312152   -0.110130
    104          1           0       -4.670305   -0.840529   -1.130885
    105          1           0       -7.270468   -1.823886    1.775670
    106          1           0       -6.753282   -3.271819    1.129191
    107          1           0       -8.174252   -2.395080    0.443970
    108          1           0       -8.354609   -0.708181   -0.869878
    109          1           0       -6.886716   -0.557467   -2.065800
    110          1           0       -6.161685    1.236224   -1.073508
    111          1           0       -6.699652    0.734711    0.549809
    112          1           0       -9.077782    1.316957   -1.147737
    113          1           0       -7.977401    2.648664   -1.334746
    114          1           0       -9.694140    2.965146    0.276758
    115          1           0       -7.925863    3.983926    2.100548
    116          1           0       -7.824460    4.466650    0.412578
    117          1           0       -6.742367    3.311719    1.075130
    118          1           0       -8.232346    1.309611    2.257068
    119          1           0       -9.359175    0.540766    1.214952
    120          1           0      -10.577719    3.060733    2.190100
    121          1           0       -9.841454    2.167087    3.595365
    122          1           0      -11.931206    1.124893    3.870795
    123          1           0      -11.297249    0.255051    2.475522
    124          1           0      -12.545111    2.658165    1.361395
    125          1           0      -14.507073    2.867418    2.157305
    126          1           0      -13.593494    2.883520    3.736630
    127          1           0      -14.508875    1.467452    3.340352
    128          1           0      -14.258981    0.273948    1.572125
    129          1           0      -12.716456   -0.318666    1.184307
    130          1           0      -12.453846    1.478790   -0.670184
    131          1           0      -14.058421    1.843182   -0.450052
    132          1           0      -14.823226   -0.187446   -1.380907
    133          1           0      -13.550166   -1.178153   -0.870013
    134          1           0      -12.798703    0.772182   -2.928955
    135          1           0      -14.692589   -0.830386   -3.756608
    136          1           0      -13.805550   -2.157864   -3.124027
    137          1           0      -13.181336   -1.263171   -4.585137
    138          1           0      -11.276704   -1.621548   -3.048637
    139          1           0      -11.374670   -1.117985   -1.350270
    140          1           0      -10.874043    0.009344   -2.630899
 ---------------------------------------------------------------------

 SCF Done:  E(RwB97XD) =  -3007.87833065     A.U. after   20 cycles

 Excitation energies and oscillator strengths:

 Excited State   1:      Singlet-A      1.6629 eV  745.59 nm  f=0.3798  <S**2>=0.000
     245 -> 248        0.16935
     246 -> 247        0.68613
     245 <- 248        0.10986
 This state for optimization and/or second-order correction.
 Total Energy, E(TD-HF/TD-DFT) =  -3007.81722016
 Copying the excited state density for this state as the 1-particle RhoCI density.

 Excited State   2:      Singlet-A      2.1081 eV  588.14 nm  f=0.1565  <S**2>=0.000
     245 -> 247        0.65313
     246 -> 248       -0.24901

 Excited State   3:      Singlet-A      3.2357 eV  383.18 nm  f=0.0064  <S**2>=0.000
     241 -> 247       -0.20906
     244 -> 247        0.65434
     244 -> 249        0.10441

 Excited State   4:      Singlet-A      3.4121 eV  363.37 nm  f=0.0057  <S**2>=0.000
     240 -> 247        0.41357
     240 -> 249       -0.35332
     240 -> 250        0.13001
     241 -> 247        0.31064
     241 -> 249       -0.12189
     244 -> 247        0.10684
     246 -> 248        0.16948

 Excited State   5:      Singlet-A      3.5142 eV  352.81 nm  f=0.0624  <S**2>=0.000
     239 -> 247       -0.12139
     240 -> 247        0.16068
     241 -> 247       -0.22121
     242 -> 247        0.41994
     242 -> 248        0.13503
     242 -> 249        0.21093
     242 -> 250        0.24231
     246 -> 248       -0.27259

 The electronic state is 1-A.
 Alpha  occ. eigenvalues --  -46.94240 -19.30503 -19.29605 -19.26106 -19.24045
 Alpha  occ. eigenvalues --  -19.23412 -19.22484 -14.47283 -14.46113 -14.44671
 Alpha  occ. eigenvalues --  -14.42828 -10.43663 -10.42253 -10.39508 -10.37800
 Alpha  occ. eigenvalues --  -10.36255 -10.36097 -10.35981 -10.35665 -10.35040
 Alpha  occ. eigenvalues --  -10.34867 -10.34723 -10.33995 -10.33242 -10.32846
 Alpha  occ. eigenvalues --  -10.32507 -10.32487 -10.32191 -10.32159 -10.32031
 Alpha  occ. eigenvalues --  -10.31922 -10.31888 -10.31753 -10.31699 -10.31597
 Alpha  occ. eigenvalues --  -10.31474 -10.30767 -10.30634 -10.30509 -10.30432
 Alpha  occ. eigenvalues --  -10.30312 -10.29900 -10.29887 -10.29718 -10.29672
 Alpha  occ. eigenvalues --  -10.29649 -10.29569 -10.29526 -10.29517 -10.29387
 Alpha  occ. eigenvalues --  -10.29292 -10.29045 -10.28979 -10.28937 -10.28912
 Alpha  occ. eigenvalues --  -10.28778 -10.28571 -10.28553 -10.28532 -10.28509
 Alpha  occ. eigenvalues --  -10.28474 -10.28435 -10.28422 -10.28273 -10.28107
 Alpha  occ. eigenvalues --  -10.28011  -3.20329  -1.93935  -1.93462  -1.93312
 Alpha  occ. eigenvalues --   -1.20487  -1.17587  -1.10538  -1.10227  -1.09987
 Alpha  occ. eigenvalues --   -1.09512  -1.07694  -1.05693  -1.04994  -1.03961
 Alpha  occ. eigenvalues --   -0.94789  -0.92173  -0.91836  -0.91789  -0.91510
 Alpha  occ. eigenvalues --   -0.91136  -0.90281  -0.89779  -0.89306  -0.89178
 Alpha  occ. eigenvalues --   -0.88095  -0.87924  -0.86148  -0.85974  -0.85672
 Alpha  occ. eigenvalues --   -0.84849  -0.84135  -0.83659  -0.82810  -0.82236
 Alpha  occ. eigenvalues --   -0.81302  -0.81103  -0.80263  -0.79606  -0.78438
 Alpha  occ. eigenvalues --   -0.77400  -0.77388  -0.77053  -0.76431  -0.76074
 Alpha  occ. eigenvalues --   -0.75135  -0.74476  -0.73472  -0.72890  -0.71927
 Alpha  occ. eigenvalues --   -0.71038  -0.70231  -0.69890  -0.69131  -0.67634
 Alpha  occ. eigenvalues --   -0.67357  -0.67013  -0.66426  -0.66158  -0.66094
 Alpha  occ. eigenvalues --   -0.64662  -0.64576  -0.64029  -0.63216  -0.62985
 Alpha  occ. eigenvalues --   -0.61886  -0.61525  -0.61338  -0.60651  -0.59776
 Alpha  occ. eigenvalues --   -0.59571  -0.59409  -0.58601  -0.57892  -0.57575
 Alpha  occ. eigenvalues --   -0.57323  -0.57161  -0.56691  -0.56517  -0.56175
 Alpha  occ. eigenvalues --   -0.55950  -0.55376  -0.55322  -0.55280  -0.54949
 Alpha  occ. eigenvalues --   -0.54777  -0.54478  -0.54405  -0.53998  -0.53763
 Alpha  occ. eigenvalues --   -0.53405  -0.53262  -0.52990  -0.52861  -0.52806
 Alpha  occ. eigenvalues --   -0.52513  -0.52377  -0.52115  -0.51922  -0.51670
 Alpha  occ. eigenvalues --   -0.51545  -0.51252  -0.50917  -0.50765  -0.50605
 Alpha  occ. eigenvalues --   -0.50463  -0.50421  -0.50274  -0.50064  -0.49693
 Alpha  occ. eigenvalues --   -0.49487  -0.49277  -0.48785  -0.48652  -0.48420
 Alpha  occ. eigenvalues --   -0.48184  -0.47977  -0.47882  -0.47761  -0.47651
 Alpha  occ. eigenvalues --   -0.47477  -0.47109  -0.47041  -0.46927  -0.46386
 Alpha  occ. eigenvalues --   -0.46344  -0.46255  -0.46041  -0.45937  -0.45722
 Alpha  occ. eigenvalues --   -0.45433  -0.45399  -0.45257  -0.44992  -0.44870
 Alpha  occ. eigenvalues --   -0.44799  -0.44635  -0.44574  -0.44193  -0.43930
 Alpha  occ. eigenvalues --   -0.43827  -0.43741  -0.43502  -0.43302  -0.43078
 Alpha  occ. eigenvalues --   -0.42973  -0.42631  -0.42555  -0.42448  -0.42166
 Alpha  occ. eigenvalues --   -0.42044  -0.41802  -0.41529  -0.41237  -0.40603
 Alpha  occ. eigenvalues --   -0.40213  -0.40032  -0.39789  -0.39600  -0.39229
 Alpha  occ. eigenvalues --   -0.39054  -0.38986  -0.38843  -0.38797  -0.38589
 Alpha  occ. eigenvalues --   -0.37617  -0.37186  -0.37059  -0.36992  -0.36548
 Alpha  occ. eigenvalues --   -0.35619  -0.35330  -0.35107  -0.33858  -0.33461
 Alpha  occ. eigenvalues --   -0.32591  -0.31997  -0.31709  -0.30529  -0.25826
 Alpha  occ. eigenvalues --   -0.23099
 Alpha virt. eigenvalues --   -0.07344   0.00577   0.01696   0.04362   0.05861
 Alpha virt. eigenvalues --    0.06651   0.08176   0.08375   0.08927   0.09097
 Alpha virt. eigenvalues --    0.10355   0.10602   0.11404   0.11682   0.12264

 Mulliken charges:
               1
     1  Mg   0.984747
     2  C    0.020848
     3  C   -0.080996
     4  C   -0.086568
     5  C   -0.112536
     6  N   -0.363359
     7  C    0.031740
     8  C   -0.113279
     9  C   -0.120148
    10  C    0.026440
    11  C    0.037388
    12  C    0.036345
    13  C    0.025447
    14  C    0.209358
    15  O   -0.225739
    16  O   -0.427238
    17  N   -0.465325
    18  C    0.167962
    19  C   -0.140430
    20  C   -0.020313
    21  C    0.143154
    22  C    0.053731
    23  C    0.022089
    24  O   -0.266505
    25  C    0.001822
    26  N   -0.348404
    27  C    0.069801
    28  C   -0.048389
    29  C   -0.038822
    30  C    0.031907
    31  C    0.025809
    32  C   -0.032370
    33  C   -0.033858
    34  N   -0.443560
    35  C    0.160025
    36  C   -0.178757
    37  C   -0.007161
    38  C    0.101136
    39  C    0.081191
    40  C    0.101986
    41  O   -0.230343
    42  C   -0.073561
    43  C    0.214342
    44  O   -0.244284
    45  O   -0.322460
    46  C    0.133219
    47  C    0.253495
    48  C   -0.139994
    49  C   -0.222622
    50  C    0.012508
    51  C    0.030510
    52  C   -0.036683
    53  C    0.005809
    54  C   -0.206607
    55  C   -0.023798
    56  C    0.005753
    57  C   -0.007757
    58  C    0.040261
    59  C   -0.218187
    60  C   -0.016904
    61  C    0.028288
    62  C   -0.026844
    63  C   -0.004764
    64  C   -0.196312
    65  C    0.015192
    66  C   -0.025622
    67  H   -0.005318
    68  H    0.005238
    69  H   -0.022683
    70  H    0.043111
    71  H    0.030775
    72  H    0.048892
    73  H    0.051271
    74  H    0.048196
    75  H    0.041307
    76  H    0.044299
    77  H    0.071495
    78  H    0.056659
    79  H    0.037842
    80  H    0.059277
    81  H    0.056016
    82  H    0.053233
    83  H    0.056311
    84  H    0.056111
    85  H    0.039520
    86  H    0.023499
    87  H    0.052907
    88  H    0.033816
    89  H    0.039628
    90  H    0.021777
    91  H    0.030214
    92  H    0.038766
    93  H    0.044669
    94  H    0.030673
    95  H    0.016269
    96  H    0.055246
    97  H    0.062485
    98  H    0.060139
    99  H    0.054565
   100  H    0.056095
   101  H    0.071322
   102  H    0.067385
   103  H    0.049945
   104  H    0.016798
   105  H    0.044807
   106  H    0.036453
   107  H    0.027831
   108  H    0.026719
   109  H    0.042047
   110  H    0.025043
   111  H    0.044426
   112  H    0.020735
   113  H    0.013930
   114  H    0.015473
   115  H    0.026173
   116  H    0.024216
   117  H    0.022413
   118  H    0.022515
   119  H    0.003208
   120  H    0.033485
   121  H    0.024049
   122  H    0.021094
   123  H    0.009654
   124  H    0.023628
   125  H    0.031108
   126  H    0.033559
   127  H    0.031871
   128  H    0.012484
   129  H    0.012142
   130  H    0.013139
   131  H    0.017880
   132  H    0.014162
   133  H    0.006981
   134  H    0.022795
   135  H    0.021242
   136  H    0.025392
   137  H    0.040376
   138  H    0.025528
   139  H    0.031721
   140  H    0.032171
 Sum of Mulliken charges =  -0.00000

 Dipole moment (field-independent basis, Debye):
    X=             -2.7244    Y=              4.7414    Z=             -1.5823  Tot=              5.6927
 Quadrupole moment (field-independent basis, Debye-Ang):
   XX=           -379.9232   YY=           -411.6170   ZZ=           -405.1867
   XY=              8.8280   XZ=             10.1096   YZ=             -2.0016

 Normal termination of Gaussian 16 at Wed Apr 27 16:12:43 2022.
