 Gaussian 16, Revision A.03,
 Gaussian 16:  ES64L-G16RevA.03 25-Dec-2016

 --------------------
 #p ZINDO=(nstates=5)
 --------------------

 ------------------------------
 step_1251_chromophore_13 ZINDO
 ------------------------------
 Symbolic Z-matrix:
 Charge =  0 Multiplicity = 1

                         Standard orientation:
 ---------------------------------------------------------------------
 Center     Atomic      Atomic             Coordinates (Angstroms)
 Number     Number       Type             X           Y           Z
 ---------------------------------------------------------------------
      1         12           0        5.755531    0.394563    0.058106
      2          6           0        3.427034   -2.222646    0.092609
      3          6           0        3.247866    2.579920   -0.847802
      4          6           0        8.043606    2.677221   -0.346970
      5          6           0        8.295035   -1.902628    0.622933
      6          7           0        3.584060    0.192584   -0.209387
      7          6           0        2.829268   -0.984975   -0.113379
      8          6           0        1.388875   -0.726176   -0.450829
      9          6           0        1.447718    0.682700   -1.193236
     10          6           0        2.815558    1.200439   -0.733988
     11          6           0        1.427404    0.738619   -2.745317
     12          6           0        0.412482   -0.740013    0.791849
     13          6           0       -0.385511   -1.981643    1.131628
     14          6           0       -1.837279   -1.781091    1.386917
     15          8           0       -2.380259   -1.650045    2.453697
     16          8           0       -2.570514   -1.925899    0.153239
     17          7           0        5.639979    2.417271   -0.358297
     18          6           0        4.512967    3.180992   -0.653659
     19          6           0        4.882526    4.580952   -0.730811
     20          6           0        6.295892    4.655710   -0.649209
     21          6           0        6.713025    3.243141   -0.457619
     22          6           0        3.825079    5.608539   -0.742820
     23          6           0        7.186222    5.830669   -0.702362
     24          8           0        8.405571    5.750662   -0.381248
     25          6           0        6.673769    7.162058   -1.126282
     26          7           0        7.801893    0.395424    0.235159
     27          6           0        8.575411    1.446308   -0.035353
     28          6           0       10.097071    1.221440    0.170969
     29          6           0       10.126904   -0.187338    0.700551
     30          6           0        8.652535   -0.588620    0.515983
     31          6           0       11.076548    1.574635   -0.954401
     32          6           0       10.645035   -0.523693    2.097917
     33          6           0        9.836179   -0.059091    3.267542
     34          7           0        5.946039   -1.675785    0.219155
     35          6           0        7.029185   -2.495776    0.398317
     36          6           0        6.634982   -3.844531    0.450536
     37          6           0        5.191020   -3.829232    0.364619
     38          6           0        4.827069   -2.470746    0.209245
     39          6           0        7.395809   -5.005443    0.828417
     40          6           0        4.003808   -4.601641    0.325496
     41          8           0        3.835497   -5.814428    0.508069
     42          6           0        2.852466   -3.620600    0.105355
     43          6           0        2.178492   -3.936500   -1.183325
     44          8           0        2.422862   -3.424283   -2.240891
     45          8           0        1.156131   -4.730599   -1.010174
     46          6           0        0.245900   -5.055199   -2.131238
     47          6           0       -4.004111   -2.343565    0.377537
     48          6           0       -5.065054   -1.517125   -0.372396
     49          6           0       -6.383792   -1.513060   -0.240903
     50          6           0       -7.149814   -2.308981    0.806237
     51          6           0       -7.301290   -0.501752   -1.058778
     52          6           0       -7.010055    0.887274   -0.483565
     53          6           0       -8.221654    1.808792   -0.684890
     54          6           0       -8.788978    2.463458    0.618403
     55          6           0       -7.790946    3.609850    1.085602
     56          6           0       -9.190819    1.467904    1.762465
     57          6           0      -10.332117    2.091924    2.624548
     58          6           0      -11.606508    1.236431    2.836227
     59          6           0      -12.796868    1.768845    1.937410
     60          6           0      -13.950236    2.289598    2.894615
     61          6           0      -13.329114    0.577512    1.090452
     62          6           0      -13.383056    0.991012   -0.373202
     63          6           0      -13.735719   -0.197068   -1.308125
     64          6           0      -12.977765   -0.265148   -2.645102
     65          6           0      -13.675733   -1.194066   -3.614938
     66          6           0      -11.552361   -0.806146   -2.380271
     67          1           0        2.397462    3.232191   -1.058572
     68          1           0        8.827587    3.414964   -0.528659
     69          1           0        9.109816   -2.585036    0.872157
     70          1           0        1.025129   -1.388728   -1.236355
     71          1           0        0.696710    1.329798   -0.738363
     72          1           0        1.322609   -0.263650   -3.161140
     73          1           0        2.370031    1.030404   -3.209890
     74          1           0        0.607867    1.381514   -3.064291
     75          1           0       -0.291908    0.073120    0.615910
     76          1           0        1.028255   -0.479030    1.653157
     77          1           0       -0.050678   -2.405748    2.077911
     78          1           0       -0.283818   -2.657795    0.282044
     79          1           0        2.840449    5.210685   -0.494994
     80          1           0        3.727113    6.096360   -1.712086
     81          1           0        3.988327    6.323997    0.063094
     82          1           0        5.926289    7.516855   -0.416857
     83          1           0        6.261097    7.102342   -2.133719
     84          1           0        7.482486    7.892011   -1.168054
     85          1           0       10.440806    1.866150    0.979781
     86          1           0       10.714478   -0.839396    0.054398
     87          1           0       11.917543    0.917791   -1.178406
     88          1           0       11.459458    2.515262   -0.559337
     89          1           0       10.555620    1.926027   -1.844010
     90          1           0       11.617806   -0.061482    2.268118
     91          1           0       10.846922   -1.593524    2.143184
     92          1           0       10.417712    0.533826    3.973697
     93          1           0        9.331185   -0.951029    3.639209
     94          1           0        9.072329    0.647200    2.941502
     95          1           0        8.477092   -4.862829    0.841705
     96          1           0        7.213061   -5.788949    0.092575
     97          1           0        7.098137   -5.274744    1.841512
     98          1           0        2.017393   -3.618652    0.806561
     99          1           0       -0.623666   -4.400307   -2.083979
    100          1           0       -0.183337   -6.052321   -2.034109
    101          1           0        0.715929   -5.049235   -3.115577
    102          1           0       -4.256243   -2.443045    1.433804
    103          1           0       -4.113897   -3.312152   -0.110130
    104          1           0       -4.670305   -0.840529   -1.130885
    105          1           0       -7.270468   -1.823886    1.775670
    106          1           0       -6.753282   -3.271819    1.129191
    107          1           0       -8.174252   -2.395080    0.443970
    108          1           0       -8.354609   -0.708181   -0.869878
    109          1           0       -6.886716   -0.557467   -2.065800
    110          1           0       -6.161685    1.236224   -1.073508
    111          1           0       -6.699652    0.734711    0.549809
    112          1           0       -9.077782    1.316957   -1.147737
    113          1           0       -7.977401    2.648664   -1.334746
    114          1           0       -9.694140    2.965146    0.276758
    115          1           0       -7.925863    3.983926    2.100548
    116          1           0       -7.824460    4.466650    0.412578
    117          1           0       -6.742367    3.311719    1.075130
    118          1           0       -8.232346    1.309611    2.257068
    119          1           0       -9.359175    0.540766    1.214952
    120          1           0      -10.577719    3.060733    2.190100
    121          1           0       -9.841454    2.167087    3.595365
    122          1           0      -11.931206    1.124893    3.870795
    123          1           0      -11.297249    0.255051    2.475522
    124          1           0      -12.545111    2.658165    1.361395
    125          1           0      -14.507073    2.867418    2.157305
    126          1           0      -13.593494    2.883520    3.736630
    127          1           0      -14.508875    1.467452    3.340352
    128          1           0      -14.258981    0.273948    1.572125
    129          1           0      -12.716456   -0.318666    1.184307
    130          1           0      -12.453846    1.478790   -0.670184
    131          1           0      -14.058421    1.843182   -0.450052
    132          1           0      -14.823226   -0.187446   -1.380907
    133          1           0      -13.550166   -1.178153   -0.870013
    134          1           0      -12.798703    0.772182   -2.928955
    135          1           0      -14.692589   -0.830386   -3.756608
    136          1           0      -13.805550   -2.157864   -3.124027
    137          1           0      -13.181336   -1.263171   -4.585137
    138          1           0      -11.276704   -1.621548   -3.048637
    139          1           0      -11.374670   -1.117985   -1.350270
    140          1           0      -10.874043    0.009344   -2.630899
 ---------------------------------------------------------------------

 SCF Done:  E(RZINDO/S) =  -474.531794239     A.U. after   19 cycles

 Excitation energies and oscillator strengths:

 Excited State   1:      Singlet-A      1.2820 eV  967.08 nm  f=0.5704  <S**2>=0.000
     175 ->178         0.15560
     176 ->177         0.67148
 This state for optimization and/or second-order correction.
 Total Energy, E(CIS/TDA) =  -474.484680107
 Copying the excited state density for this state as the 1-particle RhoCI density.

 Excited State   2:      Singlet-A      1.9125 eV  648.27 nm  f=0.0845  <S**2>=0.000
     175 ->177         0.56622
     176 ->178        -0.38023

 Excited State   3:      Singlet-A      2.8603 eV  433.47 nm  f=0.0131  <S**2>=0.000
     167 ->177         0.10681
     167 ->179        -0.16190
     168 ->177         0.32590
     168 ->179        -0.45686
     168 ->180         0.16490
     168 ->185        -0.17623
     176 ->179         0.10029

 Excited State   4:      Singlet-A      2.9083 eV  426.32 nm  f=0.5608  <S**2>=0.000
     175 ->177         0.29098
     176 ->178         0.50091
     176 ->179        -0.25541
     176 ->180        -0.23930

 Excited State   5:      Singlet-A      3.0410 eV  407.71 nm  f=0.3518  <S**2>=0.000
     171 ->177        -0.11469
     171 ->178         0.10324
     171 ->180        -0.15146
     175 ->177         0.19444
     176 ->178         0.22060
     176 ->179         0.50661
     176 ->180         0.13391

 The electronic state is 1-A.
 Alpha  occ. eigenvalues --   -1.85368  -1.82850  -1.80563  -1.74926  -1.72096
 Alpha  occ. eigenvalues --   -1.69640  -1.65165  -1.61499  -1.58522  -1.58063
 Alpha  occ. eigenvalues --   -1.56174  -1.50736  -1.49611  -1.48753  -1.46678
 Alpha  occ. eigenvalues --   -1.44796  -1.43172  -1.41570  -1.40189  -1.38070
 Alpha  occ. eigenvalues --   -1.36362  -1.33802  -1.32779  -1.31566  -1.30051
 Alpha  occ. eigenvalues --   -1.26819  -1.25175  -1.23279  -1.20428  -1.18646
 Alpha  occ. eigenvalues --   -1.17502  -1.16638  -1.15565  -1.14292  -1.13431
 Alpha  occ. eigenvalues --   -1.12293  -1.11841  -1.10956  -1.05765  -1.04110
 Alpha  occ. eigenvalues --   -1.01790  -1.01306  -0.99243  -0.98950  -0.98585
 Alpha  occ. eigenvalues --   -0.96907  -0.95257  -0.93893  -0.93637  -0.93356
 Alpha  occ. eigenvalues --   -0.90259  -0.89697  -0.88062  -0.87684  -0.85953
 Alpha  occ. eigenvalues --   -0.84495  -0.83273  -0.82680  -0.82057  -0.80531
 Alpha  occ. eigenvalues --   -0.79956  -0.78616  -0.76787  -0.76493  -0.75997
 Alpha  occ. eigenvalues --   -0.75560  -0.75217  -0.75117  -0.73994  -0.73544
 Alpha  occ. eigenvalues --   -0.73293  -0.72620  -0.72197  -0.72020  -0.71136
 Alpha  occ. eigenvalues --   -0.70870  -0.69990  -0.69377  -0.69071  -0.67850
 Alpha  occ. eigenvalues --   -0.67707  -0.67346  -0.67066  -0.66620  -0.65544
 Alpha  occ. eigenvalues --   -0.65364  -0.64835  -0.64183  -0.63760  -0.63574
 Alpha  occ. eigenvalues --   -0.63375  -0.63100  -0.62983  -0.62857  -0.62624
 Alpha  occ. eigenvalues --   -0.61891  -0.61559  -0.60892  -0.59991  -0.59944
 Alpha  occ. eigenvalues --   -0.59558  -0.59329  -0.59173  -0.58602  -0.57910
 Alpha  occ. eigenvalues --   -0.57661  -0.57135  -0.56639  -0.56560  -0.56339
 Alpha  occ. eigenvalues --   -0.55770  -0.54878  -0.54733  -0.54662  -0.54383
 Alpha  occ. eigenvalues --   -0.54244  -0.53936  -0.53497  -0.53041  -0.52497
 Alpha  occ. eigenvalues --   -0.52457  -0.52345  -0.52161  -0.51652  -0.51348
 Alpha  occ. eigenvalues --   -0.51314  -0.51001  -0.50630  -0.50061  -0.49773
 Alpha  occ. eigenvalues --   -0.49722  -0.49135  -0.48982  -0.48745  -0.48560
 Alpha  occ. eigenvalues --   -0.48456  -0.48168  -0.47960  -0.47953  -0.47800
 Alpha  occ. eigenvalues --   -0.47574  -0.46959  -0.46774  -0.46513  -0.46371
 Alpha  occ. eigenvalues --   -0.46141  -0.46019  -0.45824  -0.45477  -0.45240
 Alpha  occ. eigenvalues --   -0.44984  -0.44890  -0.44728  -0.44048  -0.43933
 Alpha  occ. eigenvalues --   -0.43805  -0.43582  -0.43499  -0.42311  -0.42223
 Alpha  occ. eigenvalues --   -0.41559  -0.41055  -0.40833  -0.39323  -0.38522
 Alpha  occ. eigenvalues --   -0.37668  -0.36913  -0.36416  -0.34460  -0.34384
 Alpha  occ. eigenvalues --   -0.34019  -0.32290  -0.32008  -0.30745  -0.26691
 Alpha  occ. eigenvalues --   -0.21971
 Alpha virt. eigenvalues --   -0.08733  -0.01950  -0.01195   0.01054   0.01615
 Alpha virt. eigenvalues --    0.03185   0.03289   0.03868   0.04746   0.05326
 Alpha virt. eigenvalues --    0.06007   0.06553   0.07103   0.07534   0.07695

 Mulliken charges:
               1
     1  Mg   0.425975
     2  C   -0.020402
     3  C   -0.087008
     4  C   -0.086464
     5  C   -0.072074
     6  N   -0.283294
     7  C    0.092027
     8  C    0.004857
     9  C    0.005048
    10  C    0.175110
    11  C   -0.043197
    12  C   -0.016967
    13  C    0.012472
    14  C    0.470455
    15  O   -0.496574
    16  O   -0.298932
    17  N   -0.334215
    18  C    0.126782
    19  C    0.046417
    20  C   -0.031161
    21  C    0.166836
    22  C   -0.036251
    23  C    0.334643
    24  O   -0.534996
    25  C   -0.024628
    26  N   -0.257679
    27  C    0.177087
    28  C    0.016254
    29  C    0.004427
    30  C    0.106844
    31  C   -0.054764
    32  C   -0.020247
    33  C   -0.054635
    34  N   -0.329051
    35  C    0.079795
    36  C    0.012498
    37  C   -0.076262
    38  C    0.088609
    39  C   -0.032215
    40  C    0.338907
    41  O   -0.552770
    42  C    0.060759
    43  C    0.502254
    44  O   -0.546786
    45  O   -0.257614
    46  C    0.076270
    47  C    0.099838
    48  C   -0.080041
    49  C   -0.017460
    50  C   -0.049853
    51  C   -0.033115
    52  C   -0.028972
    53  C   -0.036274
    54  C   -0.021184
    55  C   -0.062208
    56  C   -0.038531
    57  C   -0.033557
    58  C   -0.041269
    59  C   -0.026629
    60  C   -0.068100
    61  C   -0.032789
    62  C   -0.032281
    63  C   -0.036658
    64  C   -0.007895
    65  C   -0.047449
    66  C   -0.061545
    67  H    0.021458
    68  H    0.027155
    69  H    0.015636
    70  H    0.037690
    71  H    0.029393
    72  H    0.029349
    73  H    0.030181
    74  H    0.023939
    75  H    0.024158
    76  H    0.027191
    77  H    0.043878
    78  H    0.043902
    79  H    0.023507
    80  H    0.036696
    81  H    0.031316
    82  H    0.039565
    83  H    0.034375
    84  H    0.037950
    85  H    0.030548
    86  H    0.018318
    87  H    0.035710
    88  H    0.014994
    89  H    0.025105
    90  H    0.006531
    91  H    0.019979
    92  H    0.022565
    93  H    0.026336
    94  H    0.015574
    95  H    0.010721
    96  H    0.033294
    97  H    0.036342
    98  H    0.049805
    99  H    0.034427
   100  H    0.033164
   101  H    0.053912
   102  H    0.063535
   103  H    0.038386
   104  H    0.025477
   105  H    0.027422
   106  H    0.024879
   107  H    0.016867
   108  H    0.035579
   109  H    0.033142
   110  H    0.018694
   111  H    0.033142
   112  H    0.015798
   113  H    0.012383
   114  H    0.010867
   115  H    0.015592
   116  H    0.013413
   117  H    0.015372
   118  H    0.022400
   119  H    0.022304
   120  H    0.031059
   121  H    0.015053
   122  H    0.027056
   123  H    0.016480
   124  H    0.032104
   125  H    0.018697
   126  H    0.018384
   127  H    0.022255
   128  H    0.022262
   129  H    0.017653
   130  H    0.017778
   131  H    0.016890
   132  H    0.011237
   133  H    0.015796
   134  H    0.024565
   135  H    0.007849
   136  H    0.023186
   137  H    0.022452
   138  H    0.016491
   139  H    0.022425
   140  H    0.010245
 Sum of Mulliken charges =   0.00000

 Dipole moment (field-independent basis, Debye):
    X=             -4.3071    Y=              8.8806    Z=             -2.5694  Tot=             10.1989
 N-N= 4.321467865786D+03 E-N= 0.000000000000D+00  KE=-9.317583466359D+03
 Leave Link  601 at Wed Apr 27 16:26:08 2022, MaxMem=  6710886400 cpu:               1.1 elap:               0.1
 (Enter /sw/apps/gaussian-16.0/g16/l9999.exe)
 1\1\GINC-BP1-COMPUTE198\SP\RZINDO CIS\STO-3G\C55H74Mg1N4O6\OF15641\27-
 Apr-2022\0\\#p ZINDO=(nstates=5)\\step_1251_chromophore_13 ZINDO\\0,1\
 Mg,0,45.663,25.295,28.273\C,0,46.176,27.455,30.983\C,0,45.089,22.707,3
 0.477\C,0,45.605,23.278,25.716\C,0,46.593,27.844,26.109\N,0,45.528,25.
 162,30.462\C,0,45.748,26.195,31.384\C,0,45.647,25.685,32.793\C,0,45.76
 9,24.107,32.607\C,0,45.44,23.96,31.117\C,0,47.132,23.404,32.853\C,0,44
 .336,26.127,33.557\C,0,44.354,27.316,34.495\C,0,43.743,27.106,35.835\O

 Normal termination of Gaussian 16 at Wed Apr 27 16:26:09 2022.
