 Gaussian 16, Revision A.03,
 Gaussian 16:  ES64L-G16RevA.03 25-Dec-2016

 ------------------------------
 #p blyp/Def2SVP td=(nstates=5)
 ------------------------------

 ---------------------------------------------------
 step_1251_chromophore_25 TDDFT with blyp functional
 ---------------------------------------------------
 Symbolic Z-matrix:
 Charge =  0 Multiplicity = 1

                         Standard orientation:
 ---------------------------------------------------------------------
 Center     Atomic      Atomic             Coordinates (Angstroms)
 Number     Number       Type             X           Y           Z
 ---------------------------------------------------------------------
      1         12           0        5.734424    0.486602    0.113395
      2          6           0        3.210900   -2.067676    0.302701
      3          6           0        3.216247    2.583256   -0.904254
      4          6           0        8.128369    2.632009   -0.553900
      5          6           0        8.328540   -1.982000    0.905491
      6          7           0        3.516978    0.178928   -0.293461
      7          6           0        2.679697   -0.831241    0.086736
      8          6           0        1.162344   -0.471359   -0.082516
      9          6           0        1.278841    0.976326   -0.641831
     10          6           0        2.775944    1.289992   -0.612726
     11          6           0        0.527648    1.115651   -2.056389
     12          6           0        0.344965   -0.602865    1.267870
     13          6           0       -0.606085   -1.860300    1.344807
     14          6           0       -2.051842   -1.461921    1.635906
     15          8           0       -2.634953   -1.576625    2.685497
     16          8           0       -2.569462   -1.003840    0.410790
     17          7           0        5.630038    2.455600   -0.482873
     18          6           0        4.544651    3.120420   -0.934973
     19          6           0        4.894219    4.518799   -1.203302
     20          6           0        6.302830    4.466727   -1.315278
     21          6           0        6.796891    3.122117   -0.823055
     22          6           0        3.887406    5.563847   -1.483767
     23          6           0        7.318122    5.513947   -1.804402
     24          8           0        8.539661    5.455386   -1.683502
     25          6           0        6.726470    6.708127   -2.481994
     26          7           0        7.925501    0.284504    0.195583
     27          6           0        8.666740    1.387962   -0.089881
     28          6           0       10.175591    1.082288   -0.002508
     29          6           0       10.184479   -0.233414    0.874720
     30          6           0        8.696465   -0.692440    0.638372
     31          6           0       10.841152    1.048331   -1.411282
     32          6           0       10.457104   -0.035747    2.428110
     33          6           0        9.265821    0.119113    3.422743
     34          7           0        5.818746   -1.588411    0.450046
     35          6           0        6.900773   -2.440080    0.777302
     36          6           0        6.401749   -3.758064    1.044016
     37          6           0        4.961547   -3.651240    0.794002
     38          6           0        4.667255   -2.330383    0.483631
     39          6           0        7.215595   -4.983191    1.379157
     40          6           0        3.798182   -4.496370    0.839568
     41          8           0        3.623255   -5.623930    1.268546
     42          6           0        2.601585   -3.526191    0.457112
     43          6           0        2.024825   -4.065138   -0.743312
     44          8           0        2.619958   -4.356392   -1.761910
     45          8           0        0.690532   -4.302816   -0.425027
     46          6           0       -0.151144   -4.536610   -1.611100
     47          6           0       -3.957345   -0.387006    0.498271
     48          6           0       -4.832153   -0.903819   -0.631197
     49          6           0       -5.824697   -1.832102   -0.571059
     50          6           0       -6.248256   -2.598437    0.689536
     51          6           0       -6.745969   -2.122056   -1.788637
     52          6           0       -8.334293   -1.866293   -1.603522
     53          6           0       -9.001910   -1.312082   -2.848396
     54          6           0      -10.534703   -1.675696   -2.755335
     55          6           0      -10.993055   -2.844415   -3.637208
     56          6           0      -11.368147   -0.405979   -2.999576
     57          6           0      -11.446638    0.515578   -1.723695
     58          6           0      -12.855566    0.787508   -1.161657
     59          6           0      -12.835769    0.837752    0.349243
     60          6           0      -14.240218    0.502185    0.792798
     61          6           0      -12.206837    2.234999    0.739427
     62          6           0      -10.996897    2.016778    1.646164
     63          6           0      -10.980080    2.646529    3.051315
     64          6           0      -10.159341    3.920618    3.164727
     65          6           0       -8.930290    3.614915    4.044635
     66          6           0      -10.925864    5.058494    3.808747
     67          1           0        2.489824    3.367775   -1.124784
     68          1           0        9.002481    3.252230   -0.758611
     69          1           0        9.057528   -2.696231    1.290963
     70          1           0        0.691683   -1.199772   -0.743238
     71          1           0        0.928951    1.724349    0.070482
     72          1           0       -0.329914    1.788679   -2.029894
     73          1           0        0.163571    0.129388   -2.344815
     74          1           0        1.239947    1.360116   -2.843901
     75          1           0       -0.214860    0.319251    1.425061
     76          1           0        1.085167   -0.724896    2.058985
     77          1           0       -0.199706   -2.389835    2.206686
     78          1           0       -0.536049   -2.394879    0.397718
     79          1           0        3.992812    6.404522   -0.798975
     80          1           0        2.829507    5.304560   -1.450686
     81          1           0        4.247047    5.886392   -2.461269
     82          1           0        6.218159    6.279906   -3.346297
     83          1           0        7.584954    7.248827   -2.878999
     84          1           0        6.018161    7.270342   -1.873897
     85          1           0       10.542236    1.911706    0.602565
     86          1           0       10.816368   -0.957091    0.359824
     87          1           0       10.051261    1.405271   -2.071222
     88          1           0       11.110698    0.048400   -1.751269
     89          1           0       11.770768    1.615132   -1.349963
     90          1           0       10.906169    0.952378    2.531854
     91          1           0       11.104112   -0.803889    2.850241
     92          1           0        8.355744    0.450183    2.922310
     93          1           0        9.637307    0.862031    4.128927
     94          1           0        9.092387   -0.784069    4.006466
     95          1           0        7.553497   -5.444738    0.451981
     96          1           0        6.519778   -5.635614    1.907082
     97          1           0        8.063523   -4.738058    2.020604
     98          1           0        1.909672   -3.418236    1.292349
     99          1           0        0.325616   -4.652121   -2.584167
    100          1           0       -0.876948   -3.736854   -1.758245
    101          1           0       -0.696476   -5.457569   -1.405640
    102          1           0       -3.807929    0.681868    0.342154
    103          1           0       -4.390127   -0.492091    1.492638
    104          1           0       -4.634850   -0.397557   -1.575721
    105          1           0       -5.413919   -2.704126    1.383380
    106          1           0       -6.556724   -3.593823    0.366738
    107          1           0       -6.909504   -1.920949    1.228197
    108          1           0       -6.453149   -3.150143   -2.002270
    109          1           0       -6.345513   -1.475633   -2.570316
    110          1           0       -8.388823   -1.101802   -0.828182
    111          1           0       -8.864733   -2.749824   -1.248093
    112          1           0       -8.510680   -1.855816   -3.654915
    113          1           0       -8.751968   -0.256759   -2.740029
    114          1           0      -10.758843   -2.024696   -1.748205
    115          1           0      -10.216371   -3.179224   -4.325559
    116          1           0      -11.849570   -2.641492   -4.279801
    117          1           0      -11.161125   -3.680282   -2.958781
    118          1           0      -12.327333   -0.649199   -3.457136
    119          1           0      -10.878744    0.179952   -3.777498
    120          1           0      -11.092314    1.524150   -1.937275
    121          1           0      -10.723541    0.093908   -1.025577
    122          1           0      -13.577665    0.038324   -1.487474
    123          1           0      -13.071179    1.782193   -1.552965
    124          1           0      -12.126504    0.090707    0.706075
    125          1           0      -14.669694    1.363617    1.303452
    126          1           0      -14.267850   -0.277278    1.553880
    127          1           0      -14.978661    0.452266   -0.006329
    128          1           0      -12.936610    2.884790    1.223424
    129          1           0      -11.775598    2.735512   -0.127319
    130          1           0      -10.249454    2.557922    1.066221
    131          1           0      -10.587761    1.020764    1.813442
    132          1           0      -10.665569    1.896155    3.776722
    133          1           0      -12.038184    2.885081    3.157206
    134          1           0       -9.836510    4.254041    2.178463
    135          1           0       -8.057057    4.238241    3.849753
    136          1           0       -8.645333    2.614146    3.721044
    137          1           0       -9.319029    3.690720    5.060293
    138          1           0      -10.502858    5.426335    4.743607
    139          1           0      -12.003704    4.917690    3.892369
    140          1           0      -10.848949    5.925995    3.153082
 ---------------------------------------------------------------------

 SCF Done:  E(RB-LYP) =  -3007.33454560     A.U. after   21 cycles

 Excitation energies and oscillator strengths:

 Excited State   1:      Singlet-A      1.7596 eV  704.63 nm  f=0.0112  <S**2>=0.000
     244 -> 247        0.64735
     245 -> 247       -0.24945
     246 -> 247        0.12885
 This state for optimization and/or second-order correction.
 Total Energy, E(TD-HF/TD-DFT) =  -3007.26988321
 Copying the excited state density for this state as the 1-particle RhoCI density.

 Excited State   2:      Singlet-A      1.8132 eV  683.80 nm  f=0.2894  <S**2>=0.000
     244 -> 247       -0.12955
     245 -> 248        0.17790
     246 -> 247        0.67748
     246 <- 247       -0.14775

 Excited State   3:      Singlet-A      1.9833 eV  625.14 nm  f=0.0352  <S**2>=0.000
     243 -> 247        0.59715
     244 -> 247       -0.13727
     245 -> 247       -0.32995

 Excited State   4:      Singlet-A      2.0033 eV  618.91 nm  f=0.0876  <S**2>=0.000
     243 -> 247        0.37601
     244 -> 247        0.20530
     245 -> 247        0.52313
     246 -> 248       -0.16998

 Excited State   5:      Singlet-A      2.1937 eV  565.19 nm  f=0.0054  <S**2>=0.000
     242 -> 247        0.69868

 The electronic state is 1-A.
 Alpha  occ. eigenvalues --  -46.27917 -18.82196 -18.81346 -18.77362 -18.76956
 Alpha  occ. eigenvalues --  -18.76248 -18.75380 -14.03496 -14.02953 -14.01826
 Alpha  occ. eigenvalues --  -14.00692 -10.03847 -10.03516 -10.00210  -9.98929
 Alpha  occ. eigenvalues --   -9.97729  -9.97301  -9.97243  -9.96965  -9.96779
 Alpha  occ. eigenvalues --   -9.96486  -9.96349  -9.95610  -9.95445  -9.94970
 Alpha  occ. eigenvalues --   -9.94588  -9.94467  -9.94458  -9.94299  -9.94205
 Alpha  occ. eigenvalues --   -9.93989  -9.93886  -9.93795  -9.93795  -9.93525
 Alpha  occ. eigenvalues --   -9.93267  -9.93194  -9.93190  -9.93062  -9.93054
 Alpha  occ. eigenvalues --   -9.93020  -9.92955  -9.92919  -9.92780  -9.92477
 Alpha  occ. eigenvalues --   -9.92374  -9.92282  -9.92221  -9.92150  -9.91997
 Alpha  occ. eigenvalues --   -9.91812  -9.91809  -9.91792  -9.91487  -9.91435
 Alpha  occ. eigenvalues --   -9.91372  -9.91138  -9.91026  -9.90986  -9.90853
 Alpha  occ. eigenvalues --   -9.90599  -9.90576  -9.90526  -9.90448  -9.90395
 Alpha  occ. eigenvalues --   -9.90326  -2.92381  -1.72818  -1.72298  -1.72052
 Alpha  occ. eigenvalues --   -0.97277  -0.96362  -0.91722  -0.91005  -0.90217
 Alpha  occ. eigenvalues --   -0.89664  -0.86797  -0.86149  -0.85532  -0.83714
 Alpha  occ. eigenvalues --   -0.74254  -0.73875  -0.73259  -0.72446  -0.72251
 Alpha  occ. eigenvalues --   -0.72114  -0.71579  -0.71338  -0.71069  -0.70739
 Alpha  occ. eigenvalues --   -0.68853  -0.68528  -0.67852  -0.67157  -0.67130
 Alpha  occ. eigenvalues --   -0.66642  -0.66333  -0.65337  -0.64873  -0.64522
 Alpha  occ. eigenvalues --   -0.64221  -0.62927  -0.61871  -0.61469  -0.60702
 Alpha  occ. eigenvalues --   -0.60482  -0.60355  -0.60111  -0.59953  -0.59120
 Alpha  occ. eigenvalues --   -0.57906  -0.57419  -0.56553  -0.55245  -0.54244
 Alpha  occ. eigenvalues --   -0.53490  -0.53308  -0.52664  -0.51815  -0.51574
 Alpha  occ. eigenvalues --   -0.51322  -0.51239  -0.50641  -0.50280  -0.50067
 Alpha  occ. eigenvalues --   -0.49784  -0.49051  -0.48755  -0.47892  -0.46352
 Alpha  occ. eigenvalues --   -0.45937  -0.45753  -0.45238  -0.44857  -0.44356
 Alpha  occ. eigenvalues --   -0.43788  -0.43476  -0.43198  -0.42441  -0.42304
 Alpha  occ. eigenvalues --   -0.42114  -0.41969  -0.41737  -0.41335  -0.41026
 Alpha  occ. eigenvalues --   -0.40759  -0.40660  -0.40418  -0.40347  -0.40130
 Alpha  occ. eigenvalues --   -0.40120  -0.39881  -0.39752  -0.39430  -0.39365
 Alpha  occ. eigenvalues --   -0.39240  -0.39080  -0.38481  -0.38434  -0.38292
 Alpha  occ. eigenvalues --   -0.38008  -0.37673  -0.37626  -0.37560  -0.37323
 Alpha  occ. eigenvalues --   -0.37187  -0.37073  -0.36683  -0.36572  -0.36526
 Alpha  occ. eigenvalues --   -0.36447  -0.36412  -0.36223  -0.36004  -0.35783
 Alpha  occ. eigenvalues --   -0.35522  -0.35379  -0.35066  -0.34939  -0.34715
 Alpha  occ. eigenvalues --   -0.34639  -0.34322  -0.34317  -0.34162  -0.33930
 Alpha  occ. eigenvalues --   -0.33556  -0.33299  -0.33206  -0.33129  -0.32903
 Alpha  occ. eigenvalues --   -0.32796  -0.32676  -0.32590  -0.32488  -0.32330
 Alpha  occ. eigenvalues --   -0.32236  -0.32075  -0.31521  -0.31450  -0.31274
 Alpha  occ. eigenvalues --   -0.31169  -0.31008  -0.30860  -0.30682  -0.30613
 Alpha  occ. eigenvalues --   -0.30451  -0.30297  -0.30225  -0.29691  -0.29637
 Alpha  occ. eigenvalues --   -0.29510  -0.29395  -0.29086  -0.28896  -0.28688
 Alpha  occ. eigenvalues --   -0.28596  -0.28306  -0.28169  -0.28149  -0.27932
 Alpha  occ. eigenvalues --   -0.27682  -0.27649  -0.27529  -0.26585  -0.26401
 Alpha  occ. eigenvalues --   -0.26379  -0.26219  -0.25987  -0.25752  -0.25239
 Alpha  occ. eigenvalues --   -0.24959  -0.24832  -0.24592  -0.23449  -0.23240
 Alpha  occ. eigenvalues --   -0.23206  -0.22728  -0.22413  -0.22009  -0.21059
 Alpha  occ. eigenvalues --   -0.20699  -0.19496  -0.19151  -0.18401  -0.17223
 Alpha  occ. eigenvalues --   -0.16214
 Alpha virt. eigenvalues --   -0.11937  -0.06941  -0.06020  -0.04307  -0.03176
 Alpha virt. eigenvalues --   -0.02828  -0.02467  -0.02353  -0.01162  -0.00123
 Alpha virt. eigenvalues --    0.01322   0.01716   0.02097   0.02253   0.02616

 Mulliken charges:
               1
     1  Mg   0.672946
     2  C   -0.013126
     3  C   -0.060624
     4  C    0.003661
     5  C   -0.041186
     6  N   -0.197655
     7  C   -0.089916
     8  C   -0.002876
     9  C    0.015631
    10  C    0.055930
    11  C    0.129646
    12  C    0.085907
    13  C    0.135756
    14  C    0.071426
    15  O   -0.158971
    16  O   -0.324080
    17  N   -0.321299
    18  C    0.103949
    19  C   -0.134749
    20  C    0.002928
    21  C    0.148609
    22  C    0.168782
    23  C   -0.074514
    24  O   -0.158463
    25  C    0.119794
    26  N   -0.160536
    27  C   -0.079945
    28  C   -0.004241
    29  C    0.055242
    30  C   -0.020247
    31  C    0.156285
    32  C    0.083833
    33  C    0.060612
    34  N   -0.284915
    35  C    0.085667
    36  C   -0.170652
    37  C    0.049360
    38  C    0.114222
    39  C    0.171404
    40  C   -0.045038
    41  O   -0.130133
    42  C    0.063426
    43  C    0.134321
    44  O   -0.158090
    45  O   -0.282147
    46  C    0.195628
    47  C    0.316086
    48  C   -0.088138
    49  C   -0.193363
    50  C    0.152654
    51  C    0.127734
    52  C    0.010964
    53  C    0.143145
    54  C   -0.097432
    55  C    0.116256
    56  C    0.120716
    57  C    0.032292
    58  C    0.107243
    59  C   -0.090272
    60  C    0.160839
    61  C    0.137608
    62  C    0.013823
    63  C    0.117917
    64  C   -0.085758
    65  C    0.100847
    66  C    0.114322
    67  H   -0.076754
    68  H   -0.040467
    69  H   -0.058043
    70  H   -0.011511
    71  H   -0.023730
    72  H    0.001097
    73  H   -0.012790
    74  H   -0.004691
    75  H   -0.011339
    76  H   -0.015926
    77  H    0.000191
    78  H    0.020450
    79  H    0.009518
    80  H    0.000305
    81  H    0.009159
    82  H    0.008374
    83  H   -0.007826
    84  H    0.017739
    85  H   -0.027195
    86  H   -0.039150
    87  H    0.004715
    88  H   -0.011248
    89  H    0.007526
    90  H   -0.023017
    91  H   -0.012433
    92  H    0.013669
    93  H   -0.013006
    94  H   -0.005181
    95  H    0.014742
    96  H    0.011118
    97  H   -0.009293
    98  H   -0.005441
    99  H    0.023269
   100  H    0.012991
   101  H    0.015570
   102  H   -0.019907
   103  H   -0.002209
   104  H   -0.044700
   105  H   -0.000182
   106  H    0.001553
   107  H    0.011998
   108  H   -0.011101
   109  H   -0.038098
   110  H   -0.016105
   111  H   -0.017485
   112  H   -0.018833
   113  H   -0.016684
   114  H   -0.027706
   115  H   -0.027623
   116  H   -0.011945
   117  H   -0.015491
   118  H   -0.043035
   119  H   -0.043119
   120  H   -0.041022
   121  H   -0.021413
   122  H   -0.030619
   123  H   -0.030173
   124  H   -0.035126
   125  H   -0.051396
   126  H   -0.011599
   127  H   -0.021412
   128  H   -0.029856
   129  H   -0.028737
   130  H   -0.048147
   131  H   -0.026221
   132  H   -0.034095
   133  H   -0.047591
   134  H   -0.035990
   135  H   -0.017069
   136  H   -0.022118
   137  H   -0.001161
   138  H   -0.021267
   139  H   -0.020396
   140  H   -0.034360
 Sum of Mulliken charges =  -0.00000

 Dipole moment (field-independent basis, Debye):
    X=             -2.7780    Y=              5.5019    Z=             -1.4545  Tot=              6.3328
 Quadrupole moment (field-independent basis, Debye-Ang):
   XX=           -377.3852   YY=           -428.4616   ZZ=           -412.7538
   XY=              1.9304   XZ=             23.3177   YZ=              4.1896

 Normal termination of Gaussian 16 at Wed Apr 27 18:42:34 2022.
