 Gaussian 16, Revision A.03,
 Gaussian 16:  ES64L-G16RevA.03 25-Dec-2016

 -----------------------------------
 #p cam-b3lyp/Def2SVP td=(nstates=5)
 -----------------------------------

 --------------------------------------------------------
 step_1251_chromophore_25 TDDFT with cam-b3lyp functional
 --------------------------------------------------------
 Symbolic Z-matrix:
 Charge =  0 Multiplicity = 1

                         Standard orientation:
 ---------------------------------------------------------------------
 Center     Atomic      Atomic             Coordinates (Angstroms)
 Number     Number       Type             X           Y           Z
 ---------------------------------------------------------------------
      1         12           0        5.734424    0.486602    0.113395
      2          6           0        3.210900   -2.067676    0.302701
      3          6           0        3.216247    2.583256   -0.904254
      4          6           0        8.128369    2.632009   -0.553900
      5          6           0        8.328540   -1.982000    0.905491
      6          7           0        3.516978    0.178928   -0.293461
      7          6           0        2.679697   -0.831241    0.086736
      8          6           0        1.162344   -0.471359   -0.082516
      9          6           0        1.278841    0.976326   -0.641831
     10          6           0        2.775944    1.289992   -0.612726
     11          6           0        0.527648    1.115651   -2.056389
     12          6           0        0.344965   -0.602865    1.267870
     13          6           0       -0.606085   -1.860300    1.344807
     14          6           0       -2.051842   -1.461921    1.635906
     15          8           0       -2.634953   -1.576625    2.685497
     16          8           0       -2.569462   -1.003840    0.410790
     17          7           0        5.630038    2.455600   -0.482873
     18          6           0        4.544651    3.120420   -0.934973
     19          6           0        4.894219    4.518799   -1.203302
     20          6           0        6.302830    4.466727   -1.315278
     21          6           0        6.796891    3.122117   -0.823055
     22          6           0        3.887406    5.563847   -1.483767
     23          6           0        7.318122    5.513947   -1.804402
     24          8           0        8.539661    5.455386   -1.683502
     25          6           0        6.726470    6.708127   -2.481994
     26          7           0        7.925501    0.284504    0.195583
     27          6           0        8.666740    1.387962   -0.089881
     28          6           0       10.175591    1.082288   -0.002508
     29          6           0       10.184479   -0.233414    0.874720
     30          6           0        8.696465   -0.692440    0.638372
     31          6           0       10.841152    1.048331   -1.411282
     32          6           0       10.457104   -0.035747    2.428110
     33          6           0        9.265821    0.119113    3.422743
     34          7           0        5.818746   -1.588411    0.450046
     35          6           0        6.900773   -2.440080    0.777302
     36          6           0        6.401749   -3.758064    1.044016
     37          6           0        4.961547   -3.651240    0.794002
     38          6           0        4.667255   -2.330383    0.483631
     39          6           0        7.215595   -4.983191    1.379157
     40          6           0        3.798182   -4.496370    0.839568
     41          8           0        3.623255   -5.623930    1.268546
     42          6           0        2.601585   -3.526191    0.457112
     43          6           0        2.024825   -4.065138   -0.743312
     44          8           0        2.619958   -4.356392   -1.761910
     45          8           0        0.690532   -4.302816   -0.425027
     46          6           0       -0.151144   -4.536610   -1.611100
     47          6           0       -3.957345   -0.387006    0.498271
     48          6           0       -4.832153   -0.903819   -0.631197
     49          6           0       -5.824697   -1.832102   -0.571059
     50          6           0       -6.248256   -2.598437    0.689536
     51          6           0       -6.745969   -2.122056   -1.788637
     52          6           0       -8.334293   -1.866293   -1.603522
     53          6           0       -9.001910   -1.312082   -2.848396
     54          6           0      -10.534703   -1.675696   -2.755335
     55          6           0      -10.993055   -2.844415   -3.637208
     56          6           0      -11.368147   -0.405979   -2.999576
     57          6           0      -11.446638    0.515578   -1.723695
     58          6           0      -12.855566    0.787508   -1.161657
     59          6           0      -12.835769    0.837752    0.349243
     60          6           0      -14.240218    0.502185    0.792798
     61          6           0      -12.206837    2.234999    0.739427
     62          6           0      -10.996897    2.016778    1.646164
     63          6           0      -10.980080    2.646529    3.051315
     64          6           0      -10.159341    3.920618    3.164727
     65          6           0       -8.930290    3.614915    4.044635
     66          6           0      -10.925864    5.058494    3.808747
     67          1           0        2.489824    3.367775   -1.124784
     68          1           0        9.002481    3.252230   -0.758611
     69          1           0        9.057528   -2.696231    1.290963
     70          1           0        0.691683   -1.199772   -0.743238
     71          1           0        0.928951    1.724349    0.070482
     72          1           0       -0.329914    1.788679   -2.029894
     73          1           0        0.163571    0.129388   -2.344815
     74          1           0        1.239947    1.360116   -2.843901
     75          1           0       -0.214860    0.319251    1.425061
     76          1           0        1.085167   -0.724896    2.058985
     77          1           0       -0.199706   -2.389835    2.206686
     78          1           0       -0.536049   -2.394879    0.397718
     79          1           0        3.992812    6.404522   -0.798975
     80          1           0        2.829507    5.304560   -1.450686
     81          1           0        4.247047    5.886392   -2.461269
     82          1           0        6.218159    6.279906   -3.346297
     83          1           0        7.584954    7.248827   -2.878999
     84          1           0        6.018161    7.270342   -1.873897
     85          1           0       10.542236    1.911706    0.602565
     86          1           0       10.816368   -0.957091    0.359824
     87          1           0       10.051261    1.405271   -2.071222
     88          1           0       11.110698    0.048400   -1.751269
     89          1           0       11.770768    1.615132   -1.349963
     90          1           0       10.906169    0.952378    2.531854
     91          1           0       11.104112   -0.803889    2.850241
     92          1           0        8.355744    0.450183    2.922310
     93          1           0        9.637307    0.862031    4.128927
     94          1           0        9.092387   -0.784069    4.006466
     95          1           0        7.553497   -5.444738    0.451981
     96          1           0        6.519778   -5.635614    1.907082
     97          1           0        8.063523   -4.738058    2.020604
     98          1           0        1.909672   -3.418236    1.292349
     99          1           0        0.325616   -4.652121   -2.584167
    100          1           0       -0.876948   -3.736854   -1.758245
    101          1           0       -0.696476   -5.457569   -1.405640
    102          1           0       -3.807929    0.681868    0.342154
    103          1           0       -4.390127   -0.492091    1.492638
    104          1           0       -4.634850   -0.397557   -1.575721
    105          1           0       -5.413919   -2.704126    1.383380
    106          1           0       -6.556724   -3.593823    0.366738
    107          1           0       -6.909504   -1.920949    1.228197
    108          1           0       -6.453149   -3.150143   -2.002270
    109          1           0       -6.345513   -1.475633   -2.570316
    110          1           0       -8.388823   -1.101802   -0.828182
    111          1           0       -8.864733   -2.749824   -1.248093
    112          1           0       -8.510680   -1.855816   -3.654915
    113          1           0       -8.751968   -0.256759   -2.740029
    114          1           0      -10.758843   -2.024696   -1.748205
    115          1           0      -10.216371   -3.179224   -4.325559
    116          1           0      -11.849570   -2.641492   -4.279801
    117          1           0      -11.161125   -3.680282   -2.958781
    118          1           0      -12.327333   -0.649199   -3.457136
    119          1           0      -10.878744    0.179952   -3.777498
    120          1           0      -11.092314    1.524150   -1.937275
    121          1           0      -10.723541    0.093908   -1.025577
    122          1           0      -13.577665    0.038324   -1.487474
    123          1           0      -13.071179    1.782193   -1.552965
    124          1           0      -12.126504    0.090707    0.706075
    125          1           0      -14.669694    1.363617    1.303452
    126          1           0      -14.267850   -0.277278    1.553880
    127          1           0      -14.978661    0.452266   -0.006329
    128          1           0      -12.936610    2.884790    1.223424
    129          1           0      -11.775598    2.735512   -0.127319
    130          1           0      -10.249454    2.557922    1.066221
    131          1           0      -10.587761    1.020764    1.813442
    132          1           0      -10.665569    1.896155    3.776722
    133          1           0      -12.038184    2.885081    3.157206
    134          1           0       -9.836510    4.254041    2.178463
    135          1           0       -8.057057    4.238241    3.849753
    136          1           0       -8.645333    2.614146    3.721044
    137          1           0       -9.319029    3.690720    5.060293
    138          1           0      -10.502858    5.426335    4.743607
    139          1           0      -12.003704    4.917690    3.892369
    140          1           0      -10.848949    5.925995    3.153082
 ---------------------------------------------------------------------

 SCF Done:  E(RCAM-B3LYP) =  -3007.11661427     A.U. after   19 cycles

 Excitation energies and oscillator strengths:

 Excited State   1:      Singlet-A      1.7369 eV  713.80 nm  f=0.3704  <S**2>=0.000
     245 -> 248        0.16435
     246 -> 247        0.68807
 This state for optimization and/or second-order correction.
 Total Energy, E(TD-HF/TD-DFT) =  -3007.05278258
 Copying the excited state density for this state as the 1-particle RhoCI density.

 Excited State   2:      Singlet-A      2.1725 eV  570.71 nm  f=0.1930  <S**2>=0.000
     245 -> 247        0.66194
     246 -> 248       -0.22658

 Excited State   3:      Singlet-A      3.0119 eV  411.65 nm  f=0.0079  <S**2>=0.000
     244 -> 247        0.69196

 Excited State   4:      Singlet-A      3.4644 eV  357.89 nm  f=0.0057  <S**2>=0.000
     240 -> 247        0.21128
     241 -> 247        0.59249
     243 -> 247        0.18010
     246 -> 248        0.19051

 Excited State   5:      Singlet-A      3.5221 eV  352.02 nm  f=0.0110  <S**2>=0.000
     241 -> 247       -0.15116
     243 -> 247        0.58141
     243 -> 249       -0.20383
     243 -> 251       -0.21308
     246 -> 248       -0.14112

 The electronic state is 1-A.
 Alpha  occ. eigenvalues --  -46.89488 -19.25063 -19.24233 -19.20368 -19.20015
 Alpha  occ. eigenvalues --  -19.19922 -19.17907 -14.42319 -14.41879 -14.40624
 Alpha  occ. eigenvalues --  -14.38659 -10.39172 -10.38812 -10.35947 -10.33737
 Alpha  occ. eigenvalues --  -10.32482 -10.31982 -10.31910 -10.31728 -10.31490
 Alpha  occ. eigenvalues --  -10.31174 -10.30612 -10.30379 -10.29544 -10.28991
 Alpha  occ. eigenvalues --  -10.28953 -10.28602 -10.28586 -10.28490 -10.28380
 Alpha  occ. eigenvalues --  -10.28362 -10.28042 -10.27970 -10.27901 -10.27648
 Alpha  occ. eigenvalues --  -10.27563 -10.27407 -10.27206 -10.26970 -10.26886
 Alpha  occ. eigenvalues --  -10.26827 -10.26709 -10.26612 -10.26575 -10.26559
 Alpha  occ. eigenvalues --  -10.26261 -10.26113 -10.25947 -10.25932 -10.25927
 Alpha  occ. eigenvalues --  -10.25462 -10.25315 -10.25130 -10.25120 -10.25036
 Alpha  occ. eigenvalues --  -10.24965 -10.24710 -10.24704 -10.24645 -10.24440
 Alpha  occ. eigenvalues --  -10.24210 -10.24160 -10.24122 -10.24074 -10.23898
 Alpha  occ. eigenvalues --  -10.23708  -3.17850  -1.92767  -1.92327  -1.92118
 Alpha  occ. eigenvalues --   -1.15711  -1.14843  -1.10644  -1.08829  -1.08034
 Alpha  occ. eigenvalues --   -1.07488  -1.04636  -1.04062  -1.03324  -1.00615
 Alpha  occ. eigenvalues --   -0.91018  -0.90731  -0.90074  -0.89523  -0.89166
 Alpha  occ. eigenvalues --   -0.88831  -0.88220  -0.88021  -0.87873  -0.87298
 Alpha  occ. eigenvalues --   -0.85263  -0.84551  -0.84073  -0.83430  -0.83086
 Alpha  occ. eigenvalues --   -0.82841  -0.82664  -0.81224  -0.80685  -0.80384
 Alpha  occ. eigenvalues --   -0.79975  -0.79098  -0.77386  -0.76855  -0.76067
 Alpha  occ. eigenvalues --   -0.75749  -0.75726  -0.75457  -0.75275  -0.74351
 Alpha  occ. eigenvalues --   -0.72816  -0.72277  -0.71472  -0.70110  -0.68816
 Alpha  occ. eigenvalues --   -0.68088  -0.67865  -0.67049  -0.66131  -0.65829
 Alpha  occ. eigenvalues --   -0.65573  -0.65202  -0.64585  -0.64317  -0.64092
 Alpha  occ. eigenvalues --   -0.63769  -0.63000  -0.62516  -0.61451  -0.60368
 Alpha  occ. eigenvalues --   -0.59511  -0.59203  -0.58615  -0.58164  -0.57808
 Alpha  occ. eigenvalues --   -0.57153  -0.56900  -0.56505  -0.55273  -0.55112
 Alpha  occ. eigenvalues --   -0.55070  -0.54920  -0.54602  -0.54431  -0.54000
 Alpha  occ. eigenvalues --   -0.53757  -0.53638  -0.53458  -0.53241  -0.52992
 Alpha  occ. eigenvalues --   -0.52874  -0.52480  -0.52387  -0.52121  -0.51901
 Alpha  occ. eigenvalues --   -0.51743  -0.51496  -0.51453  -0.50803  -0.50723
 Alpha  occ. eigenvalues --   -0.50398  -0.50260  -0.50077  -0.49921  -0.49753
 Alpha  occ. eigenvalues --   -0.49355  -0.49160  -0.49090  -0.48799  -0.48615
 Alpha  occ. eigenvalues --   -0.48565  -0.48536  -0.48467  -0.48293  -0.48100
 Alpha  occ. eigenvalues --   -0.48032  -0.47841  -0.47433  -0.46905  -0.46770
 Alpha  occ. eigenvalues --   -0.46566  -0.46062  -0.46046  -0.45906  -0.45565
 Alpha  occ. eigenvalues --   -0.45351  -0.45025  -0.44892  -0.44764  -0.44533
 Alpha  occ. eigenvalues --   -0.44332  -0.44238  -0.44175  -0.44127  -0.43949
 Alpha  occ. eigenvalues --   -0.43765  -0.43730  -0.43523  -0.43184  -0.42948
 Alpha  occ. eigenvalues --   -0.42790  -0.42491  -0.42414  -0.42069  -0.42007
 Alpha  occ. eigenvalues --   -0.41889  -0.41883  -0.41519  -0.40851  -0.40760
 Alpha  occ. eigenvalues --   -0.40671  -0.40594  -0.40310  -0.39919  -0.39699
 Alpha  occ. eigenvalues --   -0.39569  -0.39313  -0.39180  -0.39098  -0.38790
 Alpha  occ. eigenvalues --   -0.38696  -0.38504  -0.38367  -0.37627  -0.37382
 Alpha  occ. eigenvalues --   -0.37145  -0.37030  -0.36760  -0.36496  -0.36418
 Alpha  occ. eigenvalues --   -0.36008  -0.35854  -0.35393  -0.34759  -0.34330
 Alpha  occ. eigenvalues --   -0.33830  -0.33690  -0.32391  -0.31975  -0.31657
 Alpha  occ. eigenvalues --   -0.30905  -0.30423  -0.29716  -0.28040  -0.23970
 Alpha  occ. eigenvalues --   -0.21707
 Alpha virt. eigenvalues --   -0.09199  -0.01565   0.00342   0.02467   0.02964
 Alpha virt. eigenvalues --    0.04195   0.04794   0.05393   0.06082   0.06722
 Alpha virt. eigenvalues --    0.07766   0.08205   0.08346   0.08722   0.09117

 Mulliken charges:
               1
     1  Mg   0.802459
     2  C   -0.029662
     3  C   -0.080611
     4  C   -0.024474
     5  C   -0.037028
     6  N   -0.266661
     7  C   -0.059573
     8  C   -0.043801
     9  C   -0.043497
    10  C    0.081339
    11  C    0.072578
    12  C    0.042073
    13  C    0.064802
    14  C    0.154688
    15  O   -0.201374
    16  O   -0.388131
    17  N   -0.409447
    18  C    0.123445
    19  C   -0.132247
    20  C   -0.063013
    21  C    0.175884
    22  C    0.105677
    23  C    0.011676
    24  O   -0.195820
    25  C    0.032260
    26  N   -0.227874
    27  C   -0.052728
    28  C   -0.056365
    29  C    0.001366
    30  C   -0.016577
    31  C    0.095570
    32  C    0.030286
    33  C    0.005162
    34  N   -0.372074
    35  C    0.083196
    36  C   -0.170974
    37  C   -0.035061
    38  C    0.148691
    39  C    0.121894
    40  C    0.048153
    41  O   -0.173352
    42  C   -0.014205
    43  C    0.223830
    44  O   -0.196191
    45  O   -0.346255
    46  C    0.157866
    47  C    0.284493
    48  C   -0.117757
    49  C   -0.203755
    50  C    0.087375
    51  C    0.073019
    52  C   -0.037743
    53  C    0.084172
    54  C   -0.154743
    55  C    0.058967
    56  C    0.066845
    57  C   -0.012580
    58  C    0.049584
    59  C   -0.144404
    60  C    0.095314
    61  C    0.083483
    62  C   -0.037643
    63  C    0.060522
    64  C   -0.146371
    65  C    0.042715
    66  C    0.051623
    67  H   -0.042601
    68  H   -0.000298
    69  H   -0.022004
    70  H    0.018421
    71  H    0.010796
    72  H    0.025023
    73  H    0.013279
    74  H    0.020892
    75  H    0.016683
    76  H    0.016118
    77  H    0.032743
    78  H    0.048011
    79  H    0.038974
    80  H    0.031978
    81  H    0.035313
    82  H    0.035952
    83  H    0.030380
    84  H    0.045688
    85  H    0.008029
    86  H   -0.002012
    87  H    0.029326
    88  H    0.015456
    89  H    0.032026
    90  H    0.003323
    91  H    0.015408
    92  H    0.031378
    93  H    0.010105
    94  H    0.018847
    95  H    0.037711
    96  H    0.036021
    97  H    0.011041
    98  H    0.036745
    99  H    0.049949
   100  H    0.030773
   101  H    0.038643
   102  H    0.008467
   103  H    0.030656
   104  H   -0.011181
   105  H    0.025507
   106  H    0.026224
   107  H    0.035736
   108  H    0.016406
   109  H   -0.007996
   110  H    0.008959
   111  H    0.008900
   112  H    0.009261
   113  H    0.011065
   114  H    0.003518
   115  H   -0.003271
   116  H    0.012734
   117  H    0.008097
   118  H   -0.013809
   119  H   -0.012900
   120  H   -0.013384
   121  H   -0.001007
   122  H   -0.001181
   123  H   -0.001315
   124  H   -0.002792
   125  H   -0.025333
   126  H    0.013976
   127  H    0.005414
   128  H   -0.002350
   129  H   -0.000579
   130  H   -0.019854
   131  H    0.000956
   132  H   -0.003007
   133  H   -0.019067
   134  H   -0.004144
   135  H    0.008230
   136  H    0.000987
   137  H    0.020942
   138  H    0.003927
   139  H    0.004762
   140  H   -0.008687
 Sum of Mulliken charges =  -0.00000

 Dipole moment (field-independent basis, Debye):
    X=             -2.7916    Y=              7.4145    Z=             -2.0463  Tot=              8.1826
 Quadrupole moment (field-independent basis, Debye-Ang):
   XX=           -375.5710   YY=           -424.6770   ZZ=           -412.4515
   XY=             11.4523   XZ=             20.9665   YZ=              2.7140

 Normal termination of Gaussian 16 at Wed Apr 27 17:42:58 2022.
