 Gaussian 16, Revision A.03,
 Gaussian 16:  ES64L-G16RevA.03 25-Dec-2016

 ---------------------------------
 #p PBE1PBE/Def2SVP td=(nstates=5)
 ---------------------------------

 ------------------------------------------------------
 step_1251_chromophore_25 TDDFT with PBE1PBE functional
 ------------------------------------------------------
 Symbolic Z-matrix:
 Charge =  0 Multiplicity = 1

                         Standard orientation:
 ---------------------------------------------------------------------
 Center     Atomic      Atomic             Coordinates (Angstroms)
 Number     Number       Type             X           Y           Z
 ---------------------------------------------------------------------
      1         12           0        5.734424    0.486602    0.113395
      2          6           0        3.210900   -2.067676    0.302701
      3          6           0        3.216247    2.583256   -0.904254
      4          6           0        8.128369    2.632009   -0.553900
      5          6           0        8.328540   -1.982000    0.905491
      6          7           0        3.516978    0.178928   -0.293461
      7          6           0        2.679697   -0.831241    0.086736
      8          6           0        1.162344   -0.471359   -0.082516
      9          6           0        1.278841    0.976326   -0.641831
     10          6           0        2.775944    1.289992   -0.612726
     11          6           0        0.527648    1.115651   -2.056389
     12          6           0        0.344965   -0.602865    1.267870
     13          6           0       -0.606085   -1.860300    1.344807
     14          6           0       -2.051842   -1.461921    1.635906
     15          8           0       -2.634953   -1.576625    2.685497
     16          8           0       -2.569462   -1.003840    0.410790
     17          7           0        5.630038    2.455600   -0.482873
     18          6           0        4.544651    3.120420   -0.934973
     19          6           0        4.894219    4.518799   -1.203302
     20          6           0        6.302830    4.466727   -1.315278
     21          6           0        6.796891    3.122117   -0.823055
     22          6           0        3.887406    5.563847   -1.483767
     23          6           0        7.318122    5.513947   -1.804402
     24          8           0        8.539661    5.455386   -1.683502
     25          6           0        6.726470    6.708127   -2.481994
     26          7           0        7.925501    0.284504    0.195583
     27          6           0        8.666740    1.387962   -0.089881
     28          6           0       10.175591    1.082288   -0.002508
     29          6           0       10.184479   -0.233414    0.874720
     30          6           0        8.696465   -0.692440    0.638372
     31          6           0       10.841152    1.048331   -1.411282
     32          6           0       10.457104   -0.035747    2.428110
     33          6           0        9.265821    0.119113    3.422743
     34          7           0        5.818746   -1.588411    0.450046
     35          6           0        6.900773   -2.440080    0.777302
     36          6           0        6.401749   -3.758064    1.044016
     37          6           0        4.961547   -3.651240    0.794002
     38          6           0        4.667255   -2.330383    0.483631
     39          6           0        7.215595   -4.983191    1.379157
     40          6           0        3.798182   -4.496370    0.839568
     41          8           0        3.623255   -5.623930    1.268546
     42          6           0        2.601585   -3.526191    0.457112
     43          6           0        2.024825   -4.065138   -0.743312
     44          8           0        2.619958   -4.356392   -1.761910
     45          8           0        0.690532   -4.302816   -0.425027
     46          6           0       -0.151144   -4.536610   -1.611100
     47          6           0       -3.957345   -0.387006    0.498271
     48          6           0       -4.832153   -0.903819   -0.631197
     49          6           0       -5.824697   -1.832102   -0.571059
     50          6           0       -6.248256   -2.598437    0.689536
     51          6           0       -6.745969   -2.122056   -1.788637
     52          6           0       -8.334293   -1.866293   -1.603522
     53          6           0       -9.001910   -1.312082   -2.848396
     54          6           0      -10.534703   -1.675696   -2.755335
     55          6           0      -10.993055   -2.844415   -3.637208
     56          6           0      -11.368147   -0.405979   -2.999576
     57          6           0      -11.446638    0.515578   -1.723695
     58          6           0      -12.855566    0.787508   -1.161657
     59          6           0      -12.835769    0.837752    0.349243
     60          6           0      -14.240218    0.502185    0.792798
     61          6           0      -12.206837    2.234999    0.739427
     62          6           0      -10.996897    2.016778    1.646164
     63          6           0      -10.980080    2.646529    3.051315
     64          6           0      -10.159341    3.920618    3.164727
     65          6           0       -8.930290    3.614915    4.044635
     66          6           0      -10.925864    5.058494    3.808747
     67          1           0        2.489824    3.367775   -1.124784
     68          1           0        9.002481    3.252230   -0.758611
     69          1           0        9.057528   -2.696231    1.290963
     70          1           0        0.691683   -1.199772   -0.743238
     71          1           0        0.928951    1.724349    0.070482
     72          1           0       -0.329914    1.788679   -2.029894
     73          1           0        0.163571    0.129388   -2.344815
     74          1           0        1.239947    1.360116   -2.843901
     75          1           0       -0.214860    0.319251    1.425061
     76          1           0        1.085167   -0.724896    2.058985
     77          1           0       -0.199706   -2.389835    2.206686
     78          1           0       -0.536049   -2.394879    0.397718
     79          1           0        3.992812    6.404522   -0.798975
     80          1           0        2.829507    5.304560   -1.450686
     81          1           0        4.247047    5.886392   -2.461269
     82          1           0        6.218159    6.279906   -3.346297
     83          1           0        7.584954    7.248827   -2.878999
     84          1           0        6.018161    7.270342   -1.873897
     85          1           0       10.542236    1.911706    0.602565
     86          1           0       10.816368   -0.957091    0.359824
     87          1           0       10.051261    1.405271   -2.071222
     88          1           0       11.110698    0.048400   -1.751269
     89          1           0       11.770768    1.615132   -1.349963
     90          1           0       10.906169    0.952378    2.531854
     91          1           0       11.104112   -0.803889    2.850241
     92          1           0        8.355744    0.450183    2.922310
     93          1           0        9.637307    0.862031    4.128927
     94          1           0        9.092387   -0.784069    4.006466
     95          1           0        7.553497   -5.444738    0.451981
     96          1           0        6.519778   -5.635614    1.907082
     97          1           0        8.063523   -4.738058    2.020604
     98          1           0        1.909672   -3.418236    1.292349
     99          1           0        0.325616   -4.652121   -2.584167
    100          1           0       -0.876948   -3.736854   -1.758245
    101          1           0       -0.696476   -5.457569   -1.405640
    102          1           0       -3.807929    0.681868    0.342154
    103          1           0       -4.390127   -0.492091    1.492638
    104          1           0       -4.634850   -0.397557   -1.575721
    105          1           0       -5.413919   -2.704126    1.383380
    106          1           0       -6.556724   -3.593823    0.366738
    107          1           0       -6.909504   -1.920949    1.228197
    108          1           0       -6.453149   -3.150143   -2.002270
    109          1           0       -6.345513   -1.475633   -2.570316
    110          1           0       -8.388823   -1.101802   -0.828182
    111          1           0       -8.864733   -2.749824   -1.248093
    112          1           0       -8.510680   -1.855816   -3.654915
    113          1           0       -8.751968   -0.256759   -2.740029
    114          1           0      -10.758843   -2.024696   -1.748205
    115          1           0      -10.216371   -3.179224   -4.325559
    116          1           0      -11.849570   -2.641492   -4.279801
    117          1           0      -11.161125   -3.680282   -2.958781
    118          1           0      -12.327333   -0.649199   -3.457136
    119          1           0      -10.878744    0.179952   -3.777498
    120          1           0      -11.092314    1.524150   -1.937275
    121          1           0      -10.723541    0.093908   -1.025577
    122          1           0      -13.577665    0.038324   -1.487474
    123          1           0      -13.071179    1.782193   -1.552965
    124          1           0      -12.126504    0.090707    0.706075
    125          1           0      -14.669694    1.363617    1.303452
    126          1           0      -14.267850   -0.277278    1.553880
    127          1           0      -14.978661    0.452266   -0.006329
    128          1           0      -12.936610    2.884790    1.223424
    129          1           0      -11.775598    2.735512   -0.127319
    130          1           0      -10.249454    2.557922    1.066221
    131          1           0      -10.587761    1.020764    1.813442
    132          1           0      -10.665569    1.896155    3.776722
    133          1           0      -12.038184    2.885081    3.157206
    134          1           0       -9.836510    4.254041    2.178463
    135          1           0       -8.057057    4.238241    3.849753
    136          1           0       -8.645333    2.614146    3.721044
    137          1           0       -9.319029    3.690720    5.060293
    138          1           0      -10.502858    5.426335    4.743607
    139          1           0      -12.003704    4.917690    3.892369
    140          1           0      -10.848949    5.925995    3.153082
 ---------------------------------------------------------------------

 SCF Done:  E(RPBE1PBE) =  -3005.30570369     A.U. after   16 cycles

 Excitation energies and oscillator strengths:

 Excited State   1:      Singlet-A      1.8583 eV  667.19 nm  f=0.3578  <S**2>=0.000
     245 -> 248        0.16437
     246 -> 247        0.69351
     246 <- 247       -0.10730
 This state for optimization and/or second-order correction.
 Total Energy, E(TD-HF/TD-DFT) =  -3005.23741183
 Copying the excited state density for this state as the 1-particle RhoCI density.

 Excited State   2:      Singlet-A      2.1788 eV  569.06 nm  f=0.1783  <S**2>=0.000
     245 -> 247        0.66972
     246 -> 248       -0.20833

 Excited State   3:      Singlet-A      2.6486 eV  468.11 nm  f=0.0071  <S**2>=0.000
     244 -> 247        0.69940

 Excited State   4:      Singlet-A      2.8550 eV  434.26 nm  f=0.0004  <S**2>=0.000
     243 -> 247        0.68809
     243 -> 249       -0.10590

 Excited State   5:      Singlet-A      3.0631 eV  404.76 nm  f=0.0029  <S**2>=0.000
     240 -> 247        0.28420
     240 -> 249        0.10032
     241 -> 247        0.61931

 The electronic state is 1-A.
 Alpha  occ. eigenvalues --  -46.92883 -19.25828 -19.24986 -19.20676 -19.20251
 Alpha  occ. eigenvalues --  -19.19884 -19.18542 -14.41879 -14.41296 -14.40075
 Alpha  occ. eigenvalues --  -14.38659 -10.36259 -10.35904 -10.32746 -10.31233
 Alpha  occ. eigenvalues --  -10.29786 -10.29381 -10.29321 -10.29185 -10.28674
 Alpha  occ. eigenvalues --  -10.28579 -10.28473 -10.27532 -10.27525 -10.27278
 Alpha  occ. eigenvalues --  -10.26501 -10.26421 -10.26377 -10.26340 -10.26267
 Alpha  occ. eigenvalues --  -10.25813 -10.25739 -10.25716 -10.25710 -10.25156
 Alpha  occ. eigenvalues --  -10.25127 -10.25116 -10.25064 -10.24838 -10.24773
 Alpha  occ. eigenvalues --  -10.24434 -10.24405 -10.24294 -10.24188 -10.23692
 Alpha  occ. eigenvalues --  -10.23678 -10.23659 -10.23635 -10.23521 -10.23348
 Alpha  occ. eigenvalues --  -10.23053 -10.22786 -10.22781 -10.22742 -10.22741
 Alpha  occ. eigenvalues --  -10.22712 -10.22278 -10.22241 -10.22121 -10.21963
 Alpha  occ. eigenvalues --  -10.21831 -10.21780 -10.21731 -10.21640 -10.21518
 Alpha  occ. eigenvalues --  -10.21285  -3.14832  -1.87689  -1.87227  -1.87023
 Alpha  occ. eigenvalues --   -1.10560  -1.09663  -1.05038  -1.03929  -1.02980
 Alpha  occ. eigenvalues --   -1.02409  -0.99156  -0.98524  -0.97859  -0.95674
 Alpha  occ. eigenvalues --   -0.85544  -0.84836  -0.84199  -0.83474  -0.83339
 Alpha  occ. eigenvalues --   -0.83023  -0.82379  -0.82230  -0.82088  -0.81620
 Alpha  occ. eigenvalues --   -0.79540  -0.79069  -0.78285  -0.77601  -0.77476
 Alpha  occ. eigenvalues --   -0.76935  -0.76810  -0.75513  -0.74976  -0.74712
 Alpha  occ. eigenvalues --   -0.74197  -0.73148  -0.71694  -0.71187  -0.70247
 Alpha  occ. eigenvalues --   -0.70164  -0.69847  -0.69785  -0.69396  -0.68547
 Alpha  occ. eigenvalues --   -0.67305  -0.66772  -0.65846  -0.64416  -0.63154
 Alpha  occ. eigenvalues --   -0.62443  -0.62161  -0.61594  -0.60383  -0.60215
 Alpha  occ. eigenvalues --   -0.59769  -0.59714  -0.59167  -0.58917  -0.58221
 Alpha  occ. eigenvalues --   -0.57962  -0.57149  -0.57076  -0.56143  -0.54643
 Alpha  occ. eigenvalues --   -0.54016  -0.53631  -0.53288  -0.52751  -0.52368
 Alpha  occ. eigenvalues --   -0.51804  -0.51372  -0.50986  -0.49807  -0.49641
 Alpha  occ. eigenvalues --   -0.49557  -0.49421  -0.49079  -0.48934  -0.48610
 Alpha  occ. eigenvalues --   -0.48365  -0.47992  -0.47729  -0.47676  -0.47558
 Alpha  occ. eigenvalues --   -0.47380  -0.47041  -0.46912  -0.46752  -0.46566
 Alpha  occ. eigenvalues --   -0.46284  -0.46006  -0.45772  -0.45337  -0.45244
 Alpha  occ. eigenvalues --   -0.44947  -0.44822  -0.44668  -0.44500  -0.44343
 Alpha  occ. eigenvalues --   -0.44063  -0.43849  -0.43625  -0.43448  -0.43426
 Alpha  occ. eigenvalues --   -0.43293  -0.43107  -0.43090  -0.42939  -0.42656
 Alpha  occ. eigenvalues --   -0.42579  -0.42371  -0.42084  -0.41670  -0.41396
 Alpha  occ. eigenvalues --   -0.41261  -0.40778  -0.40677  -0.40592  -0.40436
 Alpha  occ. eigenvalues --   -0.40100  -0.39832  -0.39619  -0.39473  -0.39263
 Alpha  occ. eigenvalues --   -0.39207  -0.39033  -0.38898  -0.38849  -0.38831
 Alpha  occ. eigenvalues --   -0.38587  -0.38447  -0.38181  -0.38051  -0.37771
 Alpha  occ. eigenvalues --   -0.37442  -0.37312  -0.37127  -0.37036  -0.36928
 Alpha  occ. eigenvalues --   -0.36697  -0.36621  -0.36564  -0.35769  -0.35634
 Alpha  occ. eigenvalues --   -0.35545  -0.35434  -0.35214  -0.34774  -0.34696
 Alpha  occ. eigenvalues --   -0.34341  -0.34261  -0.34127  -0.33876  -0.33654
 Alpha  occ. eigenvalues --   -0.33633  -0.33272  -0.33154  -0.32615  -0.32308
 Alpha  occ. eigenvalues --   -0.32107  -0.31903  -0.31620  -0.31445  -0.31358
 Alpha  occ. eigenvalues --   -0.31096  -0.30839  -0.30261  -0.29654  -0.29312
 Alpha  occ. eigenvalues --   -0.28983  -0.28792  -0.28113  -0.27263  -0.26488
 Alpha  occ. eigenvalues --   -0.26073  -0.25770  -0.24976  -0.24122  -0.20903
 Alpha  occ. eigenvalues --   -0.19238
 Alpha virt. eigenvalues --   -0.11620  -0.05172  -0.03797  -0.01685  -0.00255
 Alpha virt. eigenvalues --   -0.00228   0.00237   0.00692   0.01813   0.02806
 Alpha virt. eigenvalues --    0.03919   0.04815   0.04980   0.05129   0.05607

 Mulliken charges:
               1
     1  Mg   0.948518
     2  C   -0.028049
     3  C   -0.067722
     4  C   -0.026442
     5  C   -0.024454
     6  N   -0.366712
     7  C   -0.002274
     8  C   -0.112446
     9  C   -0.116579
    10  C    0.108864
    11  C    0.014162
    12  C    0.002414
    13  C   -0.027578
    14  C    0.223645
    15  O   -0.236805
    16  O   -0.412173
    17  N   -0.516898
    18  C    0.143003
    19  C   -0.155260
    20  C   -0.117667
    21  C    0.205044
    22  C    0.043208
    23  C    0.067833
    24  O   -0.236092
    25  C   -0.045292
    26  N   -0.330975
    27  C   -0.021949
    28  C   -0.130444
    29  C   -0.074716
    30  C    0.017441
    31  C    0.037570
    32  C   -0.023038
    33  C   -0.073976
    34  N   -0.494207
    35  C    0.113516
    36  C   -0.182400
    37  C   -0.084297
    38  C    0.204912
    39  C    0.064614
    40  C    0.131912
    41  O   -0.216425
    42  C   -0.122418
    43  C    0.315875
    44  O   -0.232092
    45  O   -0.377553
    46  C    0.102320
    47  C    0.239843
    48  C   -0.134542
    49  C   -0.237449
    50  C    0.022720
    51  C    0.012138
    52  C   -0.102584
    53  C    0.027166
    54  C   -0.245925
    55  C    0.004442
    56  C    0.015466
    57  C   -0.070854
    58  C   -0.016782
    59  C   -0.227377
    60  C    0.036442
    61  C    0.030269
    62  C   -0.094744
    63  C    0.002231
    64  C   -0.238570
    65  C   -0.022590
    66  C   -0.005296
    67  H   -0.008622
    68  H    0.031169
    69  H    0.008359
    70  H    0.057469
    71  H    0.047263
    72  H    0.051148
    73  H    0.039497
    74  H    0.048585
    75  H    0.049192
    76  H    0.048798
    77  H    0.065184
    78  H    0.088133
    79  H    0.065290
    80  H    0.055670
    81  H    0.062200
    82  H    0.063276
    83  H    0.056955
    84  H    0.071540
    85  H    0.045002
    86  H    0.034398
    87  H    0.058019
    88  H    0.041739
    89  H    0.058541
    90  H    0.037082
    91  H    0.046960
    92  H    0.064780
    93  H    0.039078
    94  H    0.046215
    95  H    0.067817
    96  H    0.065303
    97  H    0.039801
    98  H    0.078612
    99  H    0.071101
   100  H    0.051086
   101  H    0.061010
   102  H    0.036465
   103  H    0.055934
   104  H    0.018445
   105  H    0.054056
   106  H    0.052649
   107  H    0.063062
   108  H    0.050030
   109  H    0.024439
   110  H    0.043168
   111  H    0.040807
   112  H    0.042450
   113  H    0.043474
   114  H    0.041729
   115  H    0.023981
   116  H    0.038873
   117  H    0.035137
   118  H    0.017242
   119  H    0.021567
   120  H    0.018848
   121  H    0.033206
   122  H    0.031226
   123  H    0.034068
   124  H    0.035315
   125  H    0.003104
   126  H    0.041407
   127  H    0.031796
   128  H    0.028299
   129  H    0.031114
   130  H    0.013501
   131  H    0.030671
   132  H    0.028974
   133  H    0.015835
   134  H    0.032485
   135  H    0.036891
   136  H    0.030463
   137  H    0.048214
   138  H    0.030542
   139  H    0.031161
   140  H    0.019804
 Sum of Mulliken charges =  -0.00000

 Dipole moment (field-independent basis, Debye):
    X=             -2.8250    Y=              6.5047    Z=             -1.7408  Tot=              7.3022
 Quadrupole moment (field-independent basis, Debye-Ang):
   XX=           -370.3036   YY=           -422.5465   ZZ=           -409.9189
   XY=              5.4697   XZ=             23.5420   YZ=              2.7935

 Normal termination of Gaussian 16 at Wed Apr 27 17:59:14 2022.
