 Gaussian 16, Revision A.03,
 Gaussian 16:  ES64L-G16RevA.03 25-Dec-2016

 --------------------------------
 #p wB97XD/Def2SVP td=(nstates=5)
 --------------------------------

 -----------------------------------------------------
 step_1251_chromophore_25 TDDFT with wB97XD functional
 -----------------------------------------------------
 Symbolic Z-matrix:
 Charge =  0 Multiplicity = 1

                         Standard orientation:
 ---------------------------------------------------------------------
 Center     Atomic      Atomic             Coordinates (Angstroms)
 Number     Number       Type             X           Y           Z
 ---------------------------------------------------------------------
      1         12           0        5.734424    0.486602    0.113395
      2          6           0        3.210900   -2.067676    0.302701
      3          6           0        3.216247    2.583256   -0.904254
      4          6           0        8.128369    2.632009   -0.553900
      5          6           0        8.328540   -1.982000    0.905491
      6          7           0        3.516978    0.178928   -0.293461
      7          6           0        2.679697   -0.831241    0.086736
      8          6           0        1.162344   -0.471359   -0.082516
      9          6           0        1.278841    0.976326   -0.641831
     10          6           0        2.775944    1.289992   -0.612726
     11          6           0        0.527648    1.115651   -2.056389
     12          6           0        0.344965   -0.602865    1.267870
     13          6           0       -0.606085   -1.860300    1.344807
     14          6           0       -2.051842   -1.461921    1.635906
     15          8           0       -2.634953   -1.576625    2.685497
     16          8           0       -2.569462   -1.003840    0.410790
     17          7           0        5.630038    2.455600   -0.482873
     18          6           0        4.544651    3.120420   -0.934973
     19          6           0        4.894219    4.518799   -1.203302
     20          6           0        6.302830    4.466727   -1.315278
     21          6           0        6.796891    3.122117   -0.823055
     22          6           0        3.887406    5.563847   -1.483767
     23          6           0        7.318122    5.513947   -1.804402
     24          8           0        8.539661    5.455386   -1.683502
     25          6           0        6.726470    6.708127   -2.481994
     26          7           0        7.925501    0.284504    0.195583
     27          6           0        8.666740    1.387962   -0.089881
     28          6           0       10.175591    1.082288   -0.002508
     29          6           0       10.184479   -0.233414    0.874720
     30          6           0        8.696465   -0.692440    0.638372
     31          6           0       10.841152    1.048331   -1.411282
     32          6           0       10.457104   -0.035747    2.428110
     33          6           0        9.265821    0.119113    3.422743
     34          7           0        5.818746   -1.588411    0.450046
     35          6           0        6.900773   -2.440080    0.777302
     36          6           0        6.401749   -3.758064    1.044016
     37          6           0        4.961547   -3.651240    0.794002
     38          6           0        4.667255   -2.330383    0.483631
     39          6           0        7.215595   -4.983191    1.379157
     40          6           0        3.798182   -4.496370    0.839568
     41          8           0        3.623255   -5.623930    1.268546
     42          6           0        2.601585   -3.526191    0.457112
     43          6           0        2.024825   -4.065138   -0.743312
     44          8           0        2.619958   -4.356392   -1.761910
     45          8           0        0.690532   -4.302816   -0.425027
     46          6           0       -0.151144   -4.536610   -1.611100
     47          6           0       -3.957345   -0.387006    0.498271
     48          6           0       -4.832153   -0.903819   -0.631197
     49          6           0       -5.824697   -1.832102   -0.571059
     50          6           0       -6.248256   -2.598437    0.689536
     51          6           0       -6.745969   -2.122056   -1.788637
     52          6           0       -8.334293   -1.866293   -1.603522
     53          6           0       -9.001910   -1.312082   -2.848396
     54          6           0      -10.534703   -1.675696   -2.755335
     55          6           0      -10.993055   -2.844415   -3.637208
     56          6           0      -11.368147   -0.405979   -2.999576
     57          6           0      -11.446638    0.515578   -1.723695
     58          6           0      -12.855566    0.787508   -1.161657
     59          6           0      -12.835769    0.837752    0.349243
     60          6           0      -14.240218    0.502185    0.792798
     61          6           0      -12.206837    2.234999    0.739427
     62          6           0      -10.996897    2.016778    1.646164
     63          6           0      -10.980080    2.646529    3.051315
     64          6           0      -10.159341    3.920618    3.164727
     65          6           0       -8.930290    3.614915    4.044635
     66          6           0      -10.925864    5.058494    3.808747
     67          1           0        2.489824    3.367775   -1.124784
     68          1           0        9.002481    3.252230   -0.758611
     69          1           0        9.057528   -2.696231    1.290963
     70          1           0        0.691683   -1.199772   -0.743238
     71          1           0        0.928951    1.724349    0.070482
     72          1           0       -0.329914    1.788679   -2.029894
     73          1           0        0.163571    0.129388   -2.344815
     74          1           0        1.239947    1.360116   -2.843901
     75          1           0       -0.214860    0.319251    1.425061
     76          1           0        1.085167   -0.724896    2.058985
     77          1           0       -0.199706   -2.389835    2.206686
     78          1           0       -0.536049   -2.394879    0.397718
     79          1           0        3.992812    6.404522   -0.798975
     80          1           0        2.829507    5.304560   -1.450686
     81          1           0        4.247047    5.886392   -2.461269
     82          1           0        6.218159    6.279906   -3.346297
     83          1           0        7.584954    7.248827   -2.878999
     84          1           0        6.018161    7.270342   -1.873897
     85          1           0       10.542236    1.911706    0.602565
     86          1           0       10.816368   -0.957091    0.359824
     87          1           0       10.051261    1.405271   -2.071222
     88          1           0       11.110698    0.048400   -1.751269
     89          1           0       11.770768    1.615132   -1.349963
     90          1           0       10.906169    0.952378    2.531854
     91          1           0       11.104112   -0.803889    2.850241
     92          1           0        8.355744    0.450183    2.922310
     93          1           0        9.637307    0.862031    4.128927
     94          1           0        9.092387   -0.784069    4.006466
     95          1           0        7.553497   -5.444738    0.451981
     96          1           0        6.519778   -5.635614    1.907082
     97          1           0        8.063523   -4.738058    2.020604
     98          1           0        1.909672   -3.418236    1.292349
     99          1           0        0.325616   -4.652121   -2.584167
    100          1           0       -0.876948   -3.736854   -1.758245
    101          1           0       -0.696476   -5.457569   -1.405640
    102          1           0       -3.807929    0.681868    0.342154
    103          1           0       -4.390127   -0.492091    1.492638
    104          1           0       -4.634850   -0.397557   -1.575721
    105          1           0       -5.413919   -2.704126    1.383380
    106          1           0       -6.556724   -3.593823    0.366738
    107          1           0       -6.909504   -1.920949    1.228197
    108          1           0       -6.453149   -3.150143   -2.002270
    109          1           0       -6.345513   -1.475633   -2.570316
    110          1           0       -8.388823   -1.101802   -0.828182
    111          1           0       -8.864733   -2.749824   -1.248093
    112          1           0       -8.510680   -1.855816   -3.654915
    113          1           0       -8.751968   -0.256759   -2.740029
    114          1           0      -10.758843   -2.024696   -1.748205
    115          1           0      -10.216371   -3.179224   -4.325559
    116          1           0      -11.849570   -2.641492   -4.279801
    117          1           0      -11.161125   -3.680282   -2.958781
    118          1           0      -12.327333   -0.649199   -3.457136
    119          1           0      -10.878744    0.179952   -3.777498
    120          1           0      -11.092314    1.524150   -1.937275
    121          1           0      -10.723541    0.093908   -1.025577
    122          1           0      -13.577665    0.038324   -1.487474
    123          1           0      -13.071179    1.782193   -1.552965
    124          1           0      -12.126504    0.090707    0.706075
    125          1           0      -14.669694    1.363617    1.303452
    126          1           0      -14.267850   -0.277278    1.553880
    127          1           0      -14.978661    0.452266   -0.006329
    128          1           0      -12.936610    2.884790    1.223424
    129          1           0      -11.775598    2.735512   -0.127319
    130          1           0      -10.249454    2.557922    1.066221
    131          1           0      -10.587761    1.020764    1.813442
    132          1           0      -10.665569    1.896155    3.776722
    133          1           0      -12.038184    2.885081    3.157206
    134          1           0       -9.836510    4.254041    2.178463
    135          1           0       -8.057057    4.238241    3.849753
    136          1           0       -8.645333    2.614146    3.721044
    137          1           0       -9.319029    3.690720    5.060293
    138          1           0      -10.502858    5.426335    4.743607
    139          1           0      -12.003704    4.917690    3.892369
    140          1           0      -10.848949    5.925995    3.153082
 ---------------------------------------------------------------------

 SCF Done:  E(RwB97XD) =  -3007.81501960     A.U. after   19 cycles

 Excitation energies and oscillator strengths:

 Excited State   1:      Singlet-A      1.7037 eV  727.74 nm  f=0.3699  <S**2>=0.000
     245 -> 248        0.16690
     246 -> 247        0.68609
     245 <- 248        0.10599
 This state for optimization and/or second-order correction.
 Total Energy, E(TD-HF/TD-DFT) =  -3007.75241014
 Copying the excited state density for this state as the 1-particle RhoCI density.

 Excited State   2:      Singlet-A      2.1251 eV  583.43 nm  f=0.1883  <S**2>=0.000
     245 -> 247        0.65825
     246 -> 248       -0.22993

 Excited State   3:      Singlet-A      3.0771 eV  402.93 nm  f=0.0090  <S**2>=0.000
     244 -> 247        0.68405

 Excited State   4:      Singlet-A      3.4690 eV  357.41 nm  f=0.0093  <S**2>=0.000
     239 -> 247       -0.15095
     240 -> 247        0.16050
     241 -> 247        0.59816
     246 -> 248        0.22274

 Excited State   5:      Singlet-A      3.5961 eV  344.78 nm  f=0.0202  <S**2>=0.000
     239 -> 247        0.37835
     239 -> 248       -0.10975
     239 -> 249        0.19407
     240 -> 247        0.36010
     240 -> 248       -0.12856
     240 -> 249        0.22962
     243 -> 247       -0.19065
     246 -> 248       -0.13637

 The electronic state is 1-A.
 Alpha  occ. eigenvalues --  -46.95819 -19.30257 -19.29497 -19.25313 -19.25114
 Alpha  occ. eigenvalues --  -19.24815 -19.22874 -14.46927 -14.46471 -14.45253
 Alpha  occ. eigenvalues --  -14.43207 -10.43003 -10.42595 -10.39984 -10.37679
 Alpha  occ. eigenvalues --  -10.36683 -10.36012 -10.35895 -10.35836 -10.35652
 Alpha  occ. eigenvalues --  -10.34889 -10.34633 -10.34584 -10.33476 -10.33212
 Alpha  occ. eigenvalues --  -10.32898 -10.32677 -10.32599 -10.32555 -10.32482
 Alpha  occ. eigenvalues --  -10.32295 -10.32062 -10.32042 -10.31959 -10.31792
 Alpha  occ. eigenvalues --  -10.31660 -10.31380 -10.31185 -10.30975 -10.30773
 Alpha  occ. eigenvalues --  -10.30762 -10.30636 -10.30568 -10.30542 -10.30537
 Alpha  occ. eigenvalues --  -10.30142 -10.30056 -10.29929 -10.29884 -10.29783
 Alpha  occ. eigenvalues --  -10.29402 -10.29131 -10.29058 -10.29053 -10.29007
 Alpha  occ. eigenvalues --  -10.28762 -10.28648 -10.28592 -10.28529 -10.28257
 Alpha  occ. eigenvalues --  -10.28133 -10.28071 -10.27983 -10.27935 -10.27702
 Alpha  occ. eigenvalues --  -10.27656  -3.21646  -1.95248  -1.94786  -1.94581
 Alpha  occ. eigenvalues --   -1.17828  -1.17009  -1.12929  -1.10985  -1.10189
 Alpha  occ. eigenvalues --   -1.09717  -1.06670  -1.06125  -1.05364  -1.02564
 Alpha  occ. eigenvalues --   -0.92930  -0.92488  -0.91856  -0.91538  -0.90983
 Alpha  occ. eigenvalues --   -0.90653  -0.90034  -0.89976  -0.89771  -0.89216
 Alpha  occ. eigenvalues --   -0.87182  -0.86416  -0.85914  -0.85350  -0.84946
 Alpha  occ. eigenvalues --   -0.84750  -0.84538  -0.83117  -0.82569  -0.82342
 Alpha  occ. eigenvalues --   -0.81846  -0.81130  -0.79274  -0.78743  -0.77907
 Alpha  occ. eigenvalues --   -0.77678  -0.77522  -0.77410  -0.77077  -0.76195
 Alpha  occ. eigenvalues --   -0.74748  -0.74224  -0.73446  -0.72072  -0.70749
 Alpha  occ. eigenvalues --   -0.70057  -0.69768  -0.69048  -0.68005  -0.67789
 Alpha  occ. eigenvalues --   -0.67416  -0.67160  -0.66565  -0.66327  -0.65896
 Alpha  occ. eigenvalues --   -0.65599  -0.64805  -0.64520  -0.63404  -0.62454
 Alpha  occ. eigenvalues --   -0.61475  -0.61120  -0.60560  -0.60151  -0.59734
 Alpha  occ. eigenvalues --   -0.59158  -0.58872  -0.58447  -0.57146  -0.57039
 Alpha  occ. eigenvalues --   -0.56986  -0.56800  -0.56470  -0.56361  -0.55944
 Alpha  occ. eigenvalues --   -0.55684  -0.55632  -0.55357  -0.55141  -0.54902
 Alpha  occ. eigenvalues --   -0.54814  -0.54385  -0.54252  -0.54014  -0.53834
 Alpha  occ. eigenvalues --   -0.53630  -0.53503  -0.53352  -0.52776  -0.52601
 Alpha  occ. eigenvalues --   -0.52320  -0.52151  -0.51964  -0.51850  -0.51637
 Alpha  occ. eigenvalues --   -0.51317  -0.51096  -0.51010  -0.50752  -0.50485
 Alpha  occ. eigenvalues --   -0.50455  -0.50420  -0.50373  -0.50234  -0.50066
 Alpha  occ. eigenvalues --   -0.49937  -0.49812  -0.49346  -0.48811  -0.48684
 Alpha  occ. eigenvalues --   -0.48491  -0.47973  -0.47917  -0.47788  -0.47472
 Alpha  occ. eigenvalues --   -0.47276  -0.46924  -0.46788  -0.46640  -0.46426
 Alpha  occ. eigenvalues --   -0.46274  -0.46103  -0.46086  -0.46059  -0.45835
 Alpha  occ. eigenvalues --   -0.45686  -0.45622  -0.45456  -0.45093  -0.44959
 Alpha  occ. eigenvalues --   -0.44759  -0.44429  -0.44300  -0.43981  -0.43893
 Alpha  occ. eigenvalues --   -0.43802  -0.43747  -0.43484  -0.42743  -0.42657
 Alpha  occ. eigenvalues --   -0.42547  -0.42481  -0.42206  -0.41764  -0.41626
 Alpha  occ. eigenvalues --   -0.41410  -0.41207  -0.41073  -0.40939  -0.40658
 Alpha  occ. eigenvalues --   -0.40615  -0.40339  -0.40217  -0.39619  -0.39289
 Alpha  occ. eigenvalues --   -0.39082  -0.38967  -0.38641  -0.38400  -0.38350
 Alpha  occ. eigenvalues --   -0.38015  -0.37775  -0.37224  -0.36657  -0.36270
 Alpha  occ. eigenvalues --   -0.35675  -0.35638  -0.34641  -0.34067  -0.33788
 Alpha  occ. eigenvalues --   -0.33134  -0.32461  -0.31632  -0.30134  -0.25899
 Alpha  occ. eigenvalues --   -0.23537
 Alpha virt. eigenvalues --   -0.07535   0.00365   0.02349   0.04938   0.05664
 Alpha virt. eigenvalues --    0.06445   0.07060   0.07585   0.08602   0.09208
 Alpha virt. eigenvalues --    0.10275   0.11511   0.11839   0.11883   0.12336

 Mulliken charges:
               1
     1  Mg   0.938124
     2  C   -0.036592
     3  C   -0.089921
     4  C   -0.042590
     5  C   -0.040483
     6  N   -0.334334
     7  C   -0.027789
     8  C   -0.082462
     9  C   -0.094643
    10  C    0.103061
    11  C    0.026054
    12  C    0.008158
    13  C    0.003020
    14  C    0.213723
    15  O   -0.234324
    16  O   -0.413671
    17  N   -0.491573
    18  C    0.142054
    19  C   -0.143591
    20  C   -0.107919
    21  C    0.199987
    22  C    0.054826
    23  C    0.063308
    24  O   -0.227282
    25  C   -0.032658
    26  N   -0.295723
    27  C   -0.028418
    28  C   -0.105661
    29  C   -0.050305
    30  C    0.002668
    31  C    0.047193
    32  C   -0.014829
    33  C   -0.050065
    34  N   -0.459118
    35  C    0.097469
    36  C   -0.183615
    37  C   -0.081060
    38  C    0.183437
    39  C    0.077845
    40  C    0.117399
    41  O   -0.209942
    42  C   -0.078372
    43  C    0.289808
    44  O   -0.227261
    45  O   -0.375268
    46  C    0.118152
    47  C    0.254587
    48  C   -0.142943
    49  C   -0.227166
    50  C    0.035574
    51  C    0.029570
    52  C   -0.080965
    53  C    0.038312
    54  C   -0.209722
    55  C    0.013642
    56  C    0.029056
    57  C   -0.051128
    58  C    0.008668
    59  C   -0.198921
    60  C    0.047375
    61  C    0.043575
    62  C   -0.077403
    63  C    0.020618
    64  C   -0.210006
    65  C   -0.006748
    66  C    0.004616
    67  H   -0.018111
    68  H    0.026852
    69  H    0.004606
    70  H    0.039333
    71  H    0.036736
    72  H    0.046844
    73  H    0.035036
    74  H    0.042313
    75  H    0.040586
    76  H    0.041111
    77  H    0.060565
    78  H    0.068264
    79  H    0.062784
    80  H    0.056280
    81  H    0.055913
    82  H    0.057289
    83  H    0.057268
    84  H    0.067322
    85  H    0.034076
    86  H    0.025853
    87  H    0.050114
    88  H    0.037809
    89  H    0.054525
    90  H    0.026795
    91  H    0.041325
    92  H    0.050845
    93  H    0.033078
    94  H    0.041211
    95  H    0.060699
    96  H    0.059325
    97  H    0.031740
    98  H    0.066488
    99  H    0.067221
   100  H    0.047053
   101  H    0.057016
   102  H    0.032456
   103  H    0.051118
   104  H    0.015707
   105  H    0.048515
   106  H    0.048151
   107  H    0.057370
   108  H    0.041892
   109  H    0.015511
   110  H    0.031425
   111  H    0.031294
   112  H    0.032605
   113  H    0.035190
   114  H    0.026149
   115  H    0.017623
   116  H    0.033695
   117  H    0.029929
   118  H    0.008731
   119  H    0.012253
   120  H    0.010045
   121  H    0.014511
   122  H    0.020975
   123  H    0.023306
   124  H    0.020639
   125  H   -0.004109
   126  H    0.037216
   127  H    0.026022
   128  H    0.019296
   129  H    0.020819
   130  H    0.001825
   131  H    0.023196
   132  H    0.021303
   133  H    0.002031
   134  H    0.021322
   135  H    0.032054
   136  H    0.021941
   137  H    0.040502
   138  H    0.024574
   139  H    0.025503
   140  H    0.013848
 Sum of Mulliken charges =  -0.00000

 Dipole moment (field-independent basis, Debye):
    X=             -2.8011    Y=              7.7373    Z=             -2.1169  Tot=              8.4966
 Quadrupole moment (field-independent basis, Debye-Ang):
   XX=           -370.3595   YY=           -420.4411   ZZ=           -409.3931
   XY=             12.8072   XZ=             21.2651   YZ=              2.1846

 Normal termination of Gaussian 16 at Wed Apr 27 18:28:17 2022.
