 Gaussian 16, Revision A.03,
 Gaussian 16:  ES64L-G16RevA.03 25-Dec-2016

 --------------------
 #p ZINDO=(nstates=5)
 --------------------

 ------------------------------
 step_1251_chromophore_25 ZINDO
 ------------------------------
 Symbolic Z-matrix:
 Charge =  0 Multiplicity = 1

                         Standard orientation:
 ---------------------------------------------------------------------
 Center     Atomic      Atomic             Coordinates (Angstroms)
 Number     Number       Type             X           Y           Z
 ---------------------------------------------------------------------
      1         12           0        5.734424    0.486602    0.113395
      2          6           0        3.210900   -2.067676    0.302701
      3          6           0        3.216247    2.583256   -0.904254
      4          6           0        8.128369    2.632009   -0.553900
      5          6           0        8.328540   -1.982000    0.905491
      6          7           0        3.516978    0.178928   -0.293461
      7          6           0        2.679697   -0.831241    0.086736
      8          6           0        1.162344   -0.471359   -0.082516
      9          6           0        1.278841    0.976326   -0.641831
     10          6           0        2.775944    1.289992   -0.612726
     11          6           0        0.527648    1.115651   -2.056389
     12          6           0        0.344965   -0.602865    1.267870
     13          6           0       -0.606085   -1.860300    1.344807
     14          6           0       -2.051842   -1.461921    1.635906
     15          8           0       -2.634953   -1.576625    2.685497
     16          8           0       -2.569462   -1.003840    0.410790
     17          7           0        5.630038    2.455600   -0.482873
     18          6           0        4.544651    3.120420   -0.934973
     19          6           0        4.894219    4.518799   -1.203302
     20          6           0        6.302830    4.466727   -1.315278
     21          6           0        6.796891    3.122117   -0.823055
     22          6           0        3.887406    5.563847   -1.483767
     23          6           0        7.318122    5.513947   -1.804402
     24          8           0        8.539661    5.455386   -1.683502
     25          6           0        6.726470    6.708127   -2.481994
     26          7           0        7.925501    0.284504    0.195583
     27          6           0        8.666740    1.387962   -0.089881
     28          6           0       10.175591    1.082288   -0.002508
     29          6           0       10.184479   -0.233414    0.874720
     30          6           0        8.696465   -0.692440    0.638372
     31          6           0       10.841152    1.048331   -1.411282
     32          6           0       10.457104   -0.035747    2.428110
     33          6           0        9.265821    0.119113    3.422743
     34          7           0        5.818746   -1.588411    0.450046
     35          6           0        6.900773   -2.440080    0.777302
     36          6           0        6.401749   -3.758064    1.044016
     37          6           0        4.961547   -3.651240    0.794002
     38          6           0        4.667255   -2.330383    0.483631
     39          6           0        7.215595   -4.983191    1.379157
     40          6           0        3.798182   -4.496370    0.839568
     41          8           0        3.623255   -5.623930    1.268546
     42          6           0        2.601585   -3.526191    0.457112
     43          6           0        2.024825   -4.065138   -0.743312
     44          8           0        2.619958   -4.356392   -1.761910
     45          8           0        0.690532   -4.302816   -0.425027
     46          6           0       -0.151144   -4.536610   -1.611100
     47          6           0       -3.957345   -0.387006    0.498271
     48          6           0       -4.832153   -0.903819   -0.631197
     49          6           0       -5.824697   -1.832102   -0.571059
     50          6           0       -6.248256   -2.598437    0.689536
     51          6           0       -6.745969   -2.122056   -1.788637
     52          6           0       -8.334293   -1.866293   -1.603522
     53          6           0       -9.001910   -1.312082   -2.848396
     54          6           0      -10.534703   -1.675696   -2.755335
     55          6           0      -10.993055   -2.844415   -3.637208
     56          6           0      -11.368147   -0.405979   -2.999576
     57          6           0      -11.446638    0.515578   -1.723695
     58          6           0      -12.855566    0.787508   -1.161657
     59          6           0      -12.835769    0.837752    0.349243
     60          6           0      -14.240218    0.502185    0.792798
     61          6           0      -12.206837    2.234999    0.739427
     62          6           0      -10.996897    2.016778    1.646164
     63          6           0      -10.980080    2.646529    3.051315
     64          6           0      -10.159341    3.920618    3.164727
     65          6           0       -8.930290    3.614915    4.044635
     66          6           0      -10.925864    5.058494    3.808747
     67          1           0        2.489824    3.367775   -1.124784
     68          1           0        9.002481    3.252230   -0.758611
     69          1           0        9.057528   -2.696231    1.290963
     70          1           0        0.691683   -1.199772   -0.743238
     71          1           0        0.928951    1.724349    0.070482
     72          1           0       -0.329914    1.788679   -2.029894
     73          1           0        0.163571    0.129388   -2.344815
     74          1           0        1.239947    1.360116   -2.843901
     75          1           0       -0.214860    0.319251    1.425061
     76          1           0        1.085167   -0.724896    2.058985
     77          1           0       -0.199706   -2.389835    2.206686
     78          1           0       -0.536049   -2.394879    0.397718
     79          1           0        3.992812    6.404522   -0.798975
     80          1           0        2.829507    5.304560   -1.450686
     81          1           0        4.247047    5.886392   -2.461269
     82          1           0        6.218159    6.279906   -3.346297
     83          1           0        7.584954    7.248827   -2.878999
     84          1           0        6.018161    7.270342   -1.873897
     85          1           0       10.542236    1.911706    0.602565
     86          1           0       10.816368   -0.957091    0.359824
     87          1           0       10.051261    1.405271   -2.071222
     88          1           0       11.110698    0.048400   -1.751269
     89          1           0       11.770768    1.615132   -1.349963
     90          1           0       10.906169    0.952378    2.531854
     91          1           0       11.104112   -0.803889    2.850241
     92          1           0        8.355744    0.450183    2.922310
     93          1           0        9.637307    0.862031    4.128927
     94          1           0        9.092387   -0.784069    4.006466
     95          1           0        7.553497   -5.444738    0.451981
     96          1           0        6.519778   -5.635614    1.907082
     97          1           0        8.063523   -4.738058    2.020604
     98          1           0        1.909672   -3.418236    1.292349
     99          1           0        0.325616   -4.652121   -2.584167
    100          1           0       -0.876948   -3.736854   -1.758245
    101          1           0       -0.696476   -5.457569   -1.405640
    102          1           0       -3.807929    0.681868    0.342154
    103          1           0       -4.390127   -0.492091    1.492638
    104          1           0       -4.634850   -0.397557   -1.575721
    105          1           0       -5.413919   -2.704126    1.383380
    106          1           0       -6.556724   -3.593823    0.366738
    107          1           0       -6.909504   -1.920949    1.228197
    108          1           0       -6.453149   -3.150143   -2.002270
    109          1           0       -6.345513   -1.475633   -2.570316
    110          1           0       -8.388823   -1.101802   -0.828182
    111          1           0       -8.864733   -2.749824   -1.248093
    112          1           0       -8.510680   -1.855816   -3.654915
    113          1           0       -8.751968   -0.256759   -2.740029
    114          1           0      -10.758843   -2.024696   -1.748205
    115          1           0      -10.216371   -3.179224   -4.325559
    116          1           0      -11.849570   -2.641492   -4.279801
    117          1           0      -11.161125   -3.680282   -2.958781
    118          1           0      -12.327333   -0.649199   -3.457136
    119          1           0      -10.878744    0.179952   -3.777498
    120          1           0      -11.092314    1.524150   -1.937275
    121          1           0      -10.723541    0.093908   -1.025577
    122          1           0      -13.577665    0.038324   -1.487474
    123          1           0      -13.071179    1.782193   -1.552965
    124          1           0      -12.126504    0.090707    0.706075
    125          1           0      -14.669694    1.363617    1.303452
    126          1           0      -14.267850   -0.277278    1.553880
    127          1           0      -14.978661    0.452266   -0.006329
    128          1           0      -12.936610    2.884790    1.223424
    129          1           0      -11.775598    2.735512   -0.127319
    130          1           0      -10.249454    2.557922    1.066221
    131          1           0      -10.587761    1.020764    1.813442
    132          1           0      -10.665569    1.896155    3.776722
    133          1           0      -12.038184    2.885081    3.157206
    134          1           0       -9.836510    4.254041    2.178463
    135          1           0       -8.057057    4.238241    3.849753
    136          1           0       -8.645333    2.614146    3.721044
    137          1           0       -9.319029    3.690720    5.060293
    138          1           0      -10.502858    5.426335    4.743607
    139          1           0      -12.003704    4.917690    3.892369
    140          1           0      -10.848949    5.925995    3.153082
 ---------------------------------------------------------------------

 SCF Done:  E(RZINDO/S) =  -473.929048796     A.U. after   18 cycles

 Excitation energies and oscillator strengths:

 Excited State   1:      Singlet-A      1.3618 eV  910.42 nm  f=0.5312  <S**2>=0.000
     175 ->178         0.14194
     176 ->177         0.67376
 This state for optimization and/or second-order correction.
 Total Energy, E(CIS/TDA) =  -473.879002184
 Copying the excited state density for this state as the 1-particle RhoCI density.

 Excited State   2:      Singlet-A      1.9285 eV  642.90 nm  f=0.1327  <S**2>=0.000
     175 ->177         0.58809
     176 ->178        -0.33061

 Excited State   3:      Singlet-A      2.9775 eV  416.40 nm  f=0.0237  <S**2>=0.000
     167 ->177         0.28787
     167 ->178        -0.19860
     167 ->179        -0.37477
     167 ->180         0.15318
     167 ->183        -0.16656
     167 ->185        -0.13580
     168 ->177        -0.18295
     168 ->178         0.11225
     168 ->179         0.20735

 Excited State   4:      Singlet-A      3.0045 eV  412.66 nm  f=0.6494  <S**2>=0.000
     169 ->177         0.21241
     174 ->177         0.20482
     175 ->177         0.30096
     176 ->178         0.52556

 Excited State   5:      Singlet-A      3.0731 eV  403.45 nm  f=0.0917  <S**2>=0.000
     171 ->179         0.12805
     171 ->180         0.22591
     171 ->185         0.14326
     172 ->177         0.14564
     172 ->179         0.10986
     172 ->180         0.15218
     174 ->177         0.44417
     176 ->178        -0.19162

 The electronic state is 1-A.
 Alpha  occ. eigenvalues --   -1.81603  -1.80007  -1.79469  -1.71794  -1.70305
 Alpha  occ. eigenvalues --   -1.68481  -1.67485  -1.62063  -1.59992  -1.57146
 Alpha  occ. eigenvalues --   -1.56128  -1.50865  -1.47119  -1.46295  -1.45572
 Alpha  occ. eigenvalues --   -1.44202  -1.43088  -1.40866  -1.39272  -1.37620
 Alpha  occ. eigenvalues --   -1.35530  -1.33721  -1.32282  -1.30874  -1.28854
 Alpha  occ. eigenvalues --   -1.28352  -1.24083  -1.22824  -1.20458  -1.17177
 Alpha  occ. eigenvalues --   -1.16888  -1.16644  -1.15212  -1.14732  -1.13675
 Alpha  occ. eigenvalues --   -1.12861  -1.11208  -1.09967  -1.04950  -1.03169
 Alpha  occ. eigenvalues --   -1.01397  -1.00654  -0.98378  -0.97327  -0.95535
 Alpha  occ. eigenvalues --   -0.94887  -0.94375  -0.93701  -0.92651  -0.92382
 Alpha  occ. eigenvalues --   -0.91348  -0.90089  -0.89157  -0.88496  -0.87894
 Alpha  occ. eigenvalues --   -0.84686  -0.83410  -0.82618  -0.81080  -0.79894
 Alpha  occ. eigenvalues --   -0.79010  -0.78921  -0.77952  -0.76954  -0.76034
 Alpha  occ. eigenvalues --   -0.75782  -0.75570  -0.74961  -0.74322  -0.73945
 Alpha  occ. eigenvalues --   -0.73239  -0.72375  -0.72083  -0.71896  -0.71504
 Alpha  occ. eigenvalues --   -0.70834  -0.69820  -0.69491  -0.68751  -0.68305
 Alpha  occ. eigenvalues --   -0.67494  -0.66913  -0.66578  -0.65835  -0.65088
 Alpha  occ. eigenvalues --   -0.64834  -0.64668  -0.64402  -0.64176  -0.63809
 Alpha  occ. eigenvalues --   -0.63359  -0.63012  -0.62931  -0.62564  -0.61701
 Alpha  occ. eigenvalues --   -0.61465  -0.61012  -0.60913  -0.60726  -0.60023
 Alpha  occ. eigenvalues --   -0.59701  -0.59502  -0.59006  -0.58744  -0.58579
 Alpha  occ. eigenvalues --   -0.57599  -0.56834  -0.56681  -0.56326  -0.56003
 Alpha  occ. eigenvalues --   -0.55796  -0.55614  -0.55356  -0.55279  -0.54930
 Alpha  occ. eigenvalues --   -0.54635  -0.54030  -0.53664  -0.53228  -0.53037
 Alpha  occ. eigenvalues --   -0.52253  -0.52089  -0.51419  -0.51163  -0.51064
 Alpha  occ. eigenvalues --   -0.50783  -0.50747  -0.50456  -0.50313  -0.50167
 Alpha  occ. eigenvalues --   -0.50088  -0.49860  -0.49028  -0.48939  -0.48569
 Alpha  occ. eigenvalues --   -0.48448  -0.48290  -0.48119  -0.48027  -0.47720
 Alpha  occ. eigenvalues --   -0.47287  -0.46959  -0.46930  -0.46566  -0.46379
 Alpha  occ. eigenvalues --   -0.46313  -0.46084  -0.45908  -0.45459  -0.45049
 Alpha  occ. eigenvalues --   -0.44877  -0.44845  -0.44682  -0.44417  -0.43958
 Alpha  occ. eigenvalues --   -0.43898  -0.43705  -0.42423  -0.42313  -0.42099
 Alpha  occ. eigenvalues --   -0.41747  -0.41237  -0.41040  -0.39061  -0.38661
 Alpha  occ. eigenvalues --   -0.37941  -0.36947  -0.36253  -0.34379  -0.33701
 Alpha  occ. eigenvalues --   -0.33225  -0.32733  -0.32605  -0.30285  -0.26601
 Alpha  occ. eigenvalues --   -0.22360
 Alpha virt. eigenvalues --   -0.08712  -0.01948  -0.00884   0.01406   0.02208
 Alpha virt. eigenvalues --    0.02384   0.03491   0.03541   0.04580   0.04635
 Alpha virt. eigenvalues --    0.05338   0.06440   0.06929   0.07454   0.07593

 Mulliken charges:
               1
     1  Mg   0.429607
     2  C   -0.037510
     3  C   -0.112798
     4  C   -0.070809
     5  C   -0.066668
     6  N   -0.296326
     7  C    0.092349
     8  C   -0.005694
     9  C    0.002759
    10  C    0.182348
    11  C   -0.052850
    12  C   -0.029555
    13  C   -0.004194
    14  C    0.469967
    15  O   -0.499183
    16  O   -0.289066
    17  N   -0.323791
    18  C    0.153570
    19  C    0.043614
    20  C   -0.033801
    21  C    0.141567
    22  C   -0.036813
    23  C    0.328743
    24  O   -0.510503
    25  C   -0.035002
    26  N   -0.259791
    27  C    0.171788
    28  C    0.004678
    29  C   -0.009764
    30  C    0.101970
    31  C   -0.047093
    32  C   -0.030771
    33  C   -0.055467
    34  N   -0.329838
    35  C    0.039555
    36  C   -0.008466
    37  C   -0.069583
    38  C    0.098239
    39  C   -0.037888
    40  C    0.335714
    41  O   -0.530968
    42  C    0.050964
    43  C    0.501896
    44  O   -0.511480
    45  O   -0.273848
    46  C    0.068311
    47  C    0.099845
    48  C   -0.099644
    49  C   -0.000346
    50  C   -0.048757
    51  C   -0.037671
    52  C   -0.035036
    53  C   -0.036979
    54  C   -0.009455
    55  C   -0.058704
    56  C   -0.039652
    57  C   -0.047749
    58  C   -0.031707
    59  C   -0.011800
    60  C   -0.060612
    61  C   -0.029561
    62  C   -0.049224
    63  C   -0.036609
    64  C   -0.005927
    65  C   -0.061380
    66  C   -0.059461
    67  H    0.022189
    68  H    0.041932
    69  H    0.037995
    70  H    0.038845
    71  H    0.032425
    72  H    0.027965
    73  H    0.023161
    74  H    0.025511
    75  H    0.027951
    76  H    0.027621
    77  H    0.041191
    78  H    0.054728
    79  H    0.033583
    80  H    0.039015
    81  H    0.036977
    82  H    0.032852
    83  H    0.041337
    84  H    0.046544
    85  H    0.029042
    86  H    0.032119
    87  H    0.034643
    88  H    0.024564
    89  H    0.029427
    90  H    0.015239
    91  H    0.026851
    92  H    0.034073
    93  H    0.012693
    94  H    0.023100
    95  H    0.035452
    96  H    0.033040
    97  H    0.021633
    98  H    0.047069
    99  H    0.052697
   100  H    0.028711
   101  H    0.034079
   102  H    0.029737
   103  H    0.056854
   104  H    0.024963
   105  H    0.023676
   106  H    0.034823
   107  H    0.039374
   108  H    0.030596
   109  H    0.018017
   110  H    0.016172
   111  H    0.025760
   112  H    0.029616
   113  H    0.033527
   114  H    0.021147
   115  H    0.012863
   116  H    0.024497
   117  H    0.017144
   118  H    0.018853
   119  H    0.009363
   120  H    0.012106
   121  H    0.021704
   122  H    0.018660
   123  H    0.021468
   124  H    0.023936
   125  H    0.003535
   126  H    0.024573
   127  H    0.028161
   128  H    0.025977
   129  H    0.024098
   130  H    0.005273
   131  H    0.023699
   132  H    0.023169
   133  H    0.014402
   134  H    0.022782
   135  H    0.017786
   136  H    0.013747
   137  H    0.030418
   138  H    0.020508
   139  H    0.019678
   140  H    0.003397
 Sum of Mulliken charges =  -0.00000

 Dipole moment (field-independent basis, Debye):
    X=             -3.4172    Y=             13.7286    Z=             -3.2997  Tot=             14.5272
 N-N= 4.302237276362D+03 E-N= 0.000000000000D+00  KE=-9.278591450759D+03
 Leave Link  601 at Wed Apr 27 18:42:41 2022, MaxMem=  6710886400 cpu:               0.8 elap:               0.0
 (Enter /sw/apps/gaussian-16.0/g16/l9999.exe)
 1\1\GINC-BP1-COMPUTE070\SP\RZINDO CIS\STO-3G\C55H74Mg1N4O6\OF15641\27-
 Apr-2022\0\\#p ZINDO=(nstates=5)\\step_1251_chromophore_25 ZINDO\\0,1\
 Mg,0,-2.183,34.721,26.636\C,0,-3.292,32.914,29.54\C,0,-0.827,36.978,28
 .836\C,0,-1.655,36.6,23.996\C,0,-3.97,32.371,24.46\N,0,-2.178,34.877,2
 8.906\C,0,-2.447,33.935,29.858\C,0,-1.968,34.353,31.292\C,0,-1.35,35.7
 48,30.985\C,0,-1.444,35.894,29.465\C,0,-2.036,36.897,31.876\C,0,-0.969
 ,33.306,31.936\C,0,-1.591,32.419,33.084\C,0,-0.791,32.526,34.381\O,0,-

 Normal termination of Gaussian 16 at Wed Apr 27 18:42:41 2022.
