 Gaussian 16, Revision A.03,
 Gaussian 16:  ES64L-G16RevA.03 25-Dec-2016

 ------------------------------
 #p blyp/Def2SVP td=(nstates=5)
 ------------------------------

 ---------------------------------------------------
 step_1001_chromophore_14 TDDFT with blyp functional
 ---------------------------------------------------
 Symbolic Z-matrix:
 Charge =  0 Multiplicity = 1

                         Standard orientation:
 ---------------------------------------------------------------------
 Center     Atomic      Atomic             Coordinates (Angstroms)
 Number     Number       Type             X           Y           Z
 ---------------------------------------------------------------------
      1         12           0        5.271240    0.821155    0.144256
      2          6           0        4.718637   -2.618053    0.501354
      3          6           0        4.489661    0.547775   -3.280204
      4          6           0        5.318954    4.242526   -0.217687
      5          6           0        5.653057    1.089105    3.523704
      6          7           0        4.522849   -0.827214   -1.237586
      7          6           0        4.455061   -2.120264   -0.879579
      8          6           0        4.092918   -3.064031   -2.102876
      9          6           0        4.327623   -2.079152   -3.303958
     10          6           0        4.336982   -0.688795   -2.565456
     11          6           0        5.654183   -2.341589   -3.966591
     12          6           0        2.663381   -3.714885   -2.033368
     13          6           0        1.514553   -2.851182   -1.486735
     14          6           0        0.068522   -3.361514   -1.730129
     15          8           0       -0.221471   -4.477944   -2.081758
     16          8           0       -0.867993   -2.403557   -1.423038
     17          7           0        4.941758    2.252361   -1.536750
     18          6           0        4.740564    1.883688   -2.883816
     19          6           0        4.780876    3.063568   -3.690657
     20          6           0        5.049180    4.182474   -2.818216
     21          6           0        5.142489    3.555913   -1.449539
     22          6           0        4.504557    3.104260   -5.158082
     23          6           0        5.224078    5.596298   -3.344525
     24          8           0        5.134296    5.862273   -4.514714
     25          6           0        5.399186    6.760796   -2.399381
     26          7           0        5.223505    2.501598    1.542948
     27          6           0        5.561763    3.711736    1.102908
     28          6           0        6.024225    4.614567    2.251900
     29          6           0        5.857977    3.612551    3.510340
     30          6           0        5.527790    2.285540    2.835234
     31          6           0        7.529622    5.144396    1.953707
     32          6           0        4.774205    4.015582    4.626524
     33          6           0        5.321020    4.666274    5.868360
     34          7           0        5.176144   -0.405378    1.690751
     35          6           0        5.371106   -0.200366    3.026221
     36          6           0        5.286560   -1.477434    3.780158
     37          6           0        5.027942   -2.441874    2.802400
     38          6           0        4.982494   -1.735979    1.550134
     39          6           0        5.377615   -1.698662    5.226638
     40          6           0        4.850721   -3.846088    2.528287
     41          8           0        4.860390   -4.775052    3.313012
     42          6           0        4.637591   -4.034409    1.022534
     43          6           0        5.735128   -4.921502    0.532532
     44          8           0        5.573939   -6.081688    0.128317
     45          8           0        6.957469   -4.253127    0.703183
     46          6           0        8.121512   -5.171203    0.409563
     47          6           0       -2.190124   -3.000243   -1.230261
     48          6           0       -3.186813   -1.868077   -1.121974
     49          6           0       -3.975395   -1.321784   -2.092086
     50          6           0       -3.812292   -1.635022   -3.618172
     51          6           0       -4.893830   -0.243501   -1.690599
     52          6           0       -6.401099   -0.626180   -1.285031
     53          6           0       -6.694889   -0.645978    0.252962
     54          6           0       -7.905583    0.344240    0.636277
     55          6           0       -7.412298    1.516155    1.462867
     56          6           0       -9.119427   -0.360865    1.343293
     57          6           0      -10.191828   -0.843180    0.311279
     58          6           0      -11.360864   -1.520234    1.023810
     59          6           0      -12.536901   -0.508509    1.271647
     60          6           0      -13.190273   -0.803371    2.638816
     61          6           0      -13.642615   -0.556632    0.198882
     62          6           0      -14.282299    0.809281   -0.020183
     63          6           0      -15.806880    0.917335   -0.324599
     64          6           0      -16.409517    2.225820    0.167261
     65          6           0      -17.148347    2.125612    1.563614
     66          6           0      -17.404455    2.806386   -0.863056
     67          1           0        4.582957    0.330371   -4.345435
     68          1           0        5.440473    5.326992   -0.274464
     69          1           0        6.032902    1.139792    4.546542
     70          1           0        4.734378   -3.938272   -2.220770
     71          1           0        3.577208   -2.095957   -4.094529
     72          1           0        5.803098   -3.408130   -4.129636
     73          1           0        6.487024   -1.835048   -3.477694
     74          1           0        5.584977   -1.895540   -4.959312
     75          1           0        2.907073   -4.579452   -1.416615
     76          1           0        2.322183   -3.992256   -3.030831
     77          1           0        1.607080   -1.848822   -1.905015
     78          1           0        1.727526   -2.877386   -0.418206
     79          1           0        3.573543    3.621702   -5.390715
     80          1           0        4.482154    2.121949   -5.630333
     81          1           0        5.446560    3.457208   -5.577554
     82          1           0        6.298703    6.399970   -1.900736
     83          1           0        4.533225    7.015338   -1.788948
     84          1           0        5.608511    7.687528   -2.935162
     85          1           0        5.262450    5.387956    2.350582
     86          1           0        6.817596    3.426968    3.994164
     87          1           0        8.094436    5.005166    2.874888
     88          1           0        7.529508    6.221077    1.784063
     89          1           0        7.963042    4.595745    1.117222
     90          1           0        4.316806    3.122073    5.051468
     91          1           0        3.953829    4.644792    4.281904
     92          1           0        6.408904    4.645752    5.926568
     93          1           0        5.028619    4.107159    6.757079
     94          1           0        5.086236    5.714656    6.049345
     95          1           0        6.318045   -2.166833    5.518927
     96          1           0        4.595617   -2.425168    5.450129
     97          1           0        5.306184   -0.877373    5.939724
     98          1           0        3.657585   -4.454398    0.798227
     99          1           0        8.035150   -5.550090   -0.608749
    100          1           0        8.069583   -6.034347    1.074216
    101          1           0        9.082782   -4.669756    0.528264
    102          1           0       -2.354200   -3.596896   -0.333208
    103          1           0       -2.543970   -3.553506   -2.100302
    104          1           0       -3.277873   -1.526874   -0.090799
    105          1           0       -4.706486   -2.208315   -3.864735
    106          1           0       -3.024258   -2.336818   -3.890161
    107          1           0       -3.827856   -0.765765   -4.276165
    108          1           0       -4.980270    0.485773   -2.496468
    109          1           0       -4.440267    0.223619   -0.816697
    110          1           0       -6.712403   -1.567021   -1.739747
    111          1           0       -7.102438    0.080163   -1.728188
    112          1           0       -5.807840   -0.386345    0.830717
    113          1           0       -6.831544   -1.662390    0.623282
    114          1           0       -8.338420    0.905374   -0.192490
    115          1           0       -6.950811    1.171526    2.388657
    116          1           0       -8.310285    2.079835    1.715818
    117          1           0       -6.715358    2.134639    0.896560
    118          1           0       -9.525906    0.231592    2.163485
    119          1           0       -8.841457   -1.329935    1.757418
    120          1           0       -9.839805   -1.488864   -0.492565
    121          1           0      -10.455156    0.107340   -0.154105
    122          1           0      -11.004407   -1.930532    1.968316
    123          1           0      -11.616231   -2.491159    0.599294
    124          1           0      -12.146375    0.505305    1.190078
    125          1           0      -13.509362    0.208889    2.886124
    126          1           0      -12.535784   -1.173116    3.427806
    127          1           0      -14.023977   -1.506473    2.609804
    128          1           0      -14.436275   -1.266854    0.431585
    129          1           0      -13.279714   -0.869014   -0.780625
    130          1           0      -13.651593    1.141117   -0.845495
    131          1           0      -13.999748    1.503100    0.772231
    132          1           0      -16.267074    0.141029    0.285755
    133          1           0      -16.058618    0.769359   -1.375211
    134          1           0      -15.610470    2.954984    0.300861
    135          1           0      -16.775358    1.216562    2.034818
    136          1           0      -18.225393    2.079482    1.402246
    137          1           0      -16.786006    2.929045    2.206084
    138          1           0      -16.976410    3.100778   -1.821430
    139          1           0      -17.796451    3.740228   -0.459363
    140          1           0      -18.123833    2.028181   -1.117079
 ---------------------------------------------------------------------

 SCF Done:  E(RB-LYP) =  -3007.38372690     A.U. after   22 cycles

 Excitation energies and oscillator strengths:

 Excited State   1:      Singlet-A      1.7564 eV  705.90 nm  f=0.0050  <S**2>=0.000
     244 -> 247        0.69202
     245 -> 247       -0.11611
 This state for optimization and/or second-order correction.
 Total Energy, E(TD-HF/TD-DFT) =  -3007.31918014
 Copying the excited state density for this state as the 1-particle RhoCI density.

 Excited State   2:      Singlet-A      1.8256 eV  679.13 nm  f=0.2863  <S**2>=0.000
     245 -> 248       -0.22429
     246 -> 247        0.67544
     246 <- 247       -0.13517

 Excited State   3:      Singlet-A      1.9873 eV  623.89 nm  f=0.0516  <S**2>=0.000
     243 -> 247        0.13926
     244 -> 247        0.11288
     245 -> 247        0.62513
     246 -> 248        0.26145

 Excited State   4:      Singlet-A      2.1560 eV  575.06 nm  f=0.0039  <S**2>=0.000
     243 -> 247        0.69064
     245 -> 247       -0.10923

 Excited State   5:      Singlet-A      2.2544 eV  549.96 nm  f=0.0002  <S**2>=0.000
     242 -> 247        0.70704

 The electronic state is 1-A.
 Alpha  occ. eigenvalues --  -46.28799 -18.82996 -18.81759 -18.77722 -18.76810
 Alpha  occ. eigenvalues --  -18.76077 -18.74917 -14.04283 -14.03212 -14.02022
 Alpha  occ. eigenvalues --  -14.01097 -10.04803 -10.03872 -10.00034  -9.99324
 Alpha  occ. eigenvalues --   -9.98307  -9.97701  -9.97017  -9.96994  -9.96950
 Alpha  occ. eigenvalues --   -9.96479  -9.96405  -9.96197  -9.95564  -9.95199
 Alpha  occ. eigenvalues --   -9.94809  -9.94649  -9.94628  -9.94439  -9.94396
 Alpha  occ. eigenvalues --   -9.94388  -9.94149  -9.93523  -9.93508  -9.93440
 Alpha  occ. eigenvalues --   -9.93423  -9.93252  -9.93194  -9.93008  -9.92930
 Alpha  occ. eigenvalues --   -9.92815  -9.92627  -9.92559  -9.92492  -9.92411
 Alpha  occ. eigenvalues --   -9.92060  -9.92052  -9.91969  -9.91897  -9.91732
 Alpha  occ. eigenvalues --   -9.91671  -9.91639  -9.91633  -9.91547  -9.91501
 Alpha  occ. eigenvalues --   -9.91146  -9.91102  -9.91014  -9.90960  -9.90888
 Alpha  occ. eigenvalues --   -9.90782  -9.90659  -9.90640  -9.90593  -9.90574
 Alpha  occ. eigenvalues --   -9.90535  -2.93304  -1.73701  -1.73194  -1.73032
 Alpha  occ. eigenvalues --   -0.98012  -0.96835  -0.92227  -0.92138  -0.90125
 Alpha  occ. eigenvalues --   -0.89585  -0.87518  -0.86884  -0.86417  -0.85004
 Alpha  occ. eigenvalues --   -0.76526  -0.73093  -0.72829  -0.72599  -0.72188
 Alpha  occ. eigenvalues --   -0.71694  -0.71320  -0.71082  -0.70692  -0.70623
 Alpha  occ. eigenvalues --   -0.69715  -0.68749  -0.67977  -0.67721  -0.67056
 Alpha  occ. eigenvalues --   -0.66483  -0.65931  -0.64984  -0.64760  -0.64252
 Alpha  occ. eigenvalues --   -0.63964  -0.62614  -0.62274  -0.61651  -0.61020
 Alpha  occ. eigenvalues --   -0.60598  -0.60220  -0.59728  -0.59335  -0.58822
 Alpha  occ. eigenvalues --   -0.57845  -0.57430  -0.57108  -0.55426  -0.54675
 Alpha  occ. eigenvalues --   -0.54416  -0.53003  -0.52545  -0.52198  -0.52046
 Alpha  occ. eigenvalues --   -0.51336  -0.51039  -0.50607  -0.50407  -0.50130
 Alpha  occ. eigenvalues --   -0.49552  -0.49473  -0.48921  -0.48457  -0.46550
 Alpha  occ. eigenvalues --   -0.46273  -0.46057  -0.45592  -0.45042  -0.44611
 Alpha  occ. eigenvalues --   -0.43968  -0.43546  -0.43471  -0.43128  -0.42553
 Alpha  occ. eigenvalues --   -0.42351  -0.41906  -0.41714  -0.41516  -0.41107
 Alpha  occ. eigenvalues --   -0.40724  -0.40539  -0.40287  -0.40236  -0.39952
 Alpha  occ. eigenvalues --   -0.39839  -0.39701  -0.39646  -0.39513  -0.39140
 Alpha  occ. eigenvalues --   -0.38736  -0.38662  -0.38486  -0.38261  -0.38079
 Alpha  occ. eigenvalues --   -0.38017  -0.37878  -0.37796  -0.37503  -0.37447
 Alpha  occ. eigenvalues --   -0.37279  -0.37066  -0.36850  -0.36664  -0.36346
 Alpha  occ. eigenvalues --   -0.36081  -0.35946  -0.35860  -0.35742  -0.35479
 Alpha  occ. eigenvalues --   -0.35370  -0.35164  -0.34921  -0.34775  -0.34679
 Alpha  occ. eigenvalues --   -0.34500  -0.34174  -0.34155  -0.34024  -0.33947
 Alpha  occ. eigenvalues --   -0.33825  -0.33699  -0.33549  -0.33377  -0.33180
 Alpha  occ. eigenvalues --   -0.33084  -0.32996  -0.32855  -0.32789  -0.32455
 Alpha  occ. eigenvalues --   -0.32274  -0.32174  -0.31876  -0.31498  -0.31416
 Alpha  occ. eigenvalues --   -0.31217  -0.31140  -0.31038  -0.30843  -0.30804
 Alpha  occ. eigenvalues --   -0.30643  -0.30471  -0.30332  -0.30176  -0.29985
 Alpha  occ. eigenvalues --   -0.29792  -0.29620  -0.29502  -0.29343  -0.29056
 Alpha  occ. eigenvalues --   -0.28630  -0.28256  -0.28055  -0.27833  -0.27733
 Alpha  occ. eigenvalues --   -0.27642  -0.27560  -0.26949  -0.26758  -0.26580
 Alpha  occ. eigenvalues --   -0.26364  -0.25798  -0.25761  -0.25716  -0.25577
 Alpha  occ. eigenvalues --   -0.25468  -0.24968  -0.24503  -0.24357  -0.23640
 Alpha  occ. eigenvalues --   -0.23529  -0.22809  -0.22220  -0.21702  -0.21568
 Alpha  occ. eigenvalues --   -0.20216  -0.19843  -0.19310  -0.17948  -0.17364
 Alpha  occ. eigenvalues --   -0.16030
 Alpha virt. eigenvalues --   -0.11559  -0.07438  -0.06582  -0.04685  -0.03854
 Alpha virt. eigenvalues --   -0.03603  -0.02934  -0.02036  -0.01613  -0.00438
 Alpha virt. eigenvalues --    0.00807   0.01886   0.02295   0.03005   0.03022

 Mulliken charges:
               1
     1  Mg   0.694835
     2  C   -0.078343
     3  C   -0.058811
     4  C   -0.027527
     5  C   -0.092172
     6  N   -0.152771
     7  C   -0.075187
     8  C    0.021752
     9  C   -0.004288
    10  C   -0.032727
    11  C    0.131854
    12  C    0.068853
    13  C    0.096854
    14  C    0.096066
    15  O   -0.171780
    16  O   -0.262004
    17  N   -0.237577
    18  C    0.144303
    19  C   -0.153502
    20  C    0.007198
    21  C    0.094354
    22  C    0.223373
    23  C   -0.101064
    24  O   -0.144558
    25  C    0.130734
    26  N   -0.188853
    27  C   -0.035460
    28  C    0.028475
    29  C    0.025140
    30  C    0.027887
    31  C    0.118133
    32  C    0.109600
    33  C    0.047266
    34  N   -0.287170
    35  C    0.124268
    36  C   -0.163890
    37  C    0.113169
    38  C    0.115859
    39  C    0.157484
    40  C   -0.097865
    41  O   -0.119015
    42  C    0.137952
    43  C    0.132359
    44  O   -0.178965
    45  O   -0.306288
    46  C    0.227637
    47  C    0.327777
    48  C   -0.153424
    49  C   -0.100351
    50  C    0.130245
    51  C    0.134028
    52  C    0.076224
    53  C    0.116638
    54  C   -0.048288
    55  C    0.089688
    56  C    0.075080
    57  C    0.037769
    58  C    0.144030
    59  C   -0.066888
    60  C    0.107927
    61  C    0.121000
    62  C    0.006645
    63  C    0.167624
    64  C   -0.116991
    65  C    0.107351
    66  C    0.084045
    67  H   -0.056073
    68  H   -0.073850
    69  H   -0.058712
    70  H   -0.021442
    71  H   -0.029816
    72  H   -0.003206
    73  H   -0.000485
    74  H   -0.015551
    75  H    0.004966
    76  H   -0.013935
    77  H    0.009898
    78  H    0.013702
    79  H    0.023251
    80  H   -0.050013
    81  H    0.002735
    82  H    0.005769
    83  H    0.023095
    84  H   -0.018894
    85  H   -0.015930
    86  H   -0.032396
    87  H   -0.008141
    88  H    0.001291
    89  H    0.009613
    90  H   -0.022032
    91  H   -0.016618
    92  H   -0.026533
    93  H   -0.014743
    94  H   -0.008466
    95  H    0.000796
    96  H    0.013009
    97  H   -0.017933
    98  H   -0.002429
    99  H    0.013982
   100  H    0.023524
   101  H    0.018338
   102  H   -0.003826
   103  H   -0.010355
   104  H   -0.038119
   105  H   -0.012471
   106  H   -0.002940
   107  H    0.003966
   108  H   -0.038539
   109  H   -0.015331
   110  H   -0.028941
   111  H   -0.031699
   112  H   -0.039632
   113  H   -0.033765
   114  H   -0.032234
   115  H   -0.017836
   116  H   -0.020773
   117  H   -0.014913
   118  H   -0.031741
   119  H   -0.034450
   120  H   -0.029625
   121  H   -0.034078
   122  H   -0.059884
   123  H   -0.049086
   124  H   -0.031972
   125  H   -0.020560
   126  H   -0.015992
   127  H   -0.009665
   128  H   -0.043890
   129  H   -0.043306
   130  H   -0.033546
   131  H   -0.026447
   132  H   -0.041322
   133  H   -0.033301
   134  H   -0.035427
   135  H   -0.023694
   136  H   -0.004264
   137  H   -0.012649
   138  H   -0.024380
   139  H   -0.015521
   140  H   -0.010280
 Sum of Mulliken charges =  -0.00000

 Dipole moment (field-independent basis, Debye):
    X=              2.1929    Y=              3.6881    Z=              1.8710  Tot=              4.6810
 Quadrupole moment (field-independent basis, Debye-Ang):
   XX=           -359.2320   YY=           -447.4956   ZZ=           -406.6808
   XY=              7.6547   XZ=             16.0881   YZ=             35.4259

 Normal termination of Gaussian 16 at Tue May  3 14:59:29 2022.
