 Gaussian 16, Revision A.03,
 Gaussian 16:  ES64L-G16RevA.03 25-Dec-2016

 -----------------------------------
 #p cam-b3lyp/Def2SVP td=(nstates=5)
 -----------------------------------

 --------------------------------------------------------
 step_1001_chromophore_14 TDDFT with cam-b3lyp functional
 --------------------------------------------------------
 Symbolic Z-matrix:
 Charge =  0 Multiplicity = 1

                         Standard orientation:
 ---------------------------------------------------------------------
 Center     Atomic      Atomic             Coordinates (Angstroms)
 Number     Number       Type             X           Y           Z
 ---------------------------------------------------------------------
      1         12           0        5.271240    0.821155    0.144256
      2          6           0        4.718637   -2.618053    0.501354
      3          6           0        4.489661    0.547775   -3.280204
      4          6           0        5.318954    4.242526   -0.217687
      5          6           0        5.653057    1.089105    3.523704
      6          7           0        4.522849   -0.827214   -1.237586
      7          6           0        4.455061   -2.120264   -0.879579
      8          6           0        4.092918   -3.064031   -2.102876
      9          6           0        4.327623   -2.079152   -3.303958
     10          6           0        4.336982   -0.688795   -2.565456
     11          6           0        5.654183   -2.341589   -3.966591
     12          6           0        2.663381   -3.714885   -2.033368
     13          6           0        1.514553   -2.851182   -1.486735
     14          6           0        0.068522   -3.361514   -1.730129
     15          8           0       -0.221471   -4.477944   -2.081758
     16          8           0       -0.867993   -2.403557   -1.423038
     17          7           0        4.941758    2.252361   -1.536750
     18          6           0        4.740564    1.883688   -2.883816
     19          6           0        4.780876    3.063568   -3.690657
     20          6           0        5.049180    4.182474   -2.818216
     21          6           0        5.142489    3.555913   -1.449539
     22          6           0        4.504557    3.104260   -5.158082
     23          6           0        5.224078    5.596298   -3.344525
     24          8           0        5.134296    5.862273   -4.514714
     25          6           0        5.399186    6.760796   -2.399381
     26          7           0        5.223505    2.501598    1.542948
     27          6           0        5.561763    3.711736    1.102908
     28          6           0        6.024225    4.614567    2.251900
     29          6           0        5.857977    3.612551    3.510340
     30          6           0        5.527790    2.285540    2.835234
     31          6           0        7.529622    5.144396    1.953707
     32          6           0        4.774205    4.015582    4.626524
     33          6           0        5.321020    4.666274    5.868360
     34          7           0        5.176144   -0.405378    1.690751
     35          6           0        5.371106   -0.200366    3.026221
     36          6           0        5.286560   -1.477434    3.780158
     37          6           0        5.027942   -2.441874    2.802400
     38          6           0        4.982494   -1.735979    1.550134
     39          6           0        5.377615   -1.698662    5.226638
     40          6           0        4.850721   -3.846088    2.528287
     41          8           0        4.860390   -4.775052    3.313012
     42          6           0        4.637591   -4.034409    1.022534
     43          6           0        5.735128   -4.921502    0.532532
     44          8           0        5.573939   -6.081688    0.128317
     45          8           0        6.957469   -4.253127    0.703183
     46          6           0        8.121512   -5.171203    0.409563
     47          6           0       -2.190124   -3.000243   -1.230261
     48          6           0       -3.186813   -1.868077   -1.121974
     49          6           0       -3.975395   -1.321784   -2.092086
     50          6           0       -3.812292   -1.635022   -3.618172
     51          6           0       -4.893830   -0.243501   -1.690599
     52          6           0       -6.401099   -0.626180   -1.285031
     53          6           0       -6.694889   -0.645978    0.252962
     54          6           0       -7.905583    0.344240    0.636277
     55          6           0       -7.412298    1.516155    1.462867
     56          6           0       -9.119427   -0.360865    1.343293
     57          6           0      -10.191828   -0.843180    0.311279
     58          6           0      -11.360864   -1.520234    1.023810
     59          6           0      -12.536901   -0.508509    1.271647
     60          6           0      -13.190273   -0.803371    2.638816
     61          6           0      -13.642615   -0.556632    0.198882
     62          6           0      -14.282299    0.809281   -0.020183
     63          6           0      -15.806880    0.917335   -0.324599
     64          6           0      -16.409517    2.225820    0.167261
     65          6           0      -17.148347    2.125612    1.563614
     66          6           0      -17.404455    2.806386   -0.863056
     67          1           0        4.582957    0.330371   -4.345435
     68          1           0        5.440473    5.326992   -0.274464
     69          1           0        6.032902    1.139792    4.546542
     70          1           0        4.734378   -3.938272   -2.220770
     71          1           0        3.577208   -2.095957   -4.094529
     72          1           0        5.803098   -3.408130   -4.129636
     73          1           0        6.487024   -1.835048   -3.477694
     74          1           0        5.584977   -1.895540   -4.959312
     75          1           0        2.907073   -4.579452   -1.416615
     76          1           0        2.322183   -3.992256   -3.030831
     77          1           0        1.607080   -1.848822   -1.905015
     78          1           0        1.727526   -2.877386   -0.418206
     79          1           0        3.573543    3.621702   -5.390715
     80          1           0        4.482154    2.121949   -5.630333
     81          1           0        5.446560    3.457208   -5.577554
     82          1           0        6.298703    6.399970   -1.900736
     83          1           0        4.533225    7.015338   -1.788948
     84          1           0        5.608511    7.687528   -2.935162
     85          1           0        5.262450    5.387956    2.350582
     86          1           0        6.817596    3.426968    3.994164
     87          1           0        8.094436    5.005166    2.874888
     88          1           0        7.529508    6.221077    1.784063
     89          1           0        7.963042    4.595745    1.117222
     90          1           0        4.316806    3.122073    5.051468
     91          1           0        3.953829    4.644792    4.281904
     92          1           0        6.408904    4.645752    5.926568
     93          1           0        5.028619    4.107159    6.757079
     94          1           0        5.086236    5.714656    6.049345
     95          1           0        6.318045   -2.166833    5.518927
     96          1           0        4.595617   -2.425168    5.450129
     97          1           0        5.306184   -0.877373    5.939724
     98          1           0        3.657585   -4.454398    0.798227
     99          1           0        8.035150   -5.550090   -0.608749
    100          1           0        8.069583   -6.034347    1.074216
    101          1           0        9.082782   -4.669756    0.528264
    102          1           0       -2.354200   -3.596896   -0.333208
    103          1           0       -2.543970   -3.553506   -2.100302
    104          1           0       -3.277873   -1.526874   -0.090799
    105          1           0       -4.706486   -2.208315   -3.864735
    106          1           0       -3.024258   -2.336818   -3.890161
    107          1           0       -3.827856   -0.765765   -4.276165
    108          1           0       -4.980270    0.485773   -2.496468
    109          1           0       -4.440267    0.223619   -0.816697
    110          1           0       -6.712403   -1.567021   -1.739747
    111          1           0       -7.102438    0.080163   -1.728188
    112          1           0       -5.807840   -0.386345    0.830717
    113          1           0       -6.831544   -1.662390    0.623282
    114          1           0       -8.338420    0.905374   -0.192490
    115          1           0       -6.950811    1.171526    2.388657
    116          1           0       -8.310285    2.079835    1.715818
    117          1           0       -6.715358    2.134639    0.896560
    118          1           0       -9.525906    0.231592    2.163485
    119          1           0       -8.841457   -1.329935    1.757418
    120          1           0       -9.839805   -1.488864   -0.492565
    121          1           0      -10.455156    0.107340   -0.154105
    122          1           0      -11.004407   -1.930532    1.968316
    123          1           0      -11.616231   -2.491159    0.599294
    124          1           0      -12.146375    0.505305    1.190078
    125          1           0      -13.509362    0.208889    2.886124
    126          1           0      -12.535784   -1.173116    3.427806
    127          1           0      -14.023977   -1.506473    2.609804
    128          1           0      -14.436275   -1.266854    0.431585
    129          1           0      -13.279714   -0.869014   -0.780625
    130          1           0      -13.651593    1.141117   -0.845495
    131          1           0      -13.999748    1.503100    0.772231
    132          1           0      -16.267074    0.141029    0.285755
    133          1           0      -16.058618    0.769359   -1.375211
    134          1           0      -15.610470    2.954984    0.300861
    135          1           0      -16.775358    1.216562    2.034818
    136          1           0      -18.225393    2.079482    1.402246
    137          1           0      -16.786006    2.929045    2.206084
    138          1           0      -16.976410    3.100778   -1.821430
    139          1           0      -17.796451    3.740228   -0.459363
    140          1           0      -18.123833    2.028181   -1.117079
 ---------------------------------------------------------------------

 SCF Done:  E(RCAM-B3LYP) =  -3007.16863991     A.U. after   17 cycles

 Excitation energies and oscillator strengths:

 Excited State   1:      Singlet-A      1.7392 eV  712.89 nm  f=0.3643  <S**2>=0.000
     245 -> 248        0.20703
     246 -> 247        0.67779
     245 <- 248        0.11224
 This state for optimization and/or second-order correction.
 Total Energy, E(TD-HF/TD-DFT) =  -3007.10472663
 Copying the excited state density for this state as the 1-particle RhoCI density.

 Excited State   2:      Singlet-A      2.2354 eV  554.64 nm  f=0.0652  <S**2>=0.000
     245 -> 247        0.61737
     246 -> 248       -0.33570

 Excited State   3:      Singlet-A      3.3684 eV  368.08 nm  f=0.1837  <S**2>=0.000
     244 -> 247        0.54333
     245 -> 247        0.16531
     246 -> 248        0.38377

 Excited State   4:      Singlet-A      3.4918 eV  355.07 nm  f=0.5534  <S**2>=0.000
     239 -> 247        0.14241
     242 -> 247        0.10181
     242 -> 251        0.10196
     244 -> 247       -0.36979
     245 -> 247        0.27079
     246 -> 248        0.44683

 Excited State   5:      Singlet-A      3.5639 eV  347.89 nm  f=0.0173  <S**2>=0.000
     239 -> 247       -0.19018
     239 -> 249        0.11812
     242 -> 247        0.54074
     242 -> 249        0.21190
     242 -> 251        0.22708

 The electronic state is 1-A.
 Alpha  occ. eigenvalues --  -46.90483 -19.26039 -19.24624 -19.20984 -19.19777
 Alpha  occ. eigenvalues --  -19.19524 -19.18019 -14.43393 -14.41830 -14.40582
 Alpha  occ. eigenvalues --  -14.39522 -10.40473 -10.39107 -10.35482 -10.34367
 Alpha  occ. eigenvalues --  -10.32414 -10.32295 -10.31541 -10.31348 -10.31071
 Alpha  occ. eigenvalues --  -10.30926 -10.30860 -10.30685 -10.29768 -10.29575
 Alpha  occ. eigenvalues --  -10.29277 -10.29141 -10.28953 -10.28824 -10.28559
 Alpha  occ. eigenvalues --  -10.28392 -10.28163 -10.28129 -10.27805 -10.27468
 Alpha  occ. eigenvalues --  -10.27377 -10.27183 -10.26923 -10.26914 -10.26820
 Alpha  occ. eigenvalues --  -10.26794 -10.26742 -10.26339 -10.26167 -10.26052
 Alpha  occ. eigenvalues --  -10.25948 -10.25789 -10.25780 -10.25641 -10.25561
 Alpha  occ. eigenvalues --  -10.25463 -10.25353 -10.25342 -10.25329 -10.25313
 Alpha  occ. eigenvalues --  -10.25052 -10.24768 -10.24638 -10.24599 -10.24479
 Alpha  occ. eigenvalues --  -10.24421 -10.24226 -10.24226 -10.24208 -10.24174
 Alpha  occ. eigenvalues --  -10.24166  -3.18883  -1.93757  -1.93328  -1.93201
 Alpha  occ. eigenvalues --   -1.16485  -1.15446  -1.10860  -1.10497  -1.07968
 Alpha  occ. eigenvalues --   -1.07598  -1.05298  -1.04597  -1.04072  -1.02507
 Alpha  occ. eigenvalues --   -0.93870  -0.89905  -0.89622  -0.89370  -0.88866
 Alpha  occ. eigenvalues --   -0.88361  -0.87935  -0.87721  -0.87243  -0.87175
 Alpha  occ. eigenvalues --   -0.86233  -0.85189  -0.84190  -0.83929  -0.83206
 Alpha  occ. eigenvalues --   -0.82516  -0.82072  -0.80958  -0.80576  -0.80078
 Alpha  occ. eigenvalues --   -0.79727  -0.78255  -0.77822  -0.77201  -0.76553
 Alpha  occ. eigenvalues --   -0.75924  -0.75511  -0.75039  -0.74608  -0.74039
 Alpha  occ. eigenvalues --   -0.72912  -0.72368  -0.72062  -0.70218  -0.69230
 Alpha  occ. eigenvalues --   -0.69067  -0.67487  -0.66951  -0.66422  -0.66168
 Alpha  occ. eigenvalues --   -0.65478  -0.65212  -0.64721  -0.64444  -0.64183
 Alpha  occ. eigenvalues --   -0.63441  -0.63376  -0.62672  -0.62346  -0.60243
 Alpha  occ. eigenvalues --   -0.59892  -0.59604  -0.59088  -0.58379  -0.58137
 Alpha  occ. eigenvalues --   -0.57509  -0.56842  -0.56803  -0.56358  -0.55795
 Alpha  occ. eigenvalues --   -0.55567  -0.54938  -0.54781  -0.54255  -0.53952
 Alpha  occ. eigenvalues --   -0.53748  -0.53323  -0.53213  -0.53036  -0.52767
 Alpha  occ. eigenvalues --   -0.52478  -0.52469  -0.52303  -0.52105  -0.51918
 Alpha  occ. eigenvalues --   -0.51501  -0.51306  -0.51004  -0.50688  -0.50613
 Alpha  occ. eigenvalues --   -0.50322  -0.50180  -0.50093  -0.49779  -0.49660
 Alpha  occ. eigenvalues --   -0.49510  -0.49291  -0.49212  -0.49129  -0.48721
 Alpha  occ. eigenvalues --   -0.48553  -0.48269  -0.48068  -0.47705  -0.47669
 Alpha  occ. eigenvalues --   -0.47445  -0.47100  -0.46879  -0.46654  -0.46554
 Alpha  occ. eigenvalues --   -0.46384  -0.46176  -0.45990  -0.45855  -0.45754
 Alpha  occ. eigenvalues --   -0.45710  -0.45477  -0.45233  -0.45186  -0.44996
 Alpha  occ. eigenvalues --   -0.44828  -0.44653  -0.44604  -0.44429  -0.44049
 Alpha  occ. eigenvalues --   -0.43847  -0.43705  -0.43448  -0.43430  -0.43193
 Alpha  occ. eigenvalues --   -0.43055  -0.42691  -0.42598  -0.42448  -0.42131
 Alpha  occ. eigenvalues --   -0.42078  -0.41894  -0.41548  -0.41452  -0.41079
 Alpha  occ. eigenvalues --   -0.40921  -0.40870  -0.40712  -0.40590  -0.40258
 Alpha  occ. eigenvalues --   -0.39622  -0.39211  -0.39135  -0.38681  -0.38619
 Alpha  occ. eigenvalues --   -0.38564  -0.38381  -0.37719  -0.37694  -0.37617
 Alpha  occ. eigenvalues --   -0.37543  -0.37027  -0.36681  -0.36409  -0.36373
 Alpha  occ. eigenvalues --   -0.36293  -0.36013  -0.35257  -0.35070  -0.34375
 Alpha  occ. eigenvalues --   -0.34234  -0.33969  -0.33647  -0.31662  -0.31129
 Alpha  occ. eigenvalues --   -0.30896  -0.30137  -0.29431  -0.29381  -0.24112
 Alpha  occ. eigenvalues --   -0.21284
 Alpha virt. eigenvalues --   -0.08534  -0.02551  -0.00226   0.00928   0.02653
 Alpha virt. eigenvalues --    0.04091   0.04561   0.05487   0.05958   0.06598
 Alpha virt. eigenvalues --    0.07395   0.08327   0.08962   0.09149   0.09188

 Mulliken charges:
               1
     1  Mg   0.825707
     2  C   -0.096152
     3  C   -0.063769
     4  C   -0.051784
     5  C   -0.103487
     6  N   -0.215621
     7  C   -0.036856
     8  C   -0.024990
     9  C   -0.058098
    10  C   -0.019583
    11  C    0.072900
    12  C    0.028260
    13  C    0.027607
    14  C    0.177609
    15  O   -0.213032
    16  O   -0.324324
    17  N   -0.322070
    18  C    0.140964
    19  C   -0.155000
    20  C   -0.063644
    21  C    0.128065
    22  C    0.165021
    23  C   -0.023310
    24  O   -0.185170
    25  C    0.048645
    26  N   -0.263791
    27  C   -0.007649
    28  C   -0.033186
    29  C   -0.029433
    30  C    0.051166
    31  C    0.063809
    32  C    0.052002
    33  C   -0.013611
    34  N   -0.379546
    35  C    0.132586
    36  C   -0.161386
    37  C    0.037488
    38  C    0.147387
    39  C    0.103198
    40  C    0.003520
    41  O   -0.155387
    42  C    0.056445
    43  C    0.221350
    44  O   -0.217134
    45  O   -0.368658
    46  C    0.185569
    47  C    0.292110
    48  C   -0.169253
    49  C   -0.123763
    50  C    0.071212
    51  C    0.072513
    52  C    0.023342
    53  C    0.062835
    54  C   -0.109096
    55  C    0.036780
    56  C    0.026196
    57  C   -0.010957
    58  C    0.083748
    59  C   -0.124910
    60  C    0.051397
    61  C    0.068744
    62  C   -0.042439
    63  C    0.107834
    64  C   -0.174071
    65  C    0.047849
    66  C    0.024854
    67  H   -0.023016
    68  H   -0.039291
    69  H   -0.023680
    70  H    0.013283
    71  H    0.005687
    72  H    0.021584
    73  H    0.024979
    74  H    0.008636
    75  H    0.029302
    76  H    0.016858
    77  H    0.040702
    78  H    0.040789
    79  H    0.050094
    80  H   -0.021272
    81  H    0.030828
    82  H    0.029096
    83  H    0.050470
    84  H    0.017101
    85  H    0.018882
    86  H    0.002261
    87  H    0.014989
    88  H    0.024504
    89  H    0.033702
    90  H    0.008971
    91  H    0.012075
    92  H   -0.002966
    93  H    0.009343
    94  H    0.015441
    95  H    0.028486
    96  H    0.038611
    97  H    0.008985
    98  H    0.039770
    99  H    0.037650
   100  H    0.047064
   101  H    0.043179
   102  H    0.023570
   103  H    0.019111
   104  H   -0.006884
   105  H    0.010978
   106  H    0.021651
   107  H    0.028387
   108  H   -0.007452
   109  H    0.014060
   110  H   -0.001503
   111  H   -0.002633
   112  H   -0.012030
   113  H   -0.004149
   114  H   -0.002484
   115  H    0.005261
   116  H    0.002581
   117  H    0.009181
   118  H   -0.003351
   119  H   -0.007948
   120  H   -0.001300
   121  H   -0.009785
   122  H   -0.028722
   123  H   -0.017220
   124  H   -0.001713
   125  H    0.002715
   126  H    0.008709
   127  H    0.013401
   128  H   -0.015920
   129  H   -0.012584
   130  H   -0.005640
   131  H   -0.001199
   132  H   -0.013067
   133  H   -0.002933
   134  H   -0.003705
   135  H   -0.001154
   136  H    0.019572
   137  H    0.011640
   138  H    0.000800
   139  H    0.009236
   140  H    0.011873
 Sum of Mulliken charges =  -0.00000

 Dipole moment (field-independent basis, Debye):
    X=              2.5119    Y=              3.7830    Z=              1.8947  Tot=              4.9205
 Quadrupole moment (field-independent basis, Debye-Ang):
   XX=           -356.6145   YY=           -445.3595   ZZ=           -404.4869
   XY=              8.1248   XZ=             16.3551   YZ=             36.1762

 Normal termination of Gaussian 16 at Tue May  3 14:04:11 2022.
