 Gaussian 16, Revision A.03,
 Gaussian 16:  ES64L-G16RevA.03 25-Dec-2016

 ---------------------------------
 #p PBE1PBE/Def2SVP td=(nstates=5)
 ---------------------------------

 ------------------------------------------------------
 step_1001_chromophore_14 TDDFT with PBE1PBE functional
 ------------------------------------------------------
 Symbolic Z-matrix:
 Charge =  0 Multiplicity = 1

                         Standard orientation:
 ---------------------------------------------------------------------
 Center     Atomic      Atomic             Coordinates (Angstroms)
 Number     Number       Type             X           Y           Z
 ---------------------------------------------------------------------
      1         12           0        5.271240    0.821155    0.144256
      2          6           0        4.718637   -2.618053    0.501354
      3          6           0        4.489661    0.547775   -3.280204
      4          6           0        5.318954    4.242526   -0.217687
      5          6           0        5.653057    1.089105    3.523704
      6          7           0        4.522849   -0.827214   -1.237586
      7          6           0        4.455061   -2.120264   -0.879579
      8          6           0        4.092918   -3.064031   -2.102876
      9          6           0        4.327623   -2.079152   -3.303958
     10          6           0        4.336982   -0.688795   -2.565456
     11          6           0        5.654183   -2.341589   -3.966591
     12          6           0        2.663381   -3.714885   -2.033368
     13          6           0        1.514553   -2.851182   -1.486735
     14          6           0        0.068522   -3.361514   -1.730129
     15          8           0       -0.221471   -4.477944   -2.081758
     16          8           0       -0.867993   -2.403557   -1.423038
     17          7           0        4.941758    2.252361   -1.536750
     18          6           0        4.740564    1.883688   -2.883816
     19          6           0        4.780876    3.063568   -3.690657
     20          6           0        5.049180    4.182474   -2.818216
     21          6           0        5.142489    3.555913   -1.449539
     22          6           0        4.504557    3.104260   -5.158082
     23          6           0        5.224078    5.596298   -3.344525
     24          8           0        5.134296    5.862273   -4.514714
     25          6           0        5.399186    6.760796   -2.399381
     26          7           0        5.223505    2.501598    1.542948
     27          6           0        5.561763    3.711736    1.102908
     28          6           0        6.024225    4.614567    2.251900
     29          6           0        5.857977    3.612551    3.510340
     30          6           0        5.527790    2.285540    2.835234
     31          6           0        7.529622    5.144396    1.953707
     32          6           0        4.774205    4.015582    4.626524
     33          6           0        5.321020    4.666274    5.868360
     34          7           0        5.176144   -0.405378    1.690751
     35          6           0        5.371106   -0.200366    3.026221
     36          6           0        5.286560   -1.477434    3.780158
     37          6           0        5.027942   -2.441874    2.802400
     38          6           0        4.982494   -1.735979    1.550134
     39          6           0        5.377615   -1.698662    5.226638
     40          6           0        4.850721   -3.846088    2.528287
     41          8           0        4.860390   -4.775052    3.313012
     42          6           0        4.637591   -4.034409    1.022534
     43          6           0        5.735128   -4.921502    0.532532
     44          8           0        5.573939   -6.081688    0.128317
     45          8           0        6.957469   -4.253127    0.703183
     46          6           0        8.121512   -5.171203    0.409563
     47          6           0       -2.190124   -3.000243   -1.230261
     48          6           0       -3.186813   -1.868077   -1.121974
     49          6           0       -3.975395   -1.321784   -2.092086
     50          6           0       -3.812292   -1.635022   -3.618172
     51          6           0       -4.893830   -0.243501   -1.690599
     52          6           0       -6.401099   -0.626180   -1.285031
     53          6           0       -6.694889   -0.645978    0.252962
     54          6           0       -7.905583    0.344240    0.636277
     55          6           0       -7.412298    1.516155    1.462867
     56          6           0       -9.119427   -0.360865    1.343293
     57          6           0      -10.191828   -0.843180    0.311279
     58          6           0      -11.360864   -1.520234    1.023810
     59          6           0      -12.536901   -0.508509    1.271647
     60          6           0      -13.190273   -0.803371    2.638816
     61          6           0      -13.642615   -0.556632    0.198882
     62          6           0      -14.282299    0.809281   -0.020183
     63          6           0      -15.806880    0.917335   -0.324599
     64          6           0      -16.409517    2.225820    0.167261
     65          6           0      -17.148347    2.125612    1.563614
     66          6           0      -17.404455    2.806386   -0.863056
     67          1           0        4.582957    0.330371   -4.345435
     68          1           0        5.440473    5.326992   -0.274464
     69          1           0        6.032902    1.139792    4.546542
     70          1           0        4.734378   -3.938272   -2.220770
     71          1           0        3.577208   -2.095957   -4.094529
     72          1           0        5.803098   -3.408130   -4.129636
     73          1           0        6.487024   -1.835048   -3.477694
     74          1           0        5.584977   -1.895540   -4.959312
     75          1           0        2.907073   -4.579452   -1.416615
     76          1           0        2.322183   -3.992256   -3.030831
     77          1           0        1.607080   -1.848822   -1.905015
     78          1           0        1.727526   -2.877386   -0.418206
     79          1           0        3.573543    3.621702   -5.390715
     80          1           0        4.482154    2.121949   -5.630333
     81          1           0        5.446560    3.457208   -5.577554
     82          1           0        6.298703    6.399970   -1.900736
     83          1           0        4.533225    7.015338   -1.788948
     84          1           0        5.608511    7.687528   -2.935162
     85          1           0        5.262450    5.387956    2.350582
     86          1           0        6.817596    3.426968    3.994164
     87          1           0        8.094436    5.005166    2.874888
     88          1           0        7.529508    6.221077    1.784063
     89          1           0        7.963042    4.595745    1.117222
     90          1           0        4.316806    3.122073    5.051468
     91          1           0        3.953829    4.644792    4.281904
     92          1           0        6.408904    4.645752    5.926568
     93          1           0        5.028619    4.107159    6.757079
     94          1           0        5.086236    5.714656    6.049345
     95          1           0        6.318045   -2.166833    5.518927
     96          1           0        4.595617   -2.425168    5.450129
     97          1           0        5.306184   -0.877373    5.939724
     98          1           0        3.657585   -4.454398    0.798227
     99          1           0        8.035150   -5.550090   -0.608749
    100          1           0        8.069583   -6.034347    1.074216
    101          1           0        9.082782   -4.669756    0.528264
    102          1           0       -2.354200   -3.596896   -0.333208
    103          1           0       -2.543970   -3.553506   -2.100302
    104          1           0       -3.277873   -1.526874   -0.090799
    105          1           0       -4.706486   -2.208315   -3.864735
    106          1           0       -3.024258   -2.336818   -3.890161
    107          1           0       -3.827856   -0.765765   -4.276165
    108          1           0       -4.980270    0.485773   -2.496468
    109          1           0       -4.440267    0.223619   -0.816697
    110          1           0       -6.712403   -1.567021   -1.739747
    111          1           0       -7.102438    0.080163   -1.728188
    112          1           0       -5.807840   -0.386345    0.830717
    113          1           0       -6.831544   -1.662390    0.623282
    114          1           0       -8.338420    0.905374   -0.192490
    115          1           0       -6.950811    1.171526    2.388657
    116          1           0       -8.310285    2.079835    1.715818
    117          1           0       -6.715358    2.134639    0.896560
    118          1           0       -9.525906    0.231592    2.163485
    119          1           0       -8.841457   -1.329935    1.757418
    120          1           0       -9.839805   -1.488864   -0.492565
    121          1           0      -10.455156    0.107340   -0.154105
    122          1           0      -11.004407   -1.930532    1.968316
    123          1           0      -11.616231   -2.491159    0.599294
    124          1           0      -12.146375    0.505305    1.190078
    125          1           0      -13.509362    0.208889    2.886124
    126          1           0      -12.535784   -1.173116    3.427806
    127          1           0      -14.023977   -1.506473    2.609804
    128          1           0      -14.436275   -1.266854    0.431585
    129          1           0      -13.279714   -0.869014   -0.780625
    130          1           0      -13.651593    1.141117   -0.845495
    131          1           0      -13.999748    1.503100    0.772231
    132          1           0      -16.267074    0.141029    0.285755
    133          1           0      -16.058618    0.769359   -1.375211
    134          1           0      -15.610470    2.954984    0.300861
    135          1           0      -16.775358    1.216562    2.034818
    136          1           0      -18.225393    2.079482    1.402246
    137          1           0      -16.786006    2.929045    2.206084
    138          1           0      -16.976410    3.100778   -1.821430
    139          1           0      -17.796451    3.740228   -0.459363
    140          1           0      -18.123833    2.028181   -1.117079
 ---------------------------------------------------------------------

 SCF Done:  E(RPBE1PBE) =  -3005.35803175     A.U. after   15 cycles

 Excitation energies and oscillator strengths:

 Excited State   1:      Singlet-A      1.8877 eV  656.81 nm  f=0.3564  <S**2>=0.000
     245 -> 248        0.20145
     246 -> 247        0.68462
 This state for optimization and/or second-order correction.
 Total Energy, E(TD-HF/TD-DFT) =  -3005.28866110
 Copying the excited state density for this state as the 1-particle RhoCI density.

 Excited State   2:      Singlet-A      2.2290 eV  556.24 nm  f=0.0695  <S**2>=0.000
     245 -> 247        0.63626
     246 -> 248       -0.30049

 Excited State   3:      Singlet-A      2.8979 eV  427.85 nm  f=0.0006  <S**2>=0.000
     242 -> 247        0.11069
     244 -> 247        0.67088
     244 -> 249        0.11720

 Excited State   4:      Singlet-A      3.0846 eV  401.94 nm  f=0.0072  <S**2>=0.000
     242 -> 247        0.67243
     244 -> 247       -0.11937
     246 -> 248        0.12851

 Excited State   5:      Singlet-A      3.1528 eV  393.25 nm  f=0.0142  <S**2>=0.000
     239 -> 247        0.19185
     240 -> 247       -0.15532
     241 -> 247        0.59862
     241 -> 249       -0.19031
     246 -> 248        0.14025

 The electronic state is 1-A.
 Alpha  occ. eigenvalues --  -46.93846 -19.26630 -19.25277 -19.21185 -19.20026
 Alpha  occ. eigenvalues --  -19.19637 -19.18259 -14.42752 -14.41422 -14.40164
 Alpha  occ. eigenvalues --  -14.39163 -10.37458 -10.36122 -10.32542 -10.31532
 Alpha  occ. eigenvalues --  -10.30132 -10.29579 -10.29215 -10.29175 -10.28591
 Alpha  occ. eigenvalues --  -10.28499 -10.28438 -10.28295 -10.27521 -10.27266
 Alpha  occ. eigenvalues --  -10.26961 -10.26668 -10.26660 -10.26625 -10.26390
 Alpha  occ. eigenvalues --  -10.26259 -10.25960 -10.25755 -10.25328 -10.25037
 Alpha  occ. eigenvalues --  -10.24914 -10.24687 -10.24652 -10.24646 -10.24632
 Alpha  occ. eigenvalues --  -10.24548 -10.24354 -10.23749 -10.23642 -10.23587
 Alpha  occ. eigenvalues --  -10.23522 -10.23492 -10.23441 -10.23223 -10.23113
 Alpha  occ. eigenvalues --  -10.22995 -10.22943 -10.22798 -10.22757 -10.22729
 Alpha  occ. eigenvalues --  -10.22602 -10.22349 -10.22178 -10.22136 -10.21957
 Alpha  occ. eigenvalues --  -10.21875 -10.21802 -10.21705 -10.21613 -10.21590
 Alpha  occ. eigenvalues --  -10.21570  -3.15831  -1.88644  -1.88195  -1.88072
 Alpha  occ. eigenvalues --   -1.11275  -1.10108  -1.05517  -1.05279  -1.02825
 Alpha  occ. eigenvalues --   -1.02371  -0.99912  -0.99212  -0.98716  -0.97192
 Alpha  occ. eigenvalues --   -0.88155  -0.83996  -0.83778  -0.83554  -0.83183
 Alpha  occ. eigenvalues --   -0.82459  -0.82207  -0.82000  -0.81522  -0.81302
 Alpha  occ. eigenvalues --   -0.80492  -0.79455  -0.78459  -0.78088  -0.77439
 Alpha  occ. eigenvalues --   -0.76725  -0.76265  -0.75199  -0.74790  -0.74344
 Alpha  occ. eigenvalues --   -0.73908  -0.72548  -0.72075  -0.71458  -0.70828
 Alpha  occ. eigenvalues --   -0.70086  -0.69846  -0.69116  -0.68747  -0.68206
 Alpha  occ. eigenvalues --   -0.67321  -0.66798  -0.66405  -0.64506  -0.63622
 Alpha  occ. eigenvalues --   -0.63508  -0.61741  -0.61416  -0.60757  -0.60580
 Alpha  occ. eigenvalues --   -0.59888  -0.59469  -0.59185  -0.58947  -0.58273
 Alpha  occ. eigenvalues --   -0.57884  -0.57608  -0.57190  -0.56542  -0.54760
 Alpha  occ. eigenvalues --   -0.54479  -0.53987  -0.53664  -0.52959  -0.52652
 Alpha  occ. eigenvalues --   -0.51903  -0.51276  -0.51177  -0.50826  -0.50344
 Alpha  occ. eigenvalues --   -0.50132  -0.49449  -0.49185  -0.48613  -0.48528
 Alpha  occ. eigenvalues --   -0.48389  -0.47875  -0.47770  -0.47503  -0.47259
 Alpha  occ. eigenvalues --   -0.47067  -0.46868  -0.46738  -0.46572  -0.46478
 Alpha  occ. eigenvalues --   -0.45990  -0.45873  -0.45575  -0.45211  -0.45139
 Alpha  occ. eigenvalues --   -0.44841  -0.44765  -0.44612  -0.44413  -0.44281
 Alpha  occ. eigenvalues --   -0.44083  -0.43878  -0.43783  -0.43685  -0.43290
 Alpha  occ. eigenvalues --   -0.43157  -0.42915  -0.42724  -0.42365  -0.42251
 Alpha  occ. eigenvalues --   -0.42175  -0.41751  -0.41523  -0.41364  -0.41245
 Alpha  occ. eigenvalues --   -0.41050  -0.40882  -0.40713  -0.40498  -0.40445
 Alpha  occ. eigenvalues --   -0.40378  -0.40087  -0.39901  -0.39792  -0.39744
 Alpha  occ. eigenvalues --   -0.39664  -0.39417  -0.39316  -0.39072  -0.38848
 Alpha  occ. eigenvalues --   -0.38644  -0.38446  -0.38175  -0.38151  -0.38033
 Alpha  occ. eigenvalues --   -0.37844  -0.37485  -0.37410  -0.37211  -0.36890
 Alpha  occ. eigenvalues --   -0.36849  -0.36765  -0.36330  -0.36246  -0.35951
 Alpha  occ. eigenvalues --   -0.35737  -0.35661  -0.35570  -0.35365  -0.35155
 Alpha  occ. eigenvalues --   -0.34391  -0.34067  -0.34008  -0.33614  -0.33503
 Alpha  occ. eigenvalues --   -0.33396  -0.33172  -0.32645  -0.32531  -0.32475
 Alpha  occ. eigenvalues --   -0.32295  -0.32054  -0.31652  -0.31349  -0.31263
 Alpha  occ. eigenvalues --   -0.31175  -0.30916  -0.30129  -0.29884  -0.29582
 Alpha  occ. eigenvalues --   -0.29154  -0.29025  -0.28916  -0.26732  -0.26674
 Alpha  occ. eigenvalues --   -0.26303  -0.25240  -0.24768  -0.24703  -0.21054
 Alpha  occ. eigenvalues --   -0.18939
 Alpha virt. eigenvalues --   -0.11078  -0.05931  -0.04338  -0.02231  -0.01470
 Alpha virt. eigenvalues --   -0.00542   0.00110   0.01188   0.01377   0.02544
 Alpha virt. eigenvalues --    0.03631   0.04770   0.05119   0.05860   0.05999

 Mulliken charges:
               1
     1  Mg   0.964256
     2  C   -0.091449
     3  C   -0.066507
     4  C   -0.036585
     5  C   -0.087225
     6  N   -0.322520
     7  C    0.048307
     8  C   -0.089363
     9  C   -0.140111
    10  C    0.029567
    11  C    0.017999
    12  C   -0.019663
    13  C   -0.056127
    14  C    0.245440
    15  O   -0.245625
    16  O   -0.354192
    17  N   -0.431950
    18  C    0.160808
    19  C   -0.184727
    20  C   -0.101912
    21  C    0.154642
    22  C    0.106051
    23  C    0.023856
    24  O   -0.220397
    25  C   -0.027858
    26  N   -0.362498
    27  C    0.025497
    28  C   -0.112104
    29  C   -0.099037
    30  C    0.082334
    31  C    0.005462
    32  C   -0.008922
    33  C   -0.081094
    34  N   -0.513223
    35  C    0.150789
    36  C   -0.179795
    37  C   -0.010750
    38  C    0.189150
    39  C    0.054081
    40  C    0.105114
    41  O   -0.203455
    42  C   -0.073725
    43  C    0.310227
    44  O   -0.253885
    45  O   -0.393300
    46  C    0.128744
    47  C    0.243207
    48  C   -0.175038
    49  C   -0.165080
    50  C    0.008388
    51  C    0.004828
    52  C   -0.037314
    53  C    0.015546
    54  C   -0.197593
    55  C   -0.025763
    56  C   -0.025256
    57  C   -0.075740
    58  C    0.034338
    59  C   -0.219318
    60  C   -0.006190
    61  C    0.019146
    62  C   -0.100499
    63  C    0.048590
    64  C   -0.261990
    65  C   -0.014588
    66  C   -0.040282
    67  H    0.008793
    68  H   -0.004373
    69  H    0.008646
    70  H    0.050838
    71  H    0.041034
    72  H    0.049843
    73  H    0.053085
    74  H    0.036845
    75  H    0.062332
    76  H    0.049679
    77  H    0.074376
    78  H    0.076197
    79  H    0.076454
    80  H    0.007425
    81  H    0.058714
    82  H    0.055370
    83  H    0.076071
    84  H    0.045888
    85  H    0.054865
    86  H    0.038710
    87  H    0.042637
    88  H    0.051580
    89  H    0.060824
    90  H    0.042058
    91  H    0.043453
    92  H    0.024385
    93  H    0.036559
    94  H    0.042846
    95  H    0.056513
    96  H    0.065753
    97  H    0.034816
    98  H    0.076692
    99  H    0.059228
   100  H    0.068891
   101  H    0.064811
   102  H    0.050641
   103  H    0.046615
   104  H    0.023079
   105  H    0.040099
   106  H    0.048139
   107  H    0.054811
   108  H    0.025528
   109  H    0.046044
   110  H    0.030871
   111  H    0.029463
   112  H    0.018855
   113  H    0.026938
   114  H    0.034082
   115  H    0.033780
   116  H    0.031119
   117  H    0.038275
   118  H    0.027684
   119  H    0.025917
   120  H    0.031087
   121  H    0.023691
   122  H    0.003059
   123  H    0.014195
   124  H    0.035162
   125  H    0.031364
   126  H    0.035849
   127  H    0.039558
   128  H    0.016158
   129  H    0.020529
   130  H    0.028543
   131  H    0.029663
   132  H    0.020423
   133  H    0.029152
   134  H    0.034212
   135  H    0.027021
   136  H    0.046250
   137  H    0.039293
   138  H    0.029764
   139  H    0.037763
   140  H    0.039773
 Sum of Mulliken charges =  -0.00000

 Dipole moment (field-independent basis, Debye):
    X=              2.4983    Y=              3.9255    Z=              1.9299  Tot=              5.0374
 Quadrupole moment (field-independent basis, Debye-Ang):
   XX=           -353.3181   YY=           -442.1104   ZZ=           -399.8082
   XY=              9.0352   XZ=             16.9415   YZ=             37.2291

 Normal termination of Gaussian 16 at Tue May  3 14:22:10 2022.
