 Gaussian 16, Revision A.03,
 Gaussian 16:  ES64L-G16RevA.03 25-Dec-2016

 --------------------------------
 #p wB97XD/Def2SVP td=(nstates=5)
 --------------------------------

 -----------------------------------------------------
 step_1001_chromophore_14 TDDFT with wB97XD functional
 -----------------------------------------------------
 Symbolic Z-matrix:
 Charge =  0 Multiplicity = 1

                         Standard orientation:
 ---------------------------------------------------------------------
 Center     Atomic      Atomic             Coordinates (Angstroms)
 Number     Number       Type             X           Y           Z
 ---------------------------------------------------------------------
      1         12           0        5.271240    0.821155    0.144256
      2          6           0        4.718637   -2.618053    0.501354
      3          6           0        4.489661    0.547775   -3.280204
      4          6           0        5.318954    4.242526   -0.217687
      5          6           0        5.653057    1.089105    3.523704
      6          7           0        4.522849   -0.827214   -1.237586
      7          6           0        4.455061   -2.120264   -0.879579
      8          6           0        4.092918   -3.064031   -2.102876
      9          6           0        4.327623   -2.079152   -3.303958
     10          6           0        4.336982   -0.688795   -2.565456
     11          6           0        5.654183   -2.341589   -3.966591
     12          6           0        2.663381   -3.714885   -2.033368
     13          6           0        1.514553   -2.851182   -1.486735
     14          6           0        0.068522   -3.361514   -1.730129
     15          8           0       -0.221471   -4.477944   -2.081758
     16          8           0       -0.867993   -2.403557   -1.423038
     17          7           0        4.941758    2.252361   -1.536750
     18          6           0        4.740564    1.883688   -2.883816
     19          6           0        4.780876    3.063568   -3.690657
     20          6           0        5.049180    4.182474   -2.818216
     21          6           0        5.142489    3.555913   -1.449539
     22          6           0        4.504557    3.104260   -5.158082
     23          6           0        5.224078    5.596298   -3.344525
     24          8           0        5.134296    5.862273   -4.514714
     25          6           0        5.399186    6.760796   -2.399381
     26          7           0        5.223505    2.501598    1.542948
     27          6           0        5.561763    3.711736    1.102908
     28          6           0        6.024225    4.614567    2.251900
     29          6           0        5.857977    3.612551    3.510340
     30          6           0        5.527790    2.285540    2.835234
     31          6           0        7.529622    5.144396    1.953707
     32          6           0        4.774205    4.015582    4.626524
     33          6           0        5.321020    4.666274    5.868360
     34          7           0        5.176144   -0.405378    1.690751
     35          6           0        5.371106   -0.200366    3.026221
     36          6           0        5.286560   -1.477434    3.780158
     37          6           0        5.027942   -2.441874    2.802400
     38          6           0        4.982494   -1.735979    1.550134
     39          6           0        5.377615   -1.698662    5.226638
     40          6           0        4.850721   -3.846088    2.528287
     41          8           0        4.860390   -4.775052    3.313012
     42          6           0        4.637591   -4.034409    1.022534
     43          6           0        5.735128   -4.921502    0.532532
     44          8           0        5.573939   -6.081688    0.128317
     45          8           0        6.957469   -4.253127    0.703183
     46          6           0        8.121512   -5.171203    0.409563
     47          6           0       -2.190124   -3.000243   -1.230261
     48          6           0       -3.186813   -1.868077   -1.121974
     49          6           0       -3.975395   -1.321784   -2.092086
     50          6           0       -3.812292   -1.635022   -3.618172
     51          6           0       -4.893830   -0.243501   -1.690599
     52          6           0       -6.401099   -0.626180   -1.285031
     53          6           0       -6.694889   -0.645978    0.252962
     54          6           0       -7.905583    0.344240    0.636277
     55          6           0       -7.412298    1.516155    1.462867
     56          6           0       -9.119427   -0.360865    1.343293
     57          6           0      -10.191828   -0.843180    0.311279
     58          6           0      -11.360864   -1.520234    1.023810
     59          6           0      -12.536901   -0.508509    1.271647
     60          6           0      -13.190273   -0.803371    2.638816
     61          6           0      -13.642615   -0.556632    0.198882
     62          6           0      -14.282299    0.809281   -0.020183
     63          6           0      -15.806880    0.917335   -0.324599
     64          6           0      -16.409517    2.225820    0.167261
     65          6           0      -17.148347    2.125612    1.563614
     66          6           0      -17.404455    2.806386   -0.863056
     67          1           0        4.582957    0.330371   -4.345435
     68          1           0        5.440473    5.326992   -0.274464
     69          1           0        6.032902    1.139792    4.546542
     70          1           0        4.734378   -3.938272   -2.220770
     71          1           0        3.577208   -2.095957   -4.094529
     72          1           0        5.803098   -3.408130   -4.129636
     73          1           0        6.487024   -1.835048   -3.477694
     74          1           0        5.584977   -1.895540   -4.959312
     75          1           0        2.907073   -4.579452   -1.416615
     76          1           0        2.322183   -3.992256   -3.030831
     77          1           0        1.607080   -1.848822   -1.905015
     78          1           0        1.727526   -2.877386   -0.418206
     79          1           0        3.573543    3.621702   -5.390715
     80          1           0        4.482154    2.121949   -5.630333
     81          1           0        5.446560    3.457208   -5.577554
     82          1           0        6.298703    6.399970   -1.900736
     83          1           0        4.533225    7.015338   -1.788948
     84          1           0        5.608511    7.687528   -2.935162
     85          1           0        5.262450    5.387956    2.350582
     86          1           0        6.817596    3.426968    3.994164
     87          1           0        8.094436    5.005166    2.874888
     88          1           0        7.529508    6.221077    1.784063
     89          1           0        7.963042    4.595745    1.117222
     90          1           0        4.316806    3.122073    5.051468
     91          1           0        3.953829    4.644792    4.281904
     92          1           0        6.408904    4.645752    5.926568
     93          1           0        5.028619    4.107159    6.757079
     94          1           0        5.086236    5.714656    6.049345
     95          1           0        6.318045   -2.166833    5.518927
     96          1           0        4.595617   -2.425168    5.450129
     97          1           0        5.306184   -0.877373    5.939724
     98          1           0        3.657585   -4.454398    0.798227
     99          1           0        8.035150   -5.550090   -0.608749
    100          1           0        8.069583   -6.034347    1.074216
    101          1           0        9.082782   -4.669756    0.528264
    102          1           0       -2.354200   -3.596896   -0.333208
    103          1           0       -2.543970   -3.553506   -2.100302
    104          1           0       -3.277873   -1.526874   -0.090799
    105          1           0       -4.706486   -2.208315   -3.864735
    106          1           0       -3.024258   -2.336818   -3.890161
    107          1           0       -3.827856   -0.765765   -4.276165
    108          1           0       -4.980270    0.485773   -2.496468
    109          1           0       -4.440267    0.223619   -0.816697
    110          1           0       -6.712403   -1.567021   -1.739747
    111          1           0       -7.102438    0.080163   -1.728188
    112          1           0       -5.807840   -0.386345    0.830717
    113          1           0       -6.831544   -1.662390    0.623282
    114          1           0       -8.338420    0.905374   -0.192490
    115          1           0       -6.950811    1.171526    2.388657
    116          1           0       -8.310285    2.079835    1.715818
    117          1           0       -6.715358    2.134639    0.896560
    118          1           0       -9.525906    0.231592    2.163485
    119          1           0       -8.841457   -1.329935    1.757418
    120          1           0       -9.839805   -1.488864   -0.492565
    121          1           0      -10.455156    0.107340   -0.154105
    122          1           0      -11.004407   -1.930532    1.968316
    123          1           0      -11.616231   -2.491159    0.599294
    124          1           0      -12.146375    0.505305    1.190078
    125          1           0      -13.509362    0.208889    2.886124
    126          1           0      -12.535784   -1.173116    3.427806
    127          1           0      -14.023977   -1.506473    2.609804
    128          1           0      -14.436275   -1.266854    0.431585
    129          1           0      -13.279714   -0.869014   -0.780625
    130          1           0      -13.651593    1.141117   -0.845495
    131          1           0      -13.999748    1.503100    0.772231
    132          1           0      -16.267074    0.141029    0.285755
    133          1           0      -16.058618    0.769359   -1.375211
    134          1           0      -15.610470    2.954984    0.300861
    135          1           0      -16.775358    1.216562    2.034818
    136          1           0      -18.225393    2.079482    1.402246
    137          1           0      -16.786006    2.929045    2.206084
    138          1           0      -16.976410    3.100778   -1.821430
    139          1           0      -17.796451    3.740228   -0.459363
    140          1           0      -18.123833    2.028181   -1.117079
 ---------------------------------------------------------------------

 SCF Done:  E(RwB97XD) =  -3007.86528540     A.U. after   19 cycles

 Excitation energies and oscillator strengths:

 Excited State   1:      Singlet-A      1.6793 eV  738.31 nm  f=0.3613  <S**2>=0.000
     245 -> 248        0.21303
     246 -> 247        0.67581
     245 <- 248        0.12223
 This state for optimization and/or second-order correction.
 Total Energy, E(TD-HF/TD-DFT) =  -3007.80357240
 Copying the excited state density for this state as the 1-particle RhoCI density.

 Excited State   2:      Singlet-A      2.1840 eV  567.68 nm  f=0.0632  <S**2>=0.000
     245 -> 247        0.61565
     246 -> 248       -0.33790

 Excited State   3:      Singlet-A      3.3892 eV  365.82 nm  f=0.2627  <S**2>=0.000
     243 -> 247        0.48505
     243 -> 249        0.11793
     245 -> 247        0.19366
     246 -> 248        0.43247

 Excited State   4:      Singlet-A      3.5158 eV  352.65 nm  f=0.4837  <S**2>=0.000
     239 -> 247       -0.13725
     239 -> 249        0.10072
     241 -> 247       -0.10274
     242 -> 251        0.10531
     243 -> 247        0.41846
     245 -> 247       -0.25189
     246 -> 248       -0.39908

 Excited State   5:      Singlet-A      3.5884 eV  345.51 nm  f=0.0095  <S**2>=0.000
     239 -> 247       -0.24032
     239 -> 249        0.17156
     242 -> 247        0.49951
     242 -> 249        0.21003
     242 -> 251       -0.20046
     243 -> 251        0.11057

 The electronic state is 1-A.
 Alpha  occ. eigenvalues --  -46.96815 -19.31283 -19.29862 -19.25967 -19.24694
 Alpha  occ. eigenvalues --  -19.24599 -19.23015 -14.47987 -14.46350 -14.45187
 Alpha  occ. eigenvalues --  -14.44099 -10.44374 -10.42901 -10.39515 -10.38308
 Alpha  occ. eigenvalues --  -10.36341 -10.36167 -10.35561 -10.35392 -10.34953
 Alpha  occ. eigenvalues --  -10.34927 -10.34896 -10.34720 -10.33810 -10.33590
 Alpha  occ. eigenvalues --  -10.33470 -10.33205 -10.33081 -10.32869 -10.32636
 Alpha  occ. eigenvalues --  -10.32455 -10.32269 -10.32202 -10.31899 -10.31380
 Alpha  occ. eigenvalues --  -10.31355 -10.31051 -10.30932 -10.30915 -10.30841
 Alpha  occ. eigenvalues --  -10.30834 -10.30706 -10.30206 -10.30032 -10.30019
 Alpha  occ. eigenvalues --  -10.29880 -10.29780 -10.29762 -10.29571 -10.29482
 Alpha  occ. eigenvalues --  -10.29323 -10.29287 -10.29262 -10.29231 -10.29135
 Alpha  occ. eigenvalues --  -10.28972 -10.28698 -10.28537 -10.28502 -10.28326
 Alpha  occ. eigenvalues --  -10.28288 -10.28150 -10.28070 -10.28044 -10.28020
 Alpha  occ. eigenvalues --  -10.27999  -3.22687  -1.96246  -1.95795  -1.95665
 Alpha  occ. eigenvalues --   -1.18652  -1.17621  -1.13123  -1.12697  -1.10166
 Alpha  occ. eigenvalues --   -1.09831  -1.07301  -1.06587  -1.06102  -1.04543
 Alpha  occ. eigenvalues --   -0.95886  -0.91662  -0.91425  -0.91196  -0.90771
 Alpha  occ. eigenvalues --   -0.90120  -0.89835  -0.89621  -0.89135  -0.88958
 Alpha  occ. eigenvalues --   -0.88148  -0.87109  -0.86090  -0.85744  -0.85082
 Alpha  occ. eigenvalues --   -0.84379  -0.83971  -0.82872  -0.82438  -0.81995
 Alpha  occ. eigenvalues --   -0.81576  -0.80181  -0.79735  -0.79130  -0.78488
 Alpha  occ. eigenvalues --   -0.77754  -0.77440  -0.76818  -0.76419  -0.75864
 Alpha  occ. eigenvalues --   -0.74903  -0.74333  -0.74005  -0.72124  -0.71161
 Alpha  occ. eigenvalues --   -0.71053  -0.69357  -0.68937  -0.68327  -0.68067
 Alpha  occ. eigenvalues --   -0.67418  -0.67081  -0.66698  -0.66448  -0.65961
 Alpha  occ. eigenvalues --   -0.65388  -0.65257  -0.64649  -0.64172  -0.62219
 Alpha  occ. eigenvalues --   -0.61914  -0.61496  -0.61071  -0.60349  -0.60103
 Alpha  occ. eigenvalues --   -0.59445  -0.58753  -0.58682  -0.58294  -0.57769
 Alpha  occ. eigenvalues --   -0.57548  -0.56891  -0.56652  -0.56087  -0.55896
 Alpha  occ. eigenvalues --   -0.55714  -0.55266  -0.55123  -0.54905  -0.54660
 Alpha  occ. eigenvalues --   -0.54397  -0.54366  -0.54163  -0.53967  -0.53896
 Alpha  occ. eigenvalues --   -0.53379  -0.53248  -0.52942  -0.52634  -0.52493
 Alpha  occ. eigenvalues --   -0.52182  -0.52109  -0.51959  -0.51686  -0.51565
 Alpha  occ. eigenvalues --   -0.51392  -0.51201  -0.51144  -0.51025  -0.50601
 Alpha  occ. eigenvalues --   -0.50496  -0.50173  -0.49959  -0.49613  -0.49531
 Alpha  occ. eigenvalues --   -0.49368  -0.49008  -0.48810  -0.48557  -0.48501
 Alpha  occ. eigenvalues --   -0.48283  -0.48099  -0.47924  -0.47711  -0.47643
 Alpha  occ. eigenvalues --   -0.47607  -0.47320  -0.47188  -0.47026  -0.46936
 Alpha  occ. eigenvalues --   -0.46758  -0.46587  -0.46502  -0.46279  -0.45975
 Alpha  occ. eigenvalues --   -0.45782  -0.45591  -0.45410  -0.45359  -0.45182
 Alpha  occ. eigenvalues --   -0.44965  -0.44557  -0.44516  -0.44367  -0.44104
 Alpha  occ. eigenvalues --   -0.43983  -0.43791  -0.43393  -0.43351  -0.42974
 Alpha  occ. eigenvalues --   -0.42763  -0.42733  -0.42597  -0.42456  -0.42147
 Alpha  occ. eigenvalues --   -0.41464  -0.41063  -0.41050  -0.40532  -0.40504
 Alpha  occ. eigenvalues --   -0.40403  -0.40201  -0.39708  -0.39560  -0.39543
 Alpha  occ. eigenvalues --   -0.39361  -0.39128  -0.38656  -0.38274  -0.38213
 Alpha  occ. eigenvalues --   -0.38195  -0.37850  -0.37270  -0.36900  -0.36350
 Alpha  occ. eigenvalues --   -0.36135  -0.35889  -0.35790  -0.33668  -0.33316
 Alpha  occ. eigenvalues --   -0.33113  -0.32101  -0.31529  -0.31449  -0.26025
 Alpha  occ. eigenvalues --   -0.23085
 Alpha virt. eigenvalues --   -0.06882  -0.00662   0.01905   0.03919   0.04872
 Alpha virt. eigenvalues --    0.06179   0.06800   0.07918   0.08251   0.09163
 Alpha virt. eigenvalues --    0.10090   0.11512   0.11791   0.12573   0.12731

 Mulliken charges:
               1
     1  Mg   0.959158
     2  C   -0.095921
     3  C   -0.072088
     4  C   -0.058621
     5  C   -0.113036
     6  N   -0.283782
     7  C    0.005394
     8  C   -0.065946
     9  C   -0.112120
    10  C    0.005430
    11  C    0.024861
    12  C   -0.010342
    13  C   -0.031702
    14  C    0.236513
    15  O   -0.243695
    16  O   -0.353598
    17  N   -0.399982
    18  C    0.152743
    19  C   -0.171779
    20  C   -0.104574
    21  C    0.152672
    22  C    0.116551
    23  C    0.023333
    24  O   -0.216208
    25  C   -0.014527
    26  N   -0.333313
    27  C    0.017349
    28  C   -0.089644
    29  C   -0.074555
    30  C    0.075448
    31  C    0.018078
    32  C    0.004069
    33  C   -0.066570
    34  N   -0.474105
    35  C    0.146539
    36  C   -0.177061
    37  C   -0.005938
    38  C    0.171689
    39  C    0.061724
    40  C    0.085290
    41  O   -0.192373
    42  C   -0.023848
    43  C    0.287442
    44  O   -0.247998
    45  O   -0.395935
    46  C    0.144243
    47  C    0.260561
    48  C   -0.184750
    49  C   -0.155174
    50  C    0.022399
    51  C    0.026889
    52  C   -0.022461
    53  C    0.024634
    54  C   -0.165362
    55  C   -0.011494
    56  C   -0.010885
    57  C   -0.054735
    58  C    0.045260
    59  C   -0.182244
    60  C    0.006152
    61  C    0.029671
    62  C   -0.082728
    63  C    0.064704
    64  C   -0.234957
    65  C   -0.001689
    66  C   -0.025779
    67  H   -0.000029
    68  H   -0.016118
    69  H    0.003308
    70  H    0.040225
    71  H    0.033361
    72  H    0.044418
    73  H    0.046729
    74  H    0.030758
    75  H    0.052807
    76  H    0.042234
    77  H    0.065668
    78  H    0.065244
    79  H    0.073809
    80  H    0.002196
    81  H    0.053955
    82  H    0.047264
    83  H    0.072714
    84  H    0.044351
    85  H    0.046135
    86  H    0.026034
    87  H    0.036288
    88  H    0.046331
    89  H    0.054384
    90  H    0.033213
    91  H    0.037408
    92  H    0.017018
    93  H    0.031007
    94  H    0.037447
    95  H    0.051920
    96  H    0.061120
    97  H    0.030865
    98  H    0.070886
    99  H    0.054983
   100  H    0.064738
   101  H    0.062432
   102  H    0.046769
   103  H    0.039040
   104  H    0.018876
   105  H    0.032681
   106  H    0.043304
   107  H    0.050488
   108  H    0.018894
   109  H    0.036272
   110  H    0.023214
   111  H    0.020567
   112  H    0.008518
   113  H    0.020236
   114  H    0.019736
   115  H    0.027026
   116  H    0.024205
   117  H    0.032165
   118  H    0.019309
   119  H    0.013880
   120  H    0.024152
   121  H    0.010124
   122  H   -0.007761
   123  H    0.008389
   124  H    0.019708
   125  H    0.023888
   126  H    0.030275
   127  H    0.033656
   128  H    0.005429
   129  H    0.013079
   130  H    0.019527
   131  H    0.016792
   132  H    0.008090
   133  H    0.022733
   134  H    0.022599
   135  H    0.018988
   136  H    0.040757
   137  H    0.034290
   138  H    0.023683
   139  H    0.031727
   140  H    0.032315
 Sum of Mulliken charges =  -0.00000

 Dipole moment (field-independent basis, Debye):
    X=              2.5944    Y=              3.8410    Z=              1.8924  Tot=              5.0065
 Quadrupole moment (field-independent basis, Debye-Ang):
   XX=           -351.8959   YY=           -441.6370   ZZ=           -399.7826
   XY=              8.2379   XZ=             16.5291   YZ=             36.4014

 Normal termination of Gaussian 16 at Tue May  3 14:47:58 2022.
