 Gaussian 16, Revision A.03,
 Gaussian 16:  ES64L-G16RevA.03 25-Dec-2016

 --------------------
 #p ZINDO=(nstates=5)
 --------------------

 ------------------------------
 step_1001_chromophore_14 ZINDO
 ------------------------------
 Symbolic Z-matrix:
 Charge =  0 Multiplicity = 1

                         Standard orientation:
 ---------------------------------------------------------------------
 Center     Atomic      Atomic             Coordinates (Angstroms)
 Number     Number       Type             X           Y           Z
 ---------------------------------------------------------------------
      1         12           0        5.271240    0.821155    0.144256
      2          6           0        4.718637   -2.618053    0.501354
      3          6           0        4.489661    0.547775   -3.280204
      4          6           0        5.318954    4.242526   -0.217687
      5          6           0        5.653057    1.089105    3.523704
      6          7           0        4.522849   -0.827214   -1.237586
      7          6           0        4.455061   -2.120264   -0.879579
      8          6           0        4.092918   -3.064031   -2.102876
      9          6           0        4.327623   -2.079152   -3.303958
     10          6           0        4.336982   -0.688795   -2.565456
     11          6           0        5.654183   -2.341589   -3.966591
     12          6           0        2.663381   -3.714885   -2.033368
     13          6           0        1.514553   -2.851182   -1.486735
     14          6           0        0.068522   -3.361514   -1.730129
     15          8           0       -0.221471   -4.477944   -2.081758
     16          8           0       -0.867993   -2.403557   -1.423038
     17          7           0        4.941758    2.252361   -1.536750
     18          6           0        4.740564    1.883688   -2.883816
     19          6           0        4.780876    3.063568   -3.690657
     20          6           0        5.049180    4.182474   -2.818216
     21          6           0        5.142489    3.555913   -1.449539
     22          6           0        4.504557    3.104260   -5.158082
     23          6           0        5.224078    5.596298   -3.344525
     24          8           0        5.134296    5.862273   -4.514714
     25          6           0        5.399186    6.760796   -2.399381
     26          7           0        5.223505    2.501598    1.542948
     27          6           0        5.561763    3.711736    1.102908
     28          6           0        6.024225    4.614567    2.251900
     29          6           0        5.857977    3.612551    3.510340
     30          6           0        5.527790    2.285540    2.835234
     31          6           0        7.529622    5.144396    1.953707
     32          6           0        4.774205    4.015582    4.626524
     33          6           0        5.321020    4.666274    5.868360
     34          7           0        5.176144   -0.405378    1.690751
     35          6           0        5.371106   -0.200366    3.026221
     36          6           0        5.286560   -1.477434    3.780158
     37          6           0        5.027942   -2.441874    2.802400
     38          6           0        4.982494   -1.735979    1.550134
     39          6           0        5.377615   -1.698662    5.226638
     40          6           0        4.850721   -3.846088    2.528287
     41          8           0        4.860390   -4.775052    3.313012
     42          6           0        4.637591   -4.034409    1.022534
     43          6           0        5.735128   -4.921502    0.532532
     44          8           0        5.573939   -6.081688    0.128317
     45          8           0        6.957469   -4.253127    0.703183
     46          6           0        8.121512   -5.171203    0.409563
     47          6           0       -2.190124   -3.000243   -1.230261
     48          6           0       -3.186813   -1.868077   -1.121974
     49          6           0       -3.975395   -1.321784   -2.092086
     50          6           0       -3.812292   -1.635022   -3.618172
     51          6           0       -4.893830   -0.243501   -1.690599
     52          6           0       -6.401099   -0.626180   -1.285031
     53          6           0       -6.694889   -0.645978    0.252962
     54          6           0       -7.905583    0.344240    0.636277
     55          6           0       -7.412298    1.516155    1.462867
     56          6           0       -9.119427   -0.360865    1.343293
     57          6           0      -10.191828   -0.843180    0.311279
     58          6           0      -11.360864   -1.520234    1.023810
     59          6           0      -12.536901   -0.508509    1.271647
     60          6           0      -13.190273   -0.803371    2.638816
     61          6           0      -13.642615   -0.556632    0.198882
     62          6           0      -14.282299    0.809281   -0.020183
     63          6           0      -15.806880    0.917335   -0.324599
     64          6           0      -16.409517    2.225820    0.167261
     65          6           0      -17.148347    2.125612    1.563614
     66          6           0      -17.404455    2.806386   -0.863056
     67          1           0        4.582957    0.330371   -4.345435
     68          1           0        5.440473    5.326992   -0.274464
     69          1           0        6.032902    1.139792    4.546542
     70          1           0        4.734378   -3.938272   -2.220770
     71          1           0        3.577208   -2.095957   -4.094529
     72          1           0        5.803098   -3.408130   -4.129636
     73          1           0        6.487024   -1.835048   -3.477694
     74          1           0        5.584977   -1.895540   -4.959312
     75          1           0        2.907073   -4.579452   -1.416615
     76          1           0        2.322183   -3.992256   -3.030831
     77          1           0        1.607080   -1.848822   -1.905015
     78          1           0        1.727526   -2.877386   -0.418206
     79          1           0        3.573543    3.621702   -5.390715
     80          1           0        4.482154    2.121949   -5.630333
     81          1           0        5.446560    3.457208   -5.577554
     82          1           0        6.298703    6.399970   -1.900736
     83          1           0        4.533225    7.015338   -1.788948
     84          1           0        5.608511    7.687528   -2.935162
     85          1           0        5.262450    5.387956    2.350582
     86          1           0        6.817596    3.426968    3.994164
     87          1           0        8.094436    5.005166    2.874888
     88          1           0        7.529508    6.221077    1.784063
     89          1           0        7.963042    4.595745    1.117222
     90          1           0        4.316806    3.122073    5.051468
     91          1           0        3.953829    4.644792    4.281904
     92          1           0        6.408904    4.645752    5.926568
     93          1           0        5.028619    4.107159    6.757079
     94          1           0        5.086236    5.714656    6.049345
     95          1           0        6.318045   -2.166833    5.518927
     96          1           0        4.595617   -2.425168    5.450129
     97          1           0        5.306184   -0.877373    5.939724
     98          1           0        3.657585   -4.454398    0.798227
     99          1           0        8.035150   -5.550090   -0.608749
    100          1           0        8.069583   -6.034347    1.074216
    101          1           0        9.082782   -4.669756    0.528264
    102          1           0       -2.354200   -3.596896   -0.333208
    103          1           0       -2.543970   -3.553506   -2.100302
    104          1           0       -3.277873   -1.526874   -0.090799
    105          1           0       -4.706486   -2.208315   -3.864735
    106          1           0       -3.024258   -2.336818   -3.890161
    107          1           0       -3.827856   -0.765765   -4.276165
    108          1           0       -4.980270    0.485773   -2.496468
    109          1           0       -4.440267    0.223619   -0.816697
    110          1           0       -6.712403   -1.567021   -1.739747
    111          1           0       -7.102438    0.080163   -1.728188
    112          1           0       -5.807840   -0.386345    0.830717
    113          1           0       -6.831544   -1.662390    0.623282
    114          1           0       -8.338420    0.905374   -0.192490
    115          1           0       -6.950811    1.171526    2.388657
    116          1           0       -8.310285    2.079835    1.715818
    117          1           0       -6.715358    2.134639    0.896560
    118          1           0       -9.525906    0.231592    2.163485
    119          1           0       -8.841457   -1.329935    1.757418
    120          1           0       -9.839805   -1.488864   -0.492565
    121          1           0      -10.455156    0.107340   -0.154105
    122          1           0      -11.004407   -1.930532    1.968316
    123          1           0      -11.616231   -2.491159    0.599294
    124          1           0      -12.146375    0.505305    1.190078
    125          1           0      -13.509362    0.208889    2.886124
    126          1           0      -12.535784   -1.173116    3.427806
    127          1           0      -14.023977   -1.506473    2.609804
    128          1           0      -14.436275   -1.266854    0.431585
    129          1           0      -13.279714   -0.869014   -0.780625
    130          1           0      -13.651593    1.141117   -0.845495
    131          1           0      -13.999748    1.503100    0.772231
    132          1           0      -16.267074    0.141029    0.285755
    133          1           0      -16.058618    0.769359   -1.375211
    134          1           0      -15.610470    2.954984    0.300861
    135          1           0      -16.775358    1.216562    2.034818
    136          1           0      -18.225393    2.079482    1.402246
    137          1           0      -16.786006    2.929045    2.206084
    138          1           0      -16.976410    3.100778   -1.821430
    139          1           0      -17.796451    3.740228   -0.459363
    140          1           0      -18.123833    2.028181   -1.117079
 ---------------------------------------------------------------------

 SCF Done:  E(RZINDO/S) =  -474.091955137     A.U. after   20 cycles

 Excitation energies and oscillator strengths:

 Excited State   1:      Singlet-A      1.2646 eV  980.39 nm  f=0.5479  <S**2>=0.000
     175 ->178        -0.21999
     176 ->177         0.65490
 This state for optimization and/or second-order correction.
 Total Energy, E(CIS/TDA) =  -474.045480258
 Copying the excited state density for this state as the 1-particle RhoCI density.

 Excited State   2:      Singlet-A      1.8689 eV  663.41 nm  f=0.0114  <S**2>=0.000
     175 ->177         0.51103
     176 ->178         0.46801

 Excited State   3:      Singlet-A      2.8948 eV  428.29 nm  f=0.3882  <S**2>=0.000
     168 ->177        -0.12644
     168 ->179         0.14199
     169 ->177        -0.10999
     169 ->179         0.12489
     175 ->177        -0.25461
     176 ->178         0.30293
     176 ->179         0.42992
     176 ->180         0.13425

 Excited State   4:      Singlet-A      2.9262 eV  423.70 nm  f=0.0335  <S**2>=0.000
     168 ->177        -0.26182
     168 ->179         0.30451
     168 ->180        -0.11302
     168 ->181         0.11364
     168 ->182        -0.14217
     168 ->185         0.14157
     169 ->177        -0.17160
     169 ->179         0.18687
     176 ->179        -0.25563
     176 ->180        -0.17156

 Excited State   5:      Singlet-A      2.9664 eV  417.96 nm  f=0.4564  <S**2>=0.000
     175 ->177         0.25969
     176 ->178        -0.29075
     176 ->179         0.10519
     176 ->180         0.50432
     176 ->181         0.18991

 The electronic state is 1-A.
 Alpha  occ. eigenvalues --   -1.85304  -1.80823  -1.79088  -1.73556  -1.72010
 Alpha  occ. eigenvalues --   -1.70281  -1.64715  -1.60649  -1.59468  -1.58705
 Alpha  occ. eigenvalues --   -1.54745  -1.51578  -1.48093  -1.47686  -1.46252
 Alpha  occ. eigenvalues --   -1.45245  -1.43201  -1.39838  -1.39101  -1.38993
 Alpha  occ. eigenvalues --   -1.36193  -1.35019  -1.31597  -1.30003  -1.28721
 Alpha  occ. eigenvalues --   -1.27646  -1.26622  -1.23112  -1.21440  -1.18113
 Alpha  occ. eigenvalues --   -1.16395  -1.14879  -1.14735  -1.13840  -1.12881
 Alpha  occ. eigenvalues --   -1.12792  -1.10370  -1.09123  -1.05910  -1.04689
 Alpha  occ. eigenvalues --   -1.02159  -1.01368  -0.99552  -0.97807  -0.95991
 Alpha  occ. eigenvalues --   -0.95326  -0.94208  -0.93914  -0.93292  -0.92205
 Alpha  occ. eigenvalues --   -0.90775  -0.89694  -0.88763  -0.88502  -0.86319
 Alpha  occ. eigenvalues --   -0.86234  -0.84457  -0.83292  -0.82630  -0.80620
 Alpha  occ. eigenvalues --   -0.80062  -0.78837  -0.77734  -0.77099  -0.76786
 Alpha  occ. eigenvalues --   -0.76463  -0.75924  -0.74739  -0.74155  -0.73593
 Alpha  occ. eigenvalues --   -0.73019  -0.72687  -0.72121  -0.71688  -0.71272
 Alpha  occ. eigenvalues --   -0.70231  -0.69431  -0.69221  -0.68852  -0.68058
 Alpha  occ. eigenvalues --   -0.67812  -0.67166  -0.66622  -0.66154  -0.65938
 Alpha  occ. eigenvalues --   -0.65634  -0.64910  -0.64768  -0.64243  -0.63392
 Alpha  occ. eigenvalues --   -0.63288  -0.62747  -0.62472  -0.62365  -0.62097
 Alpha  occ. eigenvalues --   -0.61823  -0.61330  -0.60916  -0.60432  -0.60117
 Alpha  occ. eigenvalues --   -0.59949  -0.59199  -0.58466  -0.58364  -0.58039
 Alpha  occ. eigenvalues --   -0.57490  -0.57250  -0.57178  -0.56920  -0.56605
 Alpha  occ. eigenvalues --   -0.56431  -0.56111  -0.55581  -0.55256  -0.54838
 Alpha  occ. eigenvalues --   -0.54647  -0.54432  -0.53798  -0.53463  -0.53062
 Alpha  occ. eigenvalues --   -0.52790  -0.52501  -0.52088  -0.51781  -0.51684
 Alpha  occ. eigenvalues --   -0.51326  -0.51237  -0.50864  -0.50687  -0.50463
 Alpha  occ. eigenvalues --   -0.50268  -0.49964  -0.49524  -0.49298  -0.48942
 Alpha  occ. eigenvalues --   -0.48791  -0.48462  -0.48338  -0.48121  -0.48010
 Alpha  occ. eigenvalues --   -0.47711  -0.47686  -0.47386  -0.46825  -0.46670
 Alpha  occ. eigenvalues --   -0.46502  -0.46097  -0.46009  -0.45632  -0.45619
 Alpha  occ. eigenvalues --   -0.45505  -0.45372  -0.45255  -0.44746  -0.44681
 Alpha  occ. eigenvalues --   -0.44013  -0.43528  -0.43000  -0.42881  -0.42616
 Alpha  occ. eigenvalues --   -0.42378  -0.42230  -0.41785  -0.39537  -0.39029
 Alpha  occ. eigenvalues --   -0.38643  -0.37715  -0.35692  -0.35402  -0.34827
 Alpha  occ. eigenvalues --   -0.33805  -0.32729  -0.32296  -0.32023  -0.26720
 Alpha  occ. eigenvalues --   -0.22052
 Alpha virt. eigenvalues --   -0.08461  -0.03139  -0.01051   0.00356   0.01165
 Alpha virt. eigenvalues --    0.02053   0.02216   0.02445   0.04303   0.04542
 Alpha virt. eigenvalues --    0.05714   0.06292   0.07047   0.07413   0.07720

 Mulliken charges:
               1
     1  Mg   0.441314
     2  C   -0.042818
     3  C   -0.054516
     4  C   -0.124162
     5  C   -0.084556
     6  N   -0.242686
     7  C    0.089236
     8  C   -0.006841
     9  C    0.005411
    10  C    0.099707
    11  C   -0.045171
    12  C   -0.028833
    13  C    0.004058
    14  C    0.463633
    15  O   -0.503199
    16  O   -0.261852
    17  N   -0.332929
    18  C    0.085292
    19  C    0.057081
    20  C   -0.084523
    21  C    0.158539
    22  C   -0.036211
    23  C    0.331390
    24  O   -0.521840
    25  C   -0.034197
    26  N   -0.275167
    27  C    0.155775
    28  C   -0.008291
    29  C   -0.004922
    30  C    0.132081
    31  C   -0.050043
    32  C   -0.024887
    33  C   -0.057369
    34  N   -0.306844
    35  C    0.104656
    36  C    0.030271
    37  C   -0.052323
    38  C    0.090205
    39  C   -0.034874
    40  C    0.344204
    41  O   -0.511337
    42  C    0.068952
    43  C    0.488854
    44  O   -0.512163
    45  O   -0.272218
    46  C    0.072472
    47  C    0.102383
    48  C   -0.097617
    49  C    0.001421
    50  C   -0.047089
    51  C   -0.016817
    52  C   -0.035040
    53  C   -0.034138
    54  C   -0.018999
    55  C   -0.055002
    56  C   -0.039420
    57  C   -0.037849
    58  C   -0.042047
    59  C   -0.004907
    60  C   -0.059908
    61  C   -0.030659
    62  C   -0.044573
    63  C   -0.028587
    64  C   -0.015833
    65  C   -0.062640
    66  C   -0.059005
    67  H    0.025576
    68  H    0.020719
    69  H    0.025742
    70  H    0.035348
    71  H    0.032290
    72  H    0.024285
    73  H    0.028920
    74  H    0.009388
    75  H    0.032475
    76  H    0.029710
    77  H    0.042748
    78  H    0.045041
    79  H    0.051167
    80  H    0.010355
    81  H    0.042881
    82  H    0.036470
    83  H    0.044484
    84  H    0.031724
    85  H    0.040140
    86  H    0.031018
    87  H    0.021490
    88  H    0.024632
    89  H    0.035451
    90  H    0.022417
    91  H    0.027711
    92  H    0.010923
    93  H    0.015402
    94  H    0.019454
    95  H    0.033162
    96  H    0.032752
    97  H    0.023554
    98  H    0.062559
    99  H    0.042639
   100  H    0.049115
   101  H    0.035736
   102  H    0.049604
   103  H    0.048949
   104  H    0.022775
   105  H    0.019272
   106  H    0.030450
   107  H    0.032177
   108  H    0.017831
   109  H    0.025020
   110  H    0.020368
   111  H    0.018053
   112  H    0.019117
   113  H    0.021041
   114  H    0.023833
   115  H    0.016334
   116  H    0.012647
   117  H    0.017221
   118  H    0.029054
   119  H    0.013678
   120  H    0.022337
   121  H    0.012705
   122  H    0.009910
   123  H    0.019463
   124  H    0.029745
   125  H    0.014170
   126  H    0.017492
   127  H    0.024629
   128  H    0.015339
   129  H    0.011919
   130  H    0.010133
   131  H    0.019112
   132  H    0.018226
   133  H    0.025681
   134  H    0.016910
   135  H    0.014956
   136  H    0.030280
   137  H    0.021686
   138  H    0.009423
   139  H    0.016421
   140  H    0.022531
 Sum of Mulliken charges =  -0.00000

 Dipole moment (field-independent basis, Debye):
    X=              3.5467    Y=              6.2230    Z=              2.6467  Tot=              7.6361
 N-N= 4.236883852395D+03 E-N= 0.000000000000D+00  KE=-9.147281014966D+03
 Leave Link  601 at Tue May  3 14:59:36 2022, MaxMem=  6710886400 cpu:               1.0 elap:               0.1
 (Enter /sw/apps/gaussian-16.0/g16/l9999.exe)
 1\1\GINC-BP1-COMPUTE064\SP\RZINDO CIS\STO-3G\C55H74Mg1N4O6\OF15641\03-
 May-2022\0\\#p ZINDO=(nstates=5)\\step_1001_chromophore_14 ZINDO\\0,1\
 Mg,0,46.387,44.799,43.806\C,0,43.091,43.694,43.386\C,0,47.514,41.503,4
 3.278\C,0,49.662,45.851,43.724\C,0,45.268,48.019,43.939\N,0,45.43,42.8
 14,43.231\C,0,44.102,42.614,43.197\C,0,43.73,41.089,42.964\C,0,45.12,4
 0.41,43.237\C,0,46.092,41.644,43.132\C,0,45.166,39.809,44.617\C,0,43.0
 88,40.773,41.564\C,0,43.641,41.525,40.342\C,0,43.254,40.979,38.941\O,0

 Normal termination of Gaussian 16 at Tue May  3 14:59:36 2022.
