 Gaussian 16, Revision A.03,
 Gaussian 16:  ES64L-G16RevA.03 25-Dec-2016

 ------------------------------
 #p blyp/Def2SVP td=(nstates=5)
 ------------------------------

 ---------------------------------------------------
 step_1101_chromophore_27 TDDFT with blyp functional
 ---------------------------------------------------
 Symbolic Z-matrix:
 Charge =  0 Multiplicity = 1

                         Standard orientation:
 ---------------------------------------------------------------------
 Center     Atomic      Atomic             Coordinates (Angstroms)
 Number     Number       Type             X           Y           Z
 ---------------------------------------------------------------------
      1         12           0       -4.522817    0.873188   -0.120965
      2          6           0       -4.022096   -2.616441    0.444719
      3          6           0       -1.184595    1.390982   -0.066795
      4          6           0       -5.109597    4.315531   -0.294227
      5          6           0       -7.874451    0.408000    0.399117
      6          7           0       -2.909959   -0.443790    0.227568
      7          6           0       -2.840007   -1.855449    0.285460
      8          6           0       -1.427976   -2.413876    0.051258
      9          6           0       -0.538579   -1.059523    0.015575
     10          6           0       -1.572568    0.072689    0.145055
     11          6           0        0.535445   -1.011615    1.074832
     12          6           0       -1.342564   -3.209934   -1.269064
     13          6           0       -0.420261   -4.389003   -1.233053
     14          6           0        0.835526   -4.331166   -2.072873
     15          8           0        0.937155   -4.562752   -3.254391
     16          8           0        1.926112   -4.214477   -1.308709
     17          7           0       -3.244767    2.626503   -0.265036
     18          6           0       -1.928863    2.615774   -0.210059
     19          6           0       -1.465872    3.978917   -0.147096
     20          6           0       -2.543040    4.883768   -0.155793
     21          6           0       -3.694746    3.947665   -0.173370
     22          6           0        0.023294    4.269483   -0.162992
     23          6           0       -2.544599    6.423417   -0.156086
     24          8           0       -3.584139    7.119108   -0.106642
     25          6           0       -1.220900    7.128872   -0.326635
     26          7           0       -6.203134    2.192235    0.044888
     27          6           0       -6.225307    3.549700   -0.122340
     28          6           0       -7.631787    4.183023   -0.078429
     29          6           0       -8.530596    2.851509    0.152630
     30          6           0       -7.492020    1.718476    0.139203
     31          6           0       -7.782966    5.209989    1.047391
     32          6           0       -9.620260    2.597201   -0.992114
     33          6           0      -10.954991    2.133838   -0.548314
     34          7           0       -5.730813   -0.764415    0.313471
     35          6           0       -7.058748   -0.762618    0.377386
     36          6           0       -7.474317   -2.134199    0.740398
     37          6           0       -6.356471   -2.912665    0.651883
     38          6           0       -5.295154   -2.035058    0.529838
     39          6           0       -8.858059   -2.588980    0.816597
     40          6           0       -5.774410   -4.233746    0.775603
     41          8           0       -6.327221   -5.316005    0.977536
     42          6           0       -4.242159   -4.103923    0.534838
     43          6           0       -3.609059   -4.778262    1.726989
     44          8           0       -3.869067   -4.653670    2.910027
     45          8           0       -2.719554   -5.659994    1.204237
     46          6           0       -2.157501   -6.558121    2.230342
     47          6           0        3.272241   -4.398228   -1.967482
     48          6           0        3.909306   -3.023464   -2.148537
     49          6           0        5.154059   -2.521911   -2.226304
     50          6           0        6.342670   -3.368453   -1.881005
     51          6           0        5.523673   -1.054258   -2.491974
     52          6           0        6.455380   -0.764395   -3.699090
     53          6           0        7.894075   -0.235796   -3.324593
     54          6           0        8.206744    1.198880   -3.771180
     55          6           0        8.495400    1.111400   -5.311278
     56          6           0        9.509808    1.688804   -2.928541
     57          6           0        9.060441    2.604319   -1.819350
     58          6           0       10.076986    2.439906   -0.629823
     59          6           0        9.563860    1.627091    0.560801
     60          6           0        9.603765    0.116475    0.213072
     61          6           0       10.542861    1.896124    1.809909
     62          6           0        9.647973    2.036152    3.117440
     63          6           0        9.676512    0.686795    3.936676
     64          6           0       10.255547    0.957649    5.389683
     65          6           0       11.844462    1.167890    5.383382
     66          6           0        9.909876   -0.385750    6.164046
     67          1           0       -0.106633    1.552686   -0.000131
     68          1           0       -5.235185    5.399623   -0.283462
     69          1           0       -8.945468    0.197702    0.376944
     70          1           0       -1.169985   -2.990110    0.940187
     71          1           0        0.019090   -0.912592   -0.909832
     72          1           0        1.420464   -0.484583    0.718321
     73          1           0        0.868467   -1.975911    1.456957
     74          1           0        0.158846   -0.431834    1.916949
     75          1           0       -0.952419   -2.456662   -1.953513
     76          1           0       -2.275983   -3.433128   -1.784570
     77          1           0       -0.976920   -5.270308   -1.552745
     78          1           0       -0.110189   -4.548001   -0.199697
     79          1           0        0.316420    4.894778   -1.006309
     80          1           0        0.638057    3.370127   -0.126071
     81          1           0        0.213818    4.687055    0.825328
     82          1           0       -1.407698    8.178527   -0.555145
     83          1           0       -0.654092    6.795284   -1.196748
     84          1           0       -0.723073    6.815821    0.591163
     85          1           0       -7.811135    4.720519   -1.009697
     86          1           0       -8.915711    2.819528    1.171977
     87          1           0       -8.693741    5.041537    1.622914
     88          1           0       -7.764457    6.224386    0.647712
     89          1           0       -6.923339    5.164515    1.714635
     90          1           0       -9.230682    1.826563   -1.657487
     91          1           0       -9.717935    3.482976   -1.618524
     92          1           0      -11.713764    2.794068   -0.968172
     93          1           0      -11.007868    2.051862    0.537519
     94          1           0      -11.193836    1.123002   -0.877487
     95          1           0       -9.268072   -1.987087    1.627033
     96          1           0       -8.912090   -3.558253    1.312982
     97          1           0       -9.420049   -2.566570   -0.117854
     98          1           0       -3.963953   -4.554366   -0.417585
     99          1           0       -2.969632   -6.965852    2.832576
    100          1           0       -1.596244   -6.011198    2.987998
    101          1           0       -1.528233   -7.334519    1.794760
    102          1           0        3.201833   -5.022122   -2.858282
    103          1           0        3.945321   -4.988047   -1.345156
    104          1           0        3.140185   -2.265449   -2.294409
    105          1           0        5.974006   -4.300717   -1.453833
    106          1           0        6.828947   -2.947012   -1.000691
    107          1           0        7.039217   -3.526396   -2.704472
    108          1           0        6.001450   -0.782683   -1.550604
    109          1           0        4.681816   -0.368628   -2.577908
    110          1           0        5.849002   -0.071176   -4.282322
    111          1           0        6.445634   -1.672872   -4.300352
    112          1           0        8.525986   -1.010265   -3.759629
    113          1           0        8.099182   -0.267963   -2.254885
    114          1           0        7.308527    1.782972   -3.568728
    115          1           0        7.670963    1.643689   -5.785646
    116          1           0        8.452964    0.117666   -5.755716
    117          1           0        9.404423    1.685696   -5.487771
    118          1           0       10.287303    2.110370   -3.565773
    119          1           0        9.982128    0.795097   -2.523046
    120          1           0        8.049728    2.446474   -1.443769
    121          1           0        9.057626    3.650855   -2.121390
    122          1           0       10.344190    3.472323   -0.404071
    123          1           0       11.007800    1.958871   -0.930712
    124          1           0        8.526885    1.863896    0.796600
    125          1           0       10.314881   -0.025607   -0.599571
    126          1           0        8.639124   -0.106955   -0.242142
    127          1           0        9.750809   -0.469068    1.120573
    128          1           0       11.100439    2.819477    1.653244
    129          1           0       11.289212    1.104866    1.886771
    130          1           0        8.561072    2.090365    3.047774
    131          1           0        9.945697    2.921576    3.679178
    132          1           0       10.374187   -0.032139    3.507370
    133          1           0        8.706917    0.189868    3.935632
    134          1           0        9.726041    1.841026    5.748657
    135          1           0       12.150142    1.977965    4.722173
    136          1           0       12.310182    0.211036    5.147344
    137          1           0       12.123157    1.498922    6.384182
    138          1           0        9.138354   -0.243095    6.920978
    139          1           0       10.764913   -0.792064    6.702904
    140          1           0        9.548904   -1.180905    5.511094
 ---------------------------------------------------------------------

 SCF Done:  E(RB-LYP) =  -3007.36416195     A.U. after   21 cycles

 Excitation energies and oscillator strengths:

 Excited State   1:      Singlet-A      1.7825 eV  695.58 nm  f=0.3284  <S**2>=0.000
     245 -> 248       -0.14518
     245 -> 249        0.10245
     246 -> 247        0.69953
     246 <- 247       -0.16713
 This state for optimization and/or second-order correction.
 Total Energy, E(TD-HF/TD-DFT) =  -3007.29865774
 Copying the excited state density for this state as the 1-particle RhoCI density.

 Excited State   2:      Singlet-A      1.9821 eV  625.51 nm  f=0.0067  <S**2>=0.000
     243 -> 247       -0.19909
     244 -> 247        0.64934
     245 -> 247       -0.18324

 Excited State   3:      Singlet-A      1.9886 eV  623.46 nm  f=0.0135  <S**2>=0.000
     243 -> 247        0.58974
     244 -> 247        0.26575
     245 -> 247        0.26729

 Excited State   4:      Singlet-A      2.0256 eV  612.09 nm  f=0.0670  <S**2>=0.000
     243 -> 247       -0.33383
     245 -> 247        0.57140
     246 -> 248        0.17570
     246 -> 249       -0.12471

 Excited State   5:      Singlet-A      2.3999 eV  516.62 nm  f=0.0007  <S**2>=0.000
     241 -> 247       -0.15376
     242 -> 247        0.69002

 The electronic state is 1-A.
 Alpha  occ. eigenvalues --  -46.27148 -18.83048 -18.82187 -18.77294 -18.75990
 Alpha  occ. eigenvalues --  -18.75903 -18.75801 -14.03694 -14.03203 -14.01091
 Alpha  occ. eigenvalues --  -14.00686 -10.04236 -10.03611 -10.00633  -9.99756
 Alpha  occ. eigenvalues --   -9.98909  -9.97782  -9.97226  -9.96812  -9.96447
 Alpha  occ. eigenvalues --   -9.96152  -9.95843  -9.95382  -9.95159  -9.94867
 Alpha  occ. eigenvalues --   -9.94256  -9.94135  -9.94113  -9.94112  -9.93919
 Alpha  occ. eigenvalues --   -9.93686  -9.93556  -9.93494  -9.93299  -9.93286
 Alpha  occ. eigenvalues --   -9.93075  -9.93024  -9.92913  -9.92908  -9.92889
 Alpha  occ. eigenvalues --   -9.92656  -9.92565  -9.92431  -9.92329  -9.92286
 Alpha  occ. eigenvalues --   -9.92227  -9.92137  -9.92108  -9.92084  -9.92057
 Alpha  occ. eigenvalues --   -9.91837  -9.91699  -9.91606  -9.91593  -9.91588
 Alpha  occ. eigenvalues --   -9.91570  -9.91560  -9.91498  -9.91424  -9.91411
 Alpha  occ. eigenvalues --   -9.91191  -9.91053  -9.90890  -9.90885  -9.90845
 Alpha  occ. eigenvalues --   -9.90475  -2.91739  -1.72173  -1.71604  -1.71461
 Alpha  occ. eigenvalues --   -0.98799  -0.98646  -0.91117  -0.90342  -0.90317
 Alpha  occ. eigenvalues --   -0.89462  -0.87151  -0.85957  -0.85066  -0.83343
 Alpha  occ. eigenvalues --   -0.76240  -0.73743  -0.73325  -0.72849  -0.72000
 Alpha  occ. eigenvalues --   -0.71501  -0.71422  -0.71200  -0.70540  -0.70369
 Alpha  occ. eigenvalues --   -0.70253  -0.69266  -0.68128  -0.68048  -0.67256
 Alpha  occ. eigenvalues --   -0.66617  -0.66013  -0.65532  -0.64980  -0.64637
 Alpha  occ. eigenvalues --   -0.64049  -0.62769  -0.62452  -0.61897  -0.60769
 Alpha  occ. eigenvalues --   -0.60384  -0.60008  -0.59696  -0.59456  -0.58673
 Alpha  occ. eigenvalues --   -0.58152  -0.57412  -0.56436  -0.55877  -0.54390
 Alpha  occ. eigenvalues --   -0.53946  -0.53853  -0.52850  -0.52659  -0.51679
 Alpha  occ. eigenvalues --   -0.51514  -0.51353  -0.50755  -0.50445  -0.50253
 Alpha  occ. eigenvalues --   -0.49686  -0.49327  -0.49024  -0.48894  -0.46698
 Alpha  occ. eigenvalues --   -0.46175  -0.46091  -0.45557  -0.45193  -0.44982
 Alpha  occ. eigenvalues --   -0.44406  -0.43918  -0.42874  -0.42733  -0.42532
 Alpha  occ. eigenvalues --   -0.42135  -0.41810  -0.41592  -0.41509  -0.41190
 Alpha  occ. eigenvalues --   -0.40824  -0.40557  -0.40464  -0.40298  -0.40005
 Alpha  occ. eigenvalues --   -0.39781  -0.39678  -0.39491  -0.39248  -0.39129
 Alpha  occ. eigenvalues --   -0.39064  -0.38817  -0.38785  -0.38754  -0.38535
 Alpha  occ. eigenvalues --   -0.38420  -0.38369  -0.38006  -0.37857  -0.37807
 Alpha  occ. eigenvalues --   -0.37400  -0.37289  -0.36759  -0.36557  -0.36516
 Alpha  occ. eigenvalues --   -0.36435  -0.35856  -0.35664  -0.35450  -0.35358
 Alpha  occ. eigenvalues --   -0.35275  -0.35114  -0.35074  -0.34865  -0.34558
 Alpha  occ. eigenvalues --   -0.34454  -0.34252  -0.34140  -0.34018  -0.33841
 Alpha  occ. eigenvalues --   -0.33682  -0.33532  -0.33469  -0.33269  -0.33218
 Alpha  occ. eigenvalues --   -0.33048  -0.32947  -0.32686  -0.32508  -0.32332
 Alpha  occ. eigenvalues --   -0.31947  -0.31820  -0.31661  -0.31369  -0.31337
 Alpha  occ. eigenvalues --   -0.31261  -0.31145  -0.31133  -0.30992  -0.30684
 Alpha  occ. eigenvalues --   -0.30679  -0.30440  -0.30294  -0.30120  -0.30045
 Alpha  occ. eigenvalues --   -0.29794  -0.29633  -0.29433  -0.29353  -0.29218
 Alpha  occ. eigenvalues --   -0.29136  -0.28718  -0.28388  -0.28256  -0.28032
 Alpha  occ. eigenvalues --   -0.27681  -0.27481  -0.27248  -0.27020  -0.26589
 Alpha  occ. eigenvalues --   -0.26505  -0.26372  -0.25993  -0.25771  -0.25675
 Alpha  occ. eigenvalues --   -0.25574  -0.24849  -0.24381  -0.23769  -0.23465
 Alpha  occ. eigenvalues --   -0.23023  -0.22017  -0.21766  -0.21463  -0.21131
 Alpha  occ. eigenvalues --   -0.20646  -0.20581  -0.19041  -0.18955  -0.17384
 Alpha  occ. eigenvalues --   -0.15791
 Alpha virt. eigenvalues --   -0.11767  -0.06690  -0.06213  -0.05175  -0.02800
 Alpha virt. eigenvalues --   -0.02514  -0.02452  -0.02002  -0.01593   0.00219
 Alpha virt. eigenvalues --    0.00952   0.01560   0.01919   0.02425   0.02891

 Mulliken charges:
               1
     1  Mg   0.695076
     2  C   -0.022828
     3  C   -0.053035
     4  C   -0.022657
     5  C   -0.053674
     6  N   -0.290018
     7  C   -0.090796
     8  C    0.073873
     9  C   -0.045912
    10  C    0.093640
    11  C    0.115541
    12  C    0.118591
    13  C    0.187145
    14  C    0.027934
    15  O   -0.185568
    16  O   -0.264934
    17  N   -0.234969
    18  C    0.103881
    19  C   -0.154571
    20  C    0.034582
    21  C    0.020331
    22  C    0.174184
    23  C   -0.057964
    24  O   -0.180780
    25  C    0.136857
    26  N   -0.231107
    27  C    0.029364
    28  C    0.013150
    29  C    0.032635
    30  C    0.037739
    31  C    0.115928
    32  C    0.081536
    33  C    0.083821
    34  N   -0.222431
    35  C    0.069516
    36  C   -0.228728
    37  C    0.152633
    38  C    0.039110
    39  C    0.189167
    40  C   -0.070710
    41  O   -0.138676
    42  C    0.118518
    43  C    0.104405
    44  O   -0.167233
    45  O   -0.262842
    46  C    0.226478
    47  C    0.324055
    48  C   -0.093771
    49  C   -0.149873
    50  C    0.144348
    51  C    0.128560
    52  C    0.057562
    53  C    0.097897
    54  C   -0.096577
    55  C    0.123914
    56  C    0.115705
    57  C    0.099724
    58  C    0.062108
    59  C   -0.076980
    60  C    0.101456
    61  C    0.107965
    62  C    0.072898
    63  C    0.027077
    64  C   -0.093010
    65  C    0.086700
    66  C    0.097739
    67  H   -0.076599
    68  H   -0.045515
    69  H   -0.058400
    70  H   -0.018293
    71  H   -0.006920
    72  H   -0.009112
    73  H   -0.004159
    74  H   -0.011768
    75  H   -0.028032
    76  H   -0.014238
    77  H    0.003089
    78  H   -0.016167
    79  H    0.014928
    80  H   -0.028954
    81  H   -0.003575
    82  H   -0.000140
    83  H    0.005707
    84  H    0.012763
    85  H   -0.011686
    86  H   -0.009913
    87  H   -0.007675
    88  H   -0.002412
    89  H   -0.001394
    90  H   -0.017976
    91  H   -0.022321
    92  H   -0.007140
    93  H   -0.012265
    94  H   -0.011509
    95  H   -0.016878
    96  H   -0.010269
    97  H    0.022158
    98  H    0.002100
    99  H    0.017222
   100  H    0.001862
   101  H    0.018974
   102  H    0.021689
   103  H   -0.016695
   104  H   -0.045713
   105  H   -0.038107
   106  H   -0.009243
   107  H    0.010391
   108  H   -0.022420
   109  H   -0.044006
   110  H   -0.028363
   111  H   -0.023371
   112  H   -0.029933
   113  H   -0.044707
   114  H   -0.026392
   115  H   -0.027358
   116  H   -0.006755
   117  H   -0.017633
   118  H   -0.032659
   119  H   -0.035589
   120  H   -0.033546
   121  H   -0.033025
   122  H   -0.041289
   123  H   -0.032203
   124  H   -0.034196
   125  H   -0.011897
   126  H   -0.003685
   127  H   -0.012014
   128  H   -0.039340
   129  H   -0.021597
   130  H   -0.024666
   131  H   -0.022484
   132  H   -0.024061
   133  H   -0.021885
   134  H   -0.025414
   135  H   -0.010633
   136  H   -0.002178
   137  H   -0.008680
   138  H   -0.017619
   139  H   -0.026242
   140  H   -0.015675
 Sum of Mulliken charges =  -0.00000

 Dipole moment (field-independent basis, Debye):
    X=              4.2665    Y=              1.6326    Z=             -0.9075  Tot=              4.6574
 Quadrupole moment (field-independent basis, Debye-Ang):
   XX=           -379.6382   YY=           -431.5141   ZZ=           -419.4944
   XY=            -20.1948   XZ=             14.6138   YZ=             -3.7368

 Normal termination of Gaussian 16 at Wed May  4 00:13:39 2022.
