 Gaussian 16, Revision A.03,
 Gaussian 16:  ES64L-G16RevA.03 25-Dec-2016

 -----------------------------------
 #p cam-b3lyp/Def2SVP td=(nstates=5)
 -----------------------------------

 --------------------------------------------------------
 step_1101_chromophore_27 TDDFT with cam-b3lyp functional
 --------------------------------------------------------
 Symbolic Z-matrix:
 Charge =  0 Multiplicity = 1

                         Standard orientation:
 ---------------------------------------------------------------------
 Center     Atomic      Atomic             Coordinates (Angstroms)
 Number     Number       Type             X           Y           Z
 ---------------------------------------------------------------------
      1         12           0       -4.522817    0.873188   -0.120965
      2          6           0       -4.022096   -2.616441    0.444719
      3          6           0       -1.184595    1.390982   -0.066795
      4          6           0       -5.109597    4.315531   -0.294227
      5          6           0       -7.874451    0.408000    0.399117
      6          7           0       -2.909959   -0.443790    0.227568
      7          6           0       -2.840007   -1.855449    0.285460
      8          6           0       -1.427976   -2.413876    0.051258
      9          6           0       -0.538579   -1.059523    0.015575
     10          6           0       -1.572568    0.072689    0.145055
     11          6           0        0.535445   -1.011615    1.074832
     12          6           0       -1.342564   -3.209934   -1.269064
     13          6           0       -0.420261   -4.389003   -1.233053
     14          6           0        0.835526   -4.331166   -2.072873
     15          8           0        0.937155   -4.562752   -3.254391
     16          8           0        1.926112   -4.214477   -1.308709
     17          7           0       -3.244767    2.626503   -0.265036
     18          6           0       -1.928863    2.615774   -0.210059
     19          6           0       -1.465872    3.978917   -0.147096
     20          6           0       -2.543040    4.883768   -0.155793
     21          6           0       -3.694746    3.947665   -0.173370
     22          6           0        0.023294    4.269483   -0.162992
     23          6           0       -2.544599    6.423417   -0.156086
     24          8           0       -3.584139    7.119108   -0.106642
     25          6           0       -1.220900    7.128872   -0.326635
     26          7           0       -6.203134    2.192235    0.044888
     27          6           0       -6.225307    3.549700   -0.122340
     28          6           0       -7.631787    4.183023   -0.078429
     29          6           0       -8.530596    2.851509    0.152630
     30          6           0       -7.492020    1.718476    0.139203
     31          6           0       -7.782966    5.209989    1.047391
     32          6           0       -9.620260    2.597201   -0.992114
     33          6           0      -10.954991    2.133838   -0.548314
     34          7           0       -5.730813   -0.764415    0.313471
     35          6           0       -7.058748   -0.762618    0.377386
     36          6           0       -7.474317   -2.134199    0.740398
     37          6           0       -6.356471   -2.912665    0.651883
     38          6           0       -5.295154   -2.035058    0.529838
     39          6           0       -8.858059   -2.588980    0.816597
     40          6           0       -5.774410   -4.233746    0.775603
     41          8           0       -6.327221   -5.316005    0.977536
     42          6           0       -4.242159   -4.103923    0.534838
     43          6           0       -3.609059   -4.778262    1.726989
     44          8           0       -3.869067   -4.653670    2.910027
     45          8           0       -2.719554   -5.659994    1.204237
     46          6           0       -2.157501   -6.558121    2.230342
     47          6           0        3.272241   -4.398228   -1.967482
     48          6           0        3.909306   -3.023464   -2.148537
     49          6           0        5.154059   -2.521911   -2.226304
     50          6           0        6.342670   -3.368453   -1.881005
     51          6           0        5.523673   -1.054258   -2.491974
     52          6           0        6.455380   -0.764395   -3.699090
     53          6           0        7.894075   -0.235796   -3.324593
     54          6           0        8.206744    1.198880   -3.771180
     55          6           0        8.495400    1.111400   -5.311278
     56          6           0        9.509808    1.688804   -2.928541
     57          6           0        9.060441    2.604319   -1.819350
     58          6           0       10.076986    2.439906   -0.629823
     59          6           0        9.563860    1.627091    0.560801
     60          6           0        9.603765    0.116475    0.213072
     61          6           0       10.542861    1.896124    1.809909
     62          6           0        9.647973    2.036152    3.117440
     63          6           0        9.676512    0.686795    3.936676
     64          6           0       10.255547    0.957649    5.389683
     65          6           0       11.844462    1.167890    5.383382
     66          6           0        9.909876   -0.385750    6.164046
     67          1           0       -0.106633    1.552686   -0.000131
     68          1           0       -5.235185    5.399623   -0.283462
     69          1           0       -8.945468    0.197702    0.376944
     70          1           0       -1.169985   -2.990110    0.940187
     71          1           0        0.019090   -0.912592   -0.909832
     72          1           0        1.420464   -0.484583    0.718321
     73          1           0        0.868467   -1.975911    1.456957
     74          1           0        0.158846   -0.431834    1.916949
     75          1           0       -0.952419   -2.456662   -1.953513
     76          1           0       -2.275983   -3.433128   -1.784570
     77          1           0       -0.976920   -5.270308   -1.552745
     78          1           0       -0.110189   -4.548001   -0.199697
     79          1           0        0.316420    4.894778   -1.006309
     80          1           0        0.638057    3.370127   -0.126071
     81          1           0        0.213818    4.687055    0.825328
     82          1           0       -1.407698    8.178527   -0.555145
     83          1           0       -0.654092    6.795284   -1.196748
     84          1           0       -0.723073    6.815821    0.591163
     85          1           0       -7.811135    4.720519   -1.009697
     86          1           0       -8.915711    2.819528    1.171977
     87          1           0       -8.693741    5.041537    1.622914
     88          1           0       -7.764457    6.224386    0.647712
     89          1           0       -6.923339    5.164515    1.714635
     90          1           0       -9.230682    1.826563   -1.657487
     91          1           0       -9.717935    3.482976   -1.618524
     92          1           0      -11.713764    2.794068   -0.968172
     93          1           0      -11.007868    2.051862    0.537519
     94          1           0      -11.193836    1.123002   -0.877487
     95          1           0       -9.268072   -1.987087    1.627033
     96          1           0       -8.912090   -3.558253    1.312982
     97          1           0       -9.420049   -2.566570   -0.117854
     98          1           0       -3.963953   -4.554366   -0.417585
     99          1           0       -2.969632   -6.965852    2.832576
    100          1           0       -1.596244   -6.011198    2.987998
    101          1           0       -1.528233   -7.334519    1.794760
    102          1           0        3.201833   -5.022122   -2.858282
    103          1           0        3.945321   -4.988047   -1.345156
    104          1           0        3.140185   -2.265449   -2.294409
    105          1           0        5.974006   -4.300717   -1.453833
    106          1           0        6.828947   -2.947012   -1.000691
    107          1           0        7.039217   -3.526396   -2.704472
    108          1           0        6.001450   -0.782683   -1.550604
    109          1           0        4.681816   -0.368628   -2.577908
    110          1           0        5.849002   -0.071176   -4.282322
    111          1           0        6.445634   -1.672872   -4.300352
    112          1           0        8.525986   -1.010265   -3.759629
    113          1           0        8.099182   -0.267963   -2.254885
    114          1           0        7.308527    1.782972   -3.568728
    115          1           0        7.670963    1.643689   -5.785646
    116          1           0        8.452964    0.117666   -5.755716
    117          1           0        9.404423    1.685696   -5.487771
    118          1           0       10.287303    2.110370   -3.565773
    119          1           0        9.982128    0.795097   -2.523046
    120          1           0        8.049728    2.446474   -1.443769
    121          1           0        9.057626    3.650855   -2.121390
    122          1           0       10.344190    3.472323   -0.404071
    123          1           0       11.007800    1.958871   -0.930712
    124          1           0        8.526885    1.863896    0.796600
    125          1           0       10.314881   -0.025607   -0.599571
    126          1           0        8.639124   -0.106955   -0.242142
    127          1           0        9.750809   -0.469068    1.120573
    128          1           0       11.100439    2.819477    1.653244
    129          1           0       11.289212    1.104866    1.886771
    130          1           0        8.561072    2.090365    3.047774
    131          1           0        9.945697    2.921576    3.679178
    132          1           0       10.374187   -0.032139    3.507370
    133          1           0        8.706917    0.189868    3.935632
    134          1           0        9.726041    1.841026    5.748657
    135          1           0       12.150142    1.977965    4.722173
    136          1           0       12.310182    0.211036    5.147344
    137          1           0       12.123157    1.498922    6.384182
    138          1           0        9.138354   -0.243095    6.920978
    139          1           0       10.764913   -0.792064    6.702904
    140          1           0        9.548904   -1.180905    5.511094
 ---------------------------------------------------------------------

 SCF Done:  E(RCAM-B3LYP) =  -3007.15522592     A.U. after   19 cycles

 Excitation energies and oscillator strengths:

 Excited State   1:      Singlet-A      1.6484 eV  752.17 nm  f=0.4025  <S**2>=0.000
     245 -> 248       -0.16321
     246 -> 247        0.69134
     245 <- 248       -0.10669
 This state for optimization and/or second-order correction.
 Total Energy, E(TD-HF/TD-DFT) =  -3007.09464990
 Copying the excited state density for this state as the 1-particle RhoCI density.

 Excited State   2:      Singlet-A      2.2141 eV  559.98 nm  f=0.1311  <S**2>=0.000
     245 -> 247        0.65008
     246 -> 248        0.26885

 Excited State   3:      Singlet-A      3.4053 eV  364.09 nm  f=0.0008  <S**2>=0.000
     242 -> 247       -0.20759
     244 -> 247        0.65292

 Excited State   4:      Singlet-A      3.5121 eV  353.02 nm  f=0.0245  <S**2>=0.000
     239 -> 247       -0.26781
     239 -> 249        0.17241
     239 -> 250       -0.10895
     240 -> 247        0.27338
     240 -> 249       -0.19020
     240 -> 250        0.11458
     242 -> 247        0.40438
     244 -> 247        0.18238
     246 -> 248       -0.20829

 Excited State   5:      Singlet-A      3.5668 eV  347.61 nm  f=0.2015  <S**2>=0.000
     239 -> 247       -0.20557
     239 -> 249        0.13530
     240 -> 247        0.32348
     240 -> 249       -0.13945
     242 -> 247       -0.29140
     245 -> 247       -0.14367
     246 -> 248        0.42312

 The electronic state is 1-A.
 Alpha  occ. eigenvalues --  -46.88688 -19.26130 -19.25088 -19.20512 -19.19312
 Alpha  occ. eigenvalues --  -19.19053 -19.18872 -14.42691 -14.42061 -14.39453
 Alpha  occ. eigenvalues --  -14.39228 -10.39779 -10.38786 -10.35766 -10.35313
 Alpha  occ. eigenvalues --  -10.33109 -10.32050 -10.31915 -10.31179 -10.31024
 Alpha  occ. eigenvalues --  -10.30365 -10.30034 -10.29937 -10.29085 -10.29037
 Alpha  occ. eigenvalues --  -10.28682 -10.28665 -10.28240 -10.28129 -10.28074
 Alpha  occ. eigenvalues --  -10.27798 -10.27795 -10.27663 -10.27470 -10.27424
 Alpha  occ. eigenvalues --  -10.27226 -10.27163 -10.27139 -10.26812 -10.26697
 Alpha  occ. eigenvalues --  -10.26645 -10.26298 -10.26271 -10.26229 -10.26143
 Alpha  occ. eigenvalues --  -10.26048 -10.25913 -10.25839 -10.25813 -10.25788
 Alpha  occ. eigenvalues --  -10.25729 -10.25483 -10.25338 -10.25334 -10.25247
 Alpha  occ. eigenvalues --  -10.25221 -10.25196 -10.25173 -10.25110 -10.25089
 Alpha  occ. eigenvalues --  -10.24924 -10.24830 -10.24708 -10.24573 -10.24508
 Alpha  occ. eigenvalues --  -10.24449  -3.17181  -1.92092  -1.91626  -1.91488
 Alpha  occ. eigenvalues --   -1.17496  -1.17162  -1.09732  -1.08513  -1.08481
 Alpha  occ. eigenvalues --   -1.07323  -1.05073  -1.03412  -1.02600  -1.00916
 Alpha  occ. eigenvalues --   -0.93612  -0.90641  -0.90154  -0.89659  -0.88690
 Alpha  occ. eigenvalues --   -0.88172  -0.88095  -0.87804  -0.87067  -0.86950
 Alpha  occ. eigenvalues --   -0.86878  -0.85610  -0.84385  -0.84278  -0.83401
 Alpha  occ. eigenvalues --   -0.82650  -0.82106  -0.81546  -0.80801  -0.80494
 Alpha  occ. eigenvalues --   -0.79835  -0.78539  -0.78030  -0.77455  -0.76257
 Alpha  occ. eigenvalues --   -0.75761  -0.75348  -0.75023  -0.74667  -0.73800
 Alpha  occ. eigenvalues --   -0.73282  -0.72502  -0.71289  -0.70708  -0.69092
 Alpha  occ. eigenvalues --   -0.68517  -0.68417  -0.67263  -0.67046  -0.65812
 Alpha  occ. eigenvalues --   -0.65748  -0.65528  -0.64744  -0.64501  -0.64317
 Alpha  occ. eigenvalues --   -0.63373  -0.63299  -0.62897  -0.62788  -0.60257
 Alpha  occ. eigenvalues --   -0.59866  -0.59710  -0.59124  -0.58867  -0.58401
 Alpha  occ. eigenvalues --   -0.57967  -0.57370  -0.56095  -0.55843  -0.55793
 Alpha  occ. eigenvalues --   -0.55357  -0.55031  -0.54494  -0.54337  -0.54161
 Alpha  occ. eigenvalues --   -0.53834  -0.53157  -0.53132  -0.53061  -0.52873
 Alpha  occ. eigenvalues --   -0.52477  -0.52336  -0.52265  -0.52043  -0.51787
 Alpha  occ. eigenvalues --   -0.51681  -0.51307  -0.51141  -0.51071  -0.51011
 Alpha  occ. eigenvalues --   -0.50839  -0.50763  -0.50697  -0.50233  -0.50097
 Alpha  occ. eigenvalues --   -0.49722  -0.49541  -0.49201  -0.48826  -0.48657
 Alpha  occ. eigenvalues --   -0.48533  -0.48465  -0.48023  -0.47784  -0.47616
 Alpha  occ. eigenvalues --   -0.47286  -0.47182  -0.47000  -0.46746  -0.46535
 Alpha  occ. eigenvalues --   -0.46356  -0.46140  -0.45935  -0.45866  -0.45730
 Alpha  occ. eigenvalues --   -0.45476  -0.45360  -0.45173  -0.45094  -0.44842
 Alpha  occ. eigenvalues --   -0.44804  -0.44749  -0.44490  -0.44456  -0.43847
 Alpha  occ. eigenvalues --   -0.43537  -0.43374  -0.43305  -0.43138  -0.42865
 Alpha  occ. eigenvalues --   -0.42766  -0.42679  -0.42602  -0.42495  -0.42419
 Alpha  occ. eigenvalues --   -0.42163  -0.41873  -0.41553  -0.41307  -0.41288
 Alpha  occ. eigenvalues --   -0.41219  -0.40880  -0.40746  -0.40539  -0.40425
 Alpha  occ. eigenvalues --   -0.40412  -0.39625  -0.39506  -0.39187  -0.38877
 Alpha  occ. eigenvalues --   -0.38734  -0.38288  -0.38128  -0.37846  -0.37582
 Alpha  occ. eigenvalues --   -0.37354  -0.37271  -0.37105  -0.37035  -0.37020
 Alpha  occ. eigenvalues --   -0.36532  -0.35505  -0.35285  -0.34838  -0.34412
 Alpha  occ. eigenvalues --   -0.33649  -0.33048  -0.31913  -0.31524  -0.31377
 Alpha  occ. eigenvalues --   -0.31194  -0.30533  -0.30320  -0.29885  -0.24217
 Alpha  occ. eigenvalues --   -0.21072
 Alpha virt. eigenvalues --   -0.09007  -0.01234   0.00259   0.01777   0.02547
 Alpha virt. eigenvalues --    0.04898   0.05146   0.05314   0.05400   0.06801
 Alpha virt. eigenvalues --    0.07918   0.07991   0.08442   0.08914   0.09195

 Mulliken charges:
               1
     1  Mg   0.826563
     2  C   -0.056740
     3  C   -0.063892
     4  C   -0.037159
     5  C   -0.063699
     6  N   -0.360846
     7  C   -0.039297
     8  C    0.024265
     9  C   -0.096235
    10  C    0.108222
    11  C    0.057020
    12  C    0.057571
    13  C    0.112582
    14  C    0.112486
    15  O   -0.227883
    16  O   -0.329421
    17  N   -0.318314
    18  C    0.111482
    19  C   -0.163872
    20  C   -0.035812
    21  C    0.046658
    22  C    0.113865
    23  C    0.024068
    24  O   -0.223369
    25  C    0.055178
    26  N   -0.304120
    27  C    0.043139
    28  C   -0.034064
    29  C   -0.028752
    30  C    0.060366
    31  C    0.056559
    32  C    0.026711
    33  C    0.017173
    34  N   -0.313079
    35  C    0.088236
    36  C   -0.217196
    37  C    0.074697
    38  C    0.078928
    39  C    0.121856
    40  C    0.030896
    41  O   -0.174330
    42  C    0.041621
    43  C    0.194119
    44  O   -0.205724
    45  O   -0.325920
    46  C    0.181113
    47  C    0.295212
    48  C   -0.114965
    49  C   -0.173355
    50  C    0.083716
    51  C    0.078626
    52  C   -0.002382
    53  C    0.051956
    54  C   -0.149884
    55  C    0.066050
    56  C    0.062192
    57  C    0.044157
    58  C    0.006396
    59  C   -0.126989
    60  C    0.048221
    61  C    0.053314
    62  C    0.013910
    63  C   -0.019297
    64  C   -0.148046
    65  C    0.030504
    66  C    0.036304
    67  H   -0.043939
    68  H   -0.006506
    69  H   -0.025126
    70  H    0.014707
    71  H    0.025051
    72  H    0.014156
    73  H    0.020658
    74  H    0.015208
    75  H    0.005823
    76  H    0.017851
    77  H    0.036221
    78  H    0.018175
    79  H    0.038205
    80  H   -0.000375
    81  H    0.022353
    82  H    0.034250
    83  H    0.032955
    84  H    0.037197
    85  H    0.021964
    86  H    0.023895
    87  H    0.016028
    88  H    0.021833
    89  H    0.025164
    90  H    0.012308
    91  H    0.007322
    92  H    0.018369
    93  H    0.010614
    94  H    0.011442
    95  H    0.011020
    96  H    0.021252
    97  H    0.048452
    98  H    0.045694
    99  H    0.042802
   100  H    0.026666
   101  H    0.043648
   102  H    0.054719
   103  H    0.011255
   104  H   -0.016564
   105  H   -0.013249
   106  H    0.014916
   107  H    0.033280
   108  H    0.004076
   109  H   -0.011881
   110  H    0.000864
   111  H    0.005809
   112  H   -0.001461
   113  H   -0.024018
   114  H    0.003680
   115  H   -0.002923
   116  H    0.016389
   117  H    0.006175
   118  H   -0.002599
   119  H   -0.009514
   120  H   -0.005975
   121  H   -0.002483
   122  H   -0.010211
   123  H   -0.004095
   124  H   -0.003956
   125  H    0.009706
   126  H    0.014693
   127  H    0.012289
   128  H   -0.008963
   129  H    0.005214
   130  H    0.003624
   131  H    0.005317
   132  H   -0.001570
   133  H    0.006157
   134  H    0.004474
   135  H    0.011511
   136  H    0.019182
   137  H    0.015453
   138  H    0.007243
   139  H   -0.001165
   140  H    0.007976
 Sum of Mulliken charges =  -0.00000

 Dipole moment (field-independent basis, Debye):
    X=              4.3149    Y=              1.3351    Z=             -0.8800  Tot=              4.6016
 Quadrupole moment (field-independent basis, Debye-Ang):
   XX=           -376.4455   YY=           -428.8562   ZZ=           -420.4737
   XY=            -18.5636   XZ=             14.8914   YZ=             -4.6927

 Normal termination of Gaussian 16 at Tue May  3 23:17:24 2022.
