 Gaussian 16, Revision A.03,
 Gaussian 16:  ES64L-G16RevA.03 25-Dec-2016

 ---------------------------------
 #p PBE1PBE/Def2SVP td=(nstates=5)
 ---------------------------------

 ------------------------------------------------------
 step_1101_chromophore_27 TDDFT with PBE1PBE functional
 ------------------------------------------------------
 Symbolic Z-matrix:
 Charge =  0 Multiplicity = 1

                         Standard orientation:
 ---------------------------------------------------------------------
 Center     Atomic      Atomic             Coordinates (Angstroms)
 Number     Number       Type             X           Y           Z
 ---------------------------------------------------------------------
      1         12           0       -4.522817    0.873188   -0.120965
      2          6           0       -4.022096   -2.616441    0.444719
      3          6           0       -1.184595    1.390982   -0.066795
      4          6           0       -5.109597    4.315531   -0.294227
      5          6           0       -7.874451    0.408000    0.399117
      6          7           0       -2.909959   -0.443790    0.227568
      7          6           0       -2.840007   -1.855449    0.285460
      8          6           0       -1.427976   -2.413876    0.051258
      9          6           0       -0.538579   -1.059523    0.015575
     10          6           0       -1.572568    0.072689    0.145055
     11          6           0        0.535445   -1.011615    1.074832
     12          6           0       -1.342564   -3.209934   -1.269064
     13          6           0       -0.420261   -4.389003   -1.233053
     14          6           0        0.835526   -4.331166   -2.072873
     15          8           0        0.937155   -4.562752   -3.254391
     16          8           0        1.926112   -4.214477   -1.308709
     17          7           0       -3.244767    2.626503   -0.265036
     18          6           0       -1.928863    2.615774   -0.210059
     19          6           0       -1.465872    3.978917   -0.147096
     20          6           0       -2.543040    4.883768   -0.155793
     21          6           0       -3.694746    3.947665   -0.173370
     22          6           0        0.023294    4.269483   -0.162992
     23          6           0       -2.544599    6.423417   -0.156086
     24          8           0       -3.584139    7.119108   -0.106642
     25          6           0       -1.220900    7.128872   -0.326635
     26          7           0       -6.203134    2.192235    0.044888
     27          6           0       -6.225307    3.549700   -0.122340
     28          6           0       -7.631787    4.183023   -0.078429
     29          6           0       -8.530596    2.851509    0.152630
     30          6           0       -7.492020    1.718476    0.139203
     31          6           0       -7.782966    5.209989    1.047391
     32          6           0       -9.620260    2.597201   -0.992114
     33          6           0      -10.954991    2.133838   -0.548314
     34          7           0       -5.730813   -0.764415    0.313471
     35          6           0       -7.058748   -0.762618    0.377386
     36          6           0       -7.474317   -2.134199    0.740398
     37          6           0       -6.356471   -2.912665    0.651883
     38          6           0       -5.295154   -2.035058    0.529838
     39          6           0       -8.858059   -2.588980    0.816597
     40          6           0       -5.774410   -4.233746    0.775603
     41          8           0       -6.327221   -5.316005    0.977536
     42          6           0       -4.242159   -4.103923    0.534838
     43          6           0       -3.609059   -4.778262    1.726989
     44          8           0       -3.869067   -4.653670    2.910027
     45          8           0       -2.719554   -5.659994    1.204237
     46          6           0       -2.157501   -6.558121    2.230342
     47          6           0        3.272241   -4.398228   -1.967482
     48          6           0        3.909306   -3.023464   -2.148537
     49          6           0        5.154059   -2.521911   -2.226304
     50          6           0        6.342670   -3.368453   -1.881005
     51          6           0        5.523673   -1.054258   -2.491974
     52          6           0        6.455380   -0.764395   -3.699090
     53          6           0        7.894075   -0.235796   -3.324593
     54          6           0        8.206744    1.198880   -3.771180
     55          6           0        8.495400    1.111400   -5.311278
     56          6           0        9.509808    1.688804   -2.928541
     57          6           0        9.060441    2.604319   -1.819350
     58          6           0       10.076986    2.439906   -0.629823
     59          6           0        9.563860    1.627091    0.560801
     60          6           0        9.603765    0.116475    0.213072
     61          6           0       10.542861    1.896124    1.809909
     62          6           0        9.647973    2.036152    3.117440
     63          6           0        9.676512    0.686795    3.936676
     64          6           0       10.255547    0.957649    5.389683
     65          6           0       11.844462    1.167890    5.383382
     66          6           0        9.909876   -0.385750    6.164046
     67          1           0       -0.106633    1.552686   -0.000131
     68          1           0       -5.235185    5.399623   -0.283462
     69          1           0       -8.945468    0.197702    0.376944
     70          1           0       -1.169985   -2.990110    0.940187
     71          1           0        0.019090   -0.912592   -0.909832
     72          1           0        1.420464   -0.484583    0.718321
     73          1           0        0.868467   -1.975911    1.456957
     74          1           0        0.158846   -0.431834    1.916949
     75          1           0       -0.952419   -2.456662   -1.953513
     76          1           0       -2.275983   -3.433128   -1.784570
     77          1           0       -0.976920   -5.270308   -1.552745
     78          1           0       -0.110189   -4.548001   -0.199697
     79          1           0        0.316420    4.894778   -1.006309
     80          1           0        0.638057    3.370127   -0.126071
     81          1           0        0.213818    4.687055    0.825328
     82          1           0       -1.407698    8.178527   -0.555145
     83          1           0       -0.654092    6.795284   -1.196748
     84          1           0       -0.723073    6.815821    0.591163
     85          1           0       -7.811135    4.720519   -1.009697
     86          1           0       -8.915711    2.819528    1.171977
     87          1           0       -8.693741    5.041537    1.622914
     88          1           0       -7.764457    6.224386    0.647712
     89          1           0       -6.923339    5.164515    1.714635
     90          1           0       -9.230682    1.826563   -1.657487
     91          1           0       -9.717935    3.482976   -1.618524
     92          1           0      -11.713764    2.794068   -0.968172
     93          1           0      -11.007868    2.051862    0.537519
     94          1           0      -11.193836    1.123002   -0.877487
     95          1           0       -9.268072   -1.987087    1.627033
     96          1           0       -8.912090   -3.558253    1.312982
     97          1           0       -9.420049   -2.566570   -0.117854
     98          1           0       -3.963953   -4.554366   -0.417585
     99          1           0       -2.969632   -6.965852    2.832576
    100          1           0       -1.596244   -6.011198    2.987998
    101          1           0       -1.528233   -7.334519    1.794760
    102          1           0        3.201833   -5.022122   -2.858282
    103          1           0        3.945321   -4.988047   -1.345156
    104          1           0        3.140185   -2.265449   -2.294409
    105          1           0        5.974006   -4.300717   -1.453833
    106          1           0        6.828947   -2.947012   -1.000691
    107          1           0        7.039217   -3.526396   -2.704472
    108          1           0        6.001450   -0.782683   -1.550604
    109          1           0        4.681816   -0.368628   -2.577908
    110          1           0        5.849002   -0.071176   -4.282322
    111          1           0        6.445634   -1.672872   -4.300352
    112          1           0        8.525986   -1.010265   -3.759629
    113          1           0        8.099182   -0.267963   -2.254885
    114          1           0        7.308527    1.782972   -3.568728
    115          1           0        7.670963    1.643689   -5.785646
    116          1           0        8.452964    0.117666   -5.755716
    117          1           0        9.404423    1.685696   -5.487771
    118          1           0       10.287303    2.110370   -3.565773
    119          1           0        9.982128    0.795097   -2.523046
    120          1           0        8.049728    2.446474   -1.443769
    121          1           0        9.057626    3.650855   -2.121390
    122          1           0       10.344190    3.472323   -0.404071
    123          1           0       11.007800    1.958871   -0.930712
    124          1           0        8.526885    1.863896    0.796600
    125          1           0       10.314881   -0.025607   -0.599571
    126          1           0        8.639124   -0.106955   -0.242142
    127          1           0        9.750809   -0.469068    1.120573
    128          1           0       11.100439    2.819477    1.653244
    129          1           0       11.289212    1.104866    1.886771
    130          1           0        8.561072    2.090365    3.047774
    131          1           0        9.945697    2.921576    3.679178
    132          1           0       10.374187   -0.032139    3.507370
    133          1           0        8.706917    0.189868    3.935632
    134          1           0        9.726041    1.841026    5.748657
    135          1           0       12.150142    1.977965    4.722173
    136          1           0       12.310182    0.211036    5.147344
    137          1           0       12.123157    1.498922    6.384182
    138          1           0        9.138354   -0.243095    6.920978
    139          1           0       10.764913   -0.792064    6.702904
    140          1           0        9.548904   -1.180905    5.511094
 ---------------------------------------------------------------------

 SCF Done:  E(RPBE1PBE) =  -3005.34313518     A.U. after   15 cycles

 Excitation energies and oscillator strengths:

 Excited State   1:      Singlet-A      1.8114 eV  684.47 nm  f=0.3914  <S**2>=0.000
     245 -> 248       -0.15439
     246 -> 247        0.69964
     246 <- 247       -0.12334
 This state for optimization and/or second-order correction.
 Total Energy, E(TD-HF/TD-DFT) =  -3005.27656803
 Copying the excited state density for this state as the 1-particle RhoCI density.

 Excited State   2:      Singlet-A      2.2261 eV  556.96 nm  f=0.1236  <S**2>=0.000
     245 -> 247        0.65884
     246 -> 248        0.24403

 Excited State   3:      Singlet-A      3.0405 eV  407.77 nm  f=0.0003  <S**2>=0.000
     240 -> 247        0.26646
     240 -> 249       -0.10182
     242 -> 247        0.48046
     242 -> 249       -0.11825
     244 -> 247       -0.39203

 Excited State   4:      Singlet-A      3.0901 eV  401.23 nm  f=0.0009  <S**2>=0.000
     240 -> 247        0.14970
     242 -> 247        0.35628
     244 -> 247        0.57177

 Excited State   5:      Singlet-A      3.1890 eV  388.79 nm  f=0.0003  <S**2>=0.000
     241 -> 247        0.66933
     241 -> 248       -0.10030
     241 -> 249        0.13415
     241 -> 250        0.11283

 The electronic state is 1-A.
 Alpha  occ. eigenvalues --  -46.92092 -19.26708 -19.25791 -19.20669 -19.19414
 Alpha  occ. eigenvalues --  -19.19388 -19.19163 -14.42259 -14.41576 -14.39178
 Alpha  occ. eigenvalues --  -14.38784 -10.36723 -10.35814 -10.33046 -10.32344
 Alpha  occ. eigenvalues --  -10.30535 -10.29687 -10.29084 -10.29058 -10.28661
 Alpha  occ. eigenvalues --  -10.28302 -10.27880 -10.27458 -10.26979 -10.26832
 Alpha  occ. eigenvalues --  -10.26189 -10.26174 -10.26077 -10.25990 -10.25810
 Alpha  occ. eigenvalues --  -10.25689 -10.25669 -10.25121 -10.25106 -10.25087
 Alpha  occ. eigenvalues --  -10.25014 -10.24846 -10.24701 -10.24423 -10.24392
 Alpha  occ. eigenvalues --  -10.24218 -10.23975 -10.23899 -10.23694 -10.23660
 Alpha  occ. eigenvalues --  -10.23628 -10.23551 -10.23533 -10.23426 -10.23293
 Alpha  occ. eigenvalues --  -10.23212 -10.22971 -10.22946 -10.22820 -10.22778
 Alpha  occ. eigenvalues --  -10.22767 -10.22727 -10.22644 -10.22603 -10.22563
 Alpha  occ. eigenvalues --  -10.22535 -10.22328 -10.22179 -10.22139 -10.21929
 Alpha  occ. eigenvalues --  -10.21864  -3.14166  -1.87019  -1.86532  -1.86395
 Alpha  occ. eigenvalues --   -1.12199  -1.12002  -1.04329  -1.03352  -1.03225
 Alpha  occ. eigenvalues --   -1.02210  -0.99638  -0.98216  -0.97244  -0.95450
 Alpha  occ. eigenvalues --   -0.87885  -0.84781  -0.84330  -0.83770  -0.82973
 Alpha  occ. eigenvalues --   -0.82397  -0.82259  -0.82119  -0.81463  -0.81175
 Alpha  occ. eigenvalues --   -0.81012  -0.79916  -0.78614  -0.78507  -0.77679
 Alpha  occ. eigenvalues --   -0.76883  -0.76348  -0.75824  -0.75069  -0.74791
 Alpha  occ. eigenvalues --   -0.74015  -0.72793  -0.72413  -0.71770  -0.70545
 Alpha  occ. eigenvalues --   -0.69906  -0.69432  -0.69141  -0.69062  -0.68060
 Alpha  occ. eigenvalues --   -0.67529  -0.66890  -0.65702  -0.65048  -0.63498
 Alpha  occ. eigenvalues --   -0.62803  -0.62737  -0.61771  -0.61277  -0.60203
 Alpha  occ. eigenvalues --   -0.59986  -0.59949  -0.59317  -0.59047  -0.58498
 Alpha  occ. eigenvalues --   -0.57926  -0.57476  -0.57425  -0.57012  -0.54608
 Alpha  occ. eigenvalues --   -0.54315  -0.54282  -0.53651  -0.53294  -0.53007
 Alpha  occ. eigenvalues --   -0.52404  -0.51967  -0.50620  -0.50443  -0.50290
 Alpha  occ. eigenvalues --   -0.49903  -0.49465  -0.49100  -0.48776  -0.48694
 Alpha  occ. eigenvalues --   -0.48382  -0.47678  -0.47622  -0.47575  -0.47354
 Alpha  occ. eigenvalues --   -0.47090  -0.46835  -0.46737  -0.46588  -0.46360
 Alpha  occ. eigenvalues --   -0.46252  -0.45886  -0.45752  -0.45666  -0.45598
 Alpha  occ. eigenvalues --   -0.45390  -0.45224  -0.45188  -0.44881  -0.44673
 Alpha  occ. eigenvalues --   -0.44373  -0.44157  -0.43823  -0.43443  -0.43265
 Alpha  occ. eigenvalues --   -0.43182  -0.43105  -0.42702  -0.42475  -0.42202
 Alpha  occ. eigenvalues --   -0.41969  -0.41822  -0.41682  -0.41371  -0.41228
 Alpha  occ. eigenvalues --   -0.41049  -0.40810  -0.40577  -0.40537  -0.40465
 Alpha  occ. eigenvalues --   -0.40218  -0.40000  -0.39838  -0.39728  -0.39545
 Alpha  occ. eigenvalues --   -0.39502  -0.39484  -0.39281  -0.39187  -0.38520
 Alpha  occ. eigenvalues --   -0.38366  -0.38182  -0.38136  -0.37973  -0.37731
 Alpha  occ. eigenvalues --   -0.37541  -0.37439  -0.37374  -0.37229  -0.37149
 Alpha  occ. eigenvalues --   -0.37001  -0.36632  -0.36439  -0.36189  -0.36108
 Alpha  occ. eigenvalues --   -0.36028  -0.35819  -0.35555  -0.35383  -0.35285
 Alpha  occ. eigenvalues --   -0.35194  -0.34459  -0.34383  -0.34025  -0.33703
 Alpha  occ. eigenvalues --   -0.33650  -0.33146  -0.33132  -0.32691  -0.32457
 Alpha  occ. eigenvalues --   -0.32281  -0.32158  -0.32037  -0.32011  -0.31916
 Alpha  occ. eigenvalues --   -0.31584  -0.30429  -0.30073  -0.29833  -0.29592
 Alpha  occ. eigenvalues --   -0.28682  -0.28439  -0.27109  -0.26979  -0.26300
 Alpha  occ. eigenvalues --   -0.26082  -0.25961  -0.25624  -0.25562  -0.21111
 Alpha  occ. eigenvalues --   -0.18718
 Alpha virt. eigenvalues --   -0.11421  -0.04839  -0.03981  -0.02646  -0.00359
 Alpha virt. eigenvalues --    0.00512   0.00711   0.00910   0.01101   0.03226
 Alpha virt. eigenvalues --    0.03782   0.04260   0.04835   0.05312   0.05774

 Mulliken charges:
               1
     1  Mg   0.974681
     2  C   -0.066223
     3  C   -0.065315
     4  C   -0.027213
     5  C   -0.052682
     6  N   -0.461723
     7  C    0.034019
     8  C   -0.044686
     9  C   -0.174006
    10  C    0.142068
    11  C    0.002077
    12  C    0.010188
    13  C    0.032351
    14  C    0.187530
    15  O   -0.262896
    16  O   -0.359949
    17  N   -0.432029
    18  C    0.151963
    19  C   -0.203169
    20  C   -0.074270
    21  C    0.082493
    22  C    0.052887
    23  C    0.071841
    24  O   -0.259690
    25  C   -0.017950
    26  N   -0.408151
    27  C    0.070693
    28  C   -0.106252
    29  C   -0.107748
    30  C    0.090665
    31  C    0.000952
    32  C   -0.029084
    33  C   -0.055330
    34  N   -0.441889
    35  C    0.125838
    36  C   -0.244868
    37  C    0.028550
    38  C    0.129808
    39  C    0.060867
    40  C    0.132805
    41  O   -0.220810
    42  C   -0.079922
    43  C    0.288259
    44  O   -0.241365
    45  O   -0.357452
    46  C    0.123570
    47  C    0.251237
    48  C   -0.124217
    49  C   -0.224455
    50  C    0.023411
    51  C    0.017645
    52  C   -0.059191
    53  C   -0.014937
    54  C   -0.236206
    55  C    0.009085
    56  C    0.003632
    57  C   -0.013312
    58  C   -0.051418
    59  C   -0.208539
    60  C   -0.017822
    61  C   -0.002845
    62  C   -0.047402
    63  C   -0.070652
    64  C   -0.239414
    65  C   -0.031474
    66  C   -0.022786
    67  H   -0.009654
    68  H    0.025355
    69  H    0.008689
    70  H    0.052013
    71  H    0.060680
    72  H    0.040412
    73  H    0.048561
    74  H    0.043724
    75  H    0.038955
    76  H    0.049024
    77  H    0.068696
    78  H    0.051097
    79  H    0.065852
    80  H    0.028877
    81  H    0.052259
    82  H    0.061721
    83  H    0.059775
    84  H    0.064716
    85  H    0.057089
    86  H    0.059370
    87  H    0.044308
    88  H    0.048851
    89  H    0.053234
    90  H    0.045493
    91  H    0.039092
    92  H    0.046144
    93  H    0.037610
    94  H    0.038507
    95  H    0.039188
    96  H    0.049464
    97  H    0.073912
    98  H    0.082625
    99  H    0.064977
   100  H    0.049051
   101  H    0.065171
   102  H    0.080039
   103  H    0.038329
   104  H    0.014247
   105  H    0.015924
   106  H    0.042312
   107  H    0.059693
   108  H    0.038841
   109  H    0.019036
   110  H    0.032677
   111  H    0.038572
   112  H    0.031289
   113  H    0.019355
   114  H    0.039772
   115  H    0.025197
   116  H    0.042554
   117  H    0.033688
   118  H    0.029196
   119  H    0.024470
   120  H    0.025279
   121  H    0.030775
   122  H    0.022767
   123  H    0.029098
   124  H    0.032216
   125  H    0.036766
   126  H    0.044783
   127  H    0.042946
   128  H    0.023314
   129  H    0.036346
   130  H    0.035527
   131  H    0.036140
   132  H    0.030358
   133  H    0.037646
   134  H    0.040857
   135  H    0.039466
   136  H    0.045510
   137  H    0.044277
   138  H    0.035528
   139  H    0.026188
   140  H    0.034412
 Sum of Mulliken charges =  -0.00000

 Dipole moment (field-independent basis, Debye):
    X=              4.4533    Y=              1.6785    Z=             -0.9153  Tot=              4.8463
 Quadrupole moment (field-independent basis, Debye-Ang):
   XX=           -372.2758   YY=           -425.5601   ZZ=           -418.2348
   XY=            -20.5690   XZ=             15.3381   YZ=             -4.7386

 Normal termination of Gaussian 16 at Tue May  3 23:33:25 2022.
