 Gaussian 16, Revision A.03,
 Gaussian 16:  ES64L-G16RevA.03 25-Dec-2016

 --------------------------------
 #p wB97XD/Def2SVP td=(nstates=5)
 --------------------------------

 -----------------------------------------------------
 step_1101_chromophore_27 TDDFT with wB97XD functional
 -----------------------------------------------------
 Symbolic Z-matrix:
 Charge =  0 Multiplicity = 1

                         Standard orientation:
 ---------------------------------------------------------------------
 Center     Atomic      Atomic             Coordinates (Angstroms)
 Number     Number       Type             X           Y           Z
 ---------------------------------------------------------------------
      1         12           0       -4.522817    0.873188   -0.120965
      2          6           0       -4.022096   -2.616441    0.444719
      3          6           0       -1.184595    1.390982   -0.066795
      4          6           0       -5.109597    4.315531   -0.294227
      5          6           0       -7.874451    0.408000    0.399117
      6          7           0       -2.909959   -0.443790    0.227568
      7          6           0       -2.840007   -1.855449    0.285460
      8          6           0       -1.427976   -2.413876    0.051258
      9          6           0       -0.538579   -1.059523    0.015575
     10          6           0       -1.572568    0.072689    0.145055
     11          6           0        0.535445   -1.011615    1.074832
     12          6           0       -1.342564   -3.209934   -1.269064
     13          6           0       -0.420261   -4.389003   -1.233053
     14          6           0        0.835526   -4.331166   -2.072873
     15          8           0        0.937155   -4.562752   -3.254391
     16          8           0        1.926112   -4.214477   -1.308709
     17          7           0       -3.244767    2.626503   -0.265036
     18          6           0       -1.928863    2.615774   -0.210059
     19          6           0       -1.465872    3.978917   -0.147096
     20          6           0       -2.543040    4.883768   -0.155793
     21          6           0       -3.694746    3.947665   -0.173370
     22          6           0        0.023294    4.269483   -0.162992
     23          6           0       -2.544599    6.423417   -0.156086
     24          8           0       -3.584139    7.119108   -0.106642
     25          6           0       -1.220900    7.128872   -0.326635
     26          7           0       -6.203134    2.192235    0.044888
     27          6           0       -6.225307    3.549700   -0.122340
     28          6           0       -7.631787    4.183023   -0.078429
     29          6           0       -8.530596    2.851509    0.152630
     30          6           0       -7.492020    1.718476    0.139203
     31          6           0       -7.782966    5.209989    1.047391
     32          6           0       -9.620260    2.597201   -0.992114
     33          6           0      -10.954991    2.133838   -0.548314
     34          7           0       -5.730813   -0.764415    0.313471
     35          6           0       -7.058748   -0.762618    0.377386
     36          6           0       -7.474317   -2.134199    0.740398
     37          6           0       -6.356471   -2.912665    0.651883
     38          6           0       -5.295154   -2.035058    0.529838
     39          6           0       -8.858059   -2.588980    0.816597
     40          6           0       -5.774410   -4.233746    0.775603
     41          8           0       -6.327221   -5.316005    0.977536
     42          6           0       -4.242159   -4.103923    0.534838
     43          6           0       -3.609059   -4.778262    1.726989
     44          8           0       -3.869067   -4.653670    2.910027
     45          8           0       -2.719554   -5.659994    1.204237
     46          6           0       -2.157501   -6.558121    2.230342
     47          6           0        3.272241   -4.398228   -1.967482
     48          6           0        3.909306   -3.023464   -2.148537
     49          6           0        5.154059   -2.521911   -2.226304
     50          6           0        6.342670   -3.368453   -1.881005
     51          6           0        5.523673   -1.054258   -2.491974
     52          6           0        6.455380   -0.764395   -3.699090
     53          6           0        7.894075   -0.235796   -3.324593
     54          6           0        8.206744    1.198880   -3.771180
     55          6           0        8.495400    1.111400   -5.311278
     56          6           0        9.509808    1.688804   -2.928541
     57          6           0        9.060441    2.604319   -1.819350
     58          6           0       10.076986    2.439906   -0.629823
     59          6           0        9.563860    1.627091    0.560801
     60          6           0        9.603765    0.116475    0.213072
     61          6           0       10.542861    1.896124    1.809909
     62          6           0        9.647973    2.036152    3.117440
     63          6           0        9.676512    0.686795    3.936676
     64          6           0       10.255547    0.957649    5.389683
     65          6           0       11.844462    1.167890    5.383382
     66          6           0        9.909876   -0.385750    6.164046
     67          1           0       -0.106633    1.552686   -0.000131
     68          1           0       -5.235185    5.399623   -0.283462
     69          1           0       -8.945468    0.197702    0.376944
     70          1           0       -1.169985   -2.990110    0.940187
     71          1           0        0.019090   -0.912592   -0.909832
     72          1           0        1.420464   -0.484583    0.718321
     73          1           0        0.868467   -1.975911    1.456957
     74          1           0        0.158846   -0.431834    1.916949
     75          1           0       -0.952419   -2.456662   -1.953513
     76          1           0       -2.275983   -3.433128   -1.784570
     77          1           0       -0.976920   -5.270308   -1.552745
     78          1           0       -0.110189   -4.548001   -0.199697
     79          1           0        0.316420    4.894778   -1.006309
     80          1           0        0.638057    3.370127   -0.126071
     81          1           0        0.213818    4.687055    0.825328
     82          1           0       -1.407698    8.178527   -0.555145
     83          1           0       -0.654092    6.795284   -1.196748
     84          1           0       -0.723073    6.815821    0.591163
     85          1           0       -7.811135    4.720519   -1.009697
     86          1           0       -8.915711    2.819528    1.171977
     87          1           0       -8.693741    5.041537    1.622914
     88          1           0       -7.764457    6.224386    0.647712
     89          1           0       -6.923339    5.164515    1.714635
     90          1           0       -9.230682    1.826563   -1.657487
     91          1           0       -9.717935    3.482976   -1.618524
     92          1           0      -11.713764    2.794068   -0.968172
     93          1           0      -11.007868    2.051862    0.537519
     94          1           0      -11.193836    1.123002   -0.877487
     95          1           0       -9.268072   -1.987087    1.627033
     96          1           0       -8.912090   -3.558253    1.312982
     97          1           0       -9.420049   -2.566570   -0.117854
     98          1           0       -3.963953   -4.554366   -0.417585
     99          1           0       -2.969632   -6.965852    2.832576
    100          1           0       -1.596244   -6.011198    2.987998
    101          1           0       -1.528233   -7.334519    1.794760
    102          1           0        3.201833   -5.022122   -2.858282
    103          1           0        3.945321   -4.988047   -1.345156
    104          1           0        3.140185   -2.265449   -2.294409
    105          1           0        5.974006   -4.300717   -1.453833
    106          1           0        6.828947   -2.947012   -1.000691
    107          1           0        7.039217   -3.526396   -2.704472
    108          1           0        6.001450   -0.782683   -1.550604
    109          1           0        4.681816   -0.368628   -2.577908
    110          1           0        5.849002   -0.071176   -4.282322
    111          1           0        6.445634   -1.672872   -4.300352
    112          1           0        8.525986   -1.010265   -3.759629
    113          1           0        8.099182   -0.267963   -2.254885
    114          1           0        7.308527    1.782972   -3.568728
    115          1           0        7.670963    1.643689   -5.785646
    116          1           0        8.452964    0.117666   -5.755716
    117          1           0        9.404423    1.685696   -5.487771
    118          1           0       10.287303    2.110370   -3.565773
    119          1           0        9.982128    0.795097   -2.523046
    120          1           0        8.049728    2.446474   -1.443769
    121          1           0        9.057626    3.650855   -2.121390
    122          1           0       10.344190    3.472323   -0.404071
    123          1           0       11.007800    1.958871   -0.930712
    124          1           0        8.526885    1.863896    0.796600
    125          1           0       10.314881   -0.025607   -0.599571
    126          1           0        8.639124   -0.106955   -0.242142
    127          1           0        9.750809   -0.469068    1.120573
    128          1           0       11.100439    2.819477    1.653244
    129          1           0       11.289212    1.104866    1.886771
    130          1           0        8.561072    2.090365    3.047774
    131          1           0        9.945697    2.921576    3.679178
    132          1           0       10.374187   -0.032139    3.507370
    133          1           0        8.706917    0.189868    3.935632
    134          1           0        9.726041    1.841026    5.748657
    135          1           0       12.150142    1.977965    4.722173
    136          1           0       12.310182    0.211036    5.147344
    137          1           0       12.123157    1.498922    6.384182
    138          1           0        9.138354   -0.243095    6.920978
    139          1           0       10.764913   -0.792064    6.702904
    140          1           0        9.548904   -1.180905    5.511094
 ---------------------------------------------------------------------

 SCF Done:  E(RwB97XD) =  -3007.85467488     A.U. after   19 cycles

 Excitation energies and oscillator strengths:

 Excited State   1:      Singlet-A      1.5905 eV  779.51 nm  f=0.4015  <S**2>=0.000
     245 -> 248       -0.16874
     246 -> 247        0.68873
     245 <- 248       -0.11574
 This state for optimization and/or second-order correction.
 Total Energy, E(TD-HF/TD-DFT) =  -3007.79622330
 Copying the excited state density for this state as the 1-particle RhoCI density.

 Excited State   2:      Singlet-A      2.1587 eV  574.35 nm  f=0.1281  <S**2>=0.000
     245 -> 247        0.64821
     246 -> 248        0.27187

 Excited State   3:      Singlet-A      3.4347 eV  360.97 nm  f=0.0010  <S**2>=0.000
     239 -> 247        0.10117
     242 -> 247       -0.30684
     244 -> 247        0.60402

 Excited State   4:      Singlet-A      3.5373 eV  350.50 nm  f=0.0371  <S**2>=0.000
     239 -> 247       -0.11274
     240 -> 247        0.34918
     240 -> 249       -0.25817
     240 -> 250        0.14336
     242 -> 247        0.35228
     244 -> 247        0.25388
     246 -> 248       -0.22543

 Excited State   5:      Singlet-A      3.5844 eV  345.90 nm  f=0.2598  <S**2>=0.000
     240 -> 247        0.36547
     240 -> 249       -0.18892
     240 -> 250        0.11253
     242 -> 247       -0.23054
     245 -> 247       -0.16069
     246 -> 248        0.45572

 The electronic state is 1-A.
 Alpha  occ. eigenvalues --  -46.95037 -19.31373 -19.30346 -19.25483 -19.24423
 Alpha  occ. eigenvalues --  -19.24057 -19.23845 -14.47354 -14.46667 -14.44016
 Alpha  occ. eigenvalues --  -14.43841 -10.43653 -10.42603 -10.39718 -10.39387
 Alpha  occ. eigenvalues --  -10.37038 -10.36142 -10.35683 -10.35213 -10.35059
 Alpha  occ. eigenvalues --  -10.34384 -10.34008 -10.34007 -10.33131 -10.33039
 Alpha  occ. eigenvalues --  -10.32746 -10.32734 -10.32287 -10.32217 -10.32206
 Alpha  occ. eigenvalues --  -10.31877 -10.31839 -10.31830 -10.31476 -10.31413
 Alpha  occ. eigenvalues --  -10.31221 -10.31192 -10.31150 -10.30883 -10.30674
 Alpha  occ. eigenvalues --  -10.30557 -10.30244 -10.30228 -10.30117 -10.30089
 Alpha  occ. eigenvalues --  -10.29993 -10.29812 -10.29810 -10.29793 -10.29751
 Alpha  occ. eigenvalues --  -10.29570 -10.29397 -10.29299 -10.29299 -10.29192
 Alpha  occ. eigenvalues --  -10.29083 -10.29056 -10.29027 -10.29009 -10.28984
 Alpha  occ. eigenvalues --  -10.28906 -10.28864 -10.28579 -10.28513 -10.28333
 Alpha  occ. eigenvalues --  -10.28291  -3.20967  -1.94568  -1.94083  -1.93943
 Alpha  occ. eigenvalues --   -1.19697  -1.19371  -1.12010  -1.10713  -1.10693
 Alpha  occ. eigenvalues --   -1.09550  -1.07159  -1.05408  -1.04603  -1.02922
 Alpha  occ. eigenvalues --   -0.95647  -0.92462  -0.91997  -0.91444  -0.90582
 Alpha  occ. eigenvalues --   -0.90048  -0.89933  -0.89695  -0.88967  -0.88878
 Alpha  occ. eigenvalues --   -0.88683  -0.87516  -0.86295  -0.86141  -0.85301
 Alpha  occ. eigenvalues --   -0.84541  -0.84007  -0.83466  -0.82694  -0.82439
 Alpha  occ. eigenvalues --   -0.81676  -0.80483  -0.79964  -0.79404  -0.78199
 Alpha  occ. eigenvalues --   -0.77601  -0.77142  -0.76833  -0.76609  -0.75686
 Alpha  occ. eigenvalues --   -0.75165  -0.74500  -0.73240  -0.72658  -0.71108
 Alpha  occ. eigenvalues --   -0.70402  -0.70329  -0.69239  -0.68915  -0.67744
 Alpha  occ. eigenvalues --   -0.67595  -0.67494  -0.66765  -0.66501  -0.66159
 Alpha  occ. eigenvalues --   -0.65379  -0.65131  -0.64911  -0.64644  -0.62146
 Alpha  occ. eigenvalues --   -0.61827  -0.61710  -0.61114  -0.60851  -0.60389
 Alpha  occ. eigenvalues --   -0.59877  -0.59376  -0.58057  -0.57819  -0.57731
 Alpha  occ. eigenvalues --   -0.57310  -0.56962  -0.56456  -0.56207  -0.56117
 Alpha  occ. eigenvalues --   -0.55788  -0.55071  -0.55037  -0.54998  -0.54748
 Alpha  occ. eigenvalues --   -0.54421  -0.54303  -0.54173  -0.53945  -0.53709
 Alpha  occ. eigenvalues --   -0.53592  -0.53227  -0.53074  -0.52972  -0.52936
 Alpha  occ. eigenvalues --   -0.52735  -0.52694  -0.52565  -0.52130  -0.52012
 Alpha  occ. eigenvalues --   -0.51622  -0.51454  -0.51145  -0.50715  -0.50548
 Alpha  occ. eigenvalues --   -0.50462  -0.50396  -0.49979  -0.49747  -0.49575
 Alpha  occ. eigenvalues --   -0.49198  -0.49067  -0.48922  -0.48641  -0.48446
 Alpha  occ. eigenvalues --   -0.48273  -0.48058  -0.47795  -0.47726  -0.47657
 Alpha  occ. eigenvalues --   -0.47420  -0.47236  -0.47119  -0.46972  -0.46754
 Alpha  occ. eigenvalues --   -0.46698  -0.46685  -0.46430  -0.46360  -0.45715
 Alpha  occ. eigenvalues --   -0.45487  -0.45313  -0.45235  -0.45063  -0.44786
 Alpha  occ. eigenvalues --   -0.44716  -0.44560  -0.44521  -0.44449  -0.44280
 Alpha  occ. eigenvalues --   -0.44110  -0.43733  -0.43511  -0.43253  -0.43179
 Alpha  occ. eigenvalues --   -0.43116  -0.42846  -0.42634  -0.42421  -0.42314
 Alpha  occ. eigenvalues --   -0.42272  -0.41474  -0.41383  -0.41052  -0.40718
 Alpha  occ. eigenvalues --   -0.40641  -0.40151  -0.40054  -0.39728  -0.39631
 Alpha  occ. eigenvalues --   -0.39211  -0.39198  -0.39152  -0.39067  -0.38934
 Alpha  occ. eigenvalues --   -0.38453  -0.37370  -0.37281  -0.36708  -0.36401
 Alpha  occ. eigenvalues --   -0.35586  -0.35308  -0.33759  -0.33703  -0.33448
 Alpha  occ. eigenvalues --   -0.33103  -0.32736  -0.32353  -0.32058  -0.26144
 Alpha  occ. eigenvalues --   -0.22879
 Alpha virt. eigenvalues --   -0.07361   0.00688   0.02296   0.03885   0.05621
 Alpha virt. eigenvalues --    0.07189   0.07435   0.07597   0.07759   0.09707
 Alpha virt. eigenvalues --    0.10283   0.10989   0.11601   0.12088   0.12529

 Mulliken charges:
               1
     1  Mg   0.964096
     2  C   -0.074258
     3  C   -0.073825
     4  C   -0.042222
     5  C   -0.070170
     6  N   -0.432596
     7  C    0.007890
     8  C   -0.021905
     9  C   -0.144926
    10  C    0.128857
    11  C    0.010231
    12  C    0.018711
    13  C    0.049769
    14  C    0.173076
    15  O   -0.259578
    16  O   -0.358835
    17  N   -0.398495
    18  C    0.134381
    19  C   -0.188183
    20  C   -0.073909
    21  C    0.070666
    22  C    0.065213
    23  C    0.068728
    24  O   -0.254848
    25  C   -0.004383
    26  N   -0.376018
    27  C    0.060441
    28  C   -0.083871
    29  C   -0.082577
    30  C    0.084931
    31  C    0.009574
    32  C   -0.015185
    33  C   -0.041565
    34  N   -0.403573
    35  C    0.112468
    36  C   -0.233523
    37  C    0.033459
    38  C    0.115216
    39  C    0.070557
    40  C    0.111810
    41  O   -0.209822
    42  C   -0.033062
    43  C    0.262641
    44  O   -0.236190
    45  O   -0.356037
    46  C    0.139169
    47  C    0.268720
    48  C   -0.134433
    49  C   -0.207313
    50  C    0.035931
    51  C    0.038499
    52  C   -0.050205
    53  C    0.020396
    54  C   -0.208580
    55  C    0.020119
    56  C    0.025933
    57  C   -0.003385
    58  C   -0.029228
    59  C   -0.182722
    60  C    0.001717
    61  C    0.013970
    62  C   -0.033216
    63  C   -0.054161
    64  C   -0.210186
    65  C   -0.018774
    66  C   -0.011505
    67  H   -0.020903
    68  H    0.018858
    69  H   -0.000748
    70  H    0.038878
    71  H    0.049800
    72  H    0.035507
    73  H    0.043193
    74  H    0.037198
    75  H    0.030071
    76  H    0.042355
    77  H    0.064568
    78  H    0.043552
    79  H    0.059530
    80  H    0.024332
    81  H    0.045080
    82  H    0.060276
    83  H    0.053693
    84  H    0.056901
    85  H    0.048610
    86  H    0.048046
    87  H    0.038187
    88  H    0.044120
    89  H    0.046784
    90  H    0.035963
    91  H    0.032375
    92  H    0.041905
    93  H    0.030949
    94  H    0.032676
    95  H    0.033579
    96  H    0.046904
    97  H    0.071506
    98  H    0.075573
    99  H    0.060352
   100  H    0.044705
   101  H    0.063087
   102  H    0.076712
   103  H    0.032626
   104  H    0.008604
   105  H    0.008498
   106  H    0.036337
   107  H    0.054846
   108  H    0.026375
   109  H    0.014103
   110  H    0.025364
   111  H    0.030115
   112  H    0.022107
   113  H   -0.011345
   114  H    0.028222
   115  H    0.019215
   116  H    0.036734
   117  H    0.027433
   118  H    0.022294
   119  H    0.007970
   120  H    0.015506
   121  H    0.024538
   122  H    0.014710
   123  H    0.016764
   124  H    0.019732
   125  H    0.028327
   126  H    0.036152
   127  H    0.035443
   128  H    0.015483
   129  H    0.026271
   130  H    0.027305
   131  H    0.028568
   132  H    0.014811
   133  H    0.029812
   134  H    0.030892
   135  H    0.032744
   136  H    0.038919
   137  H    0.038185
   138  H    0.030124
   139  H    0.020335
   140  H    0.027796
 Sum of Mulliken charges =  -0.00000

 Dipole moment (field-independent basis, Debye):
    X=              4.3292    Y=              1.2626    Z=             -0.8900  Tot=              4.5966
 Quadrupole moment (field-independent basis, Debye-Ang):
   XX=           -370.8097   YY=           -424.7834   ZZ=           -417.8884
   XY=            -18.2687   XZ=             15.0677   YZ=             -5.0850

 Normal termination of Gaussian 16 at Wed May  4 00:01:15 2022.
