 Gaussian 16, Revision A.03,
 Gaussian 16:  ES64L-G16RevA.03 25-Dec-2016

 --------------------
 #p ZINDO=(nstates=5)
 --------------------

 ------------------------------
 step_1101_chromophore_27 ZINDO
 ------------------------------
 Symbolic Z-matrix:
 Charge =  0 Multiplicity = 1

                         Standard orientation:
 ---------------------------------------------------------------------
 Center     Atomic      Atomic             Coordinates (Angstroms)
 Number     Number       Type             X           Y           Z
 ---------------------------------------------------------------------
      1         12           0       -4.522817    0.873188   -0.120965
      2          6           0       -4.022096   -2.616441    0.444719
      3          6           0       -1.184595    1.390982   -0.066795
      4          6           0       -5.109597    4.315531   -0.294227
      5          6           0       -7.874451    0.408000    0.399117
      6          7           0       -2.909959   -0.443790    0.227568
      7          6           0       -2.840007   -1.855449    0.285460
      8          6           0       -1.427976   -2.413876    0.051258
      9          6           0       -0.538579   -1.059523    0.015575
     10          6           0       -1.572568    0.072689    0.145055
     11          6           0        0.535445   -1.011615    1.074832
     12          6           0       -1.342564   -3.209934   -1.269064
     13          6           0       -0.420261   -4.389003   -1.233053
     14          6           0        0.835526   -4.331166   -2.072873
     15          8           0        0.937155   -4.562752   -3.254391
     16          8           0        1.926112   -4.214477   -1.308709
     17          7           0       -3.244767    2.626503   -0.265036
     18          6           0       -1.928863    2.615774   -0.210059
     19          6           0       -1.465872    3.978917   -0.147096
     20          6           0       -2.543040    4.883768   -0.155793
     21          6           0       -3.694746    3.947665   -0.173370
     22          6           0        0.023294    4.269483   -0.162992
     23          6           0       -2.544599    6.423417   -0.156086
     24          8           0       -3.584139    7.119108   -0.106642
     25          6           0       -1.220900    7.128872   -0.326635
     26          7           0       -6.203134    2.192235    0.044888
     27          6           0       -6.225307    3.549700   -0.122340
     28          6           0       -7.631787    4.183023   -0.078429
     29          6           0       -8.530596    2.851509    0.152630
     30          6           0       -7.492020    1.718476    0.139203
     31          6           0       -7.782966    5.209989    1.047391
     32          6           0       -9.620260    2.597201   -0.992114
     33          6           0      -10.954991    2.133838   -0.548314
     34          7           0       -5.730813   -0.764415    0.313471
     35          6           0       -7.058748   -0.762618    0.377386
     36          6           0       -7.474317   -2.134199    0.740398
     37          6           0       -6.356471   -2.912665    0.651883
     38          6           0       -5.295154   -2.035058    0.529838
     39          6           0       -8.858059   -2.588980    0.816597
     40          6           0       -5.774410   -4.233746    0.775603
     41          8           0       -6.327221   -5.316005    0.977536
     42          6           0       -4.242159   -4.103923    0.534838
     43          6           0       -3.609059   -4.778262    1.726989
     44          8           0       -3.869067   -4.653670    2.910027
     45          8           0       -2.719554   -5.659994    1.204237
     46          6           0       -2.157501   -6.558121    2.230342
     47          6           0        3.272241   -4.398228   -1.967482
     48          6           0        3.909306   -3.023464   -2.148537
     49          6           0        5.154059   -2.521911   -2.226304
     50          6           0        6.342670   -3.368453   -1.881005
     51          6           0        5.523673   -1.054258   -2.491974
     52          6           0        6.455380   -0.764395   -3.699090
     53          6           0        7.894075   -0.235796   -3.324593
     54          6           0        8.206744    1.198880   -3.771180
     55          6           0        8.495400    1.111400   -5.311278
     56          6           0        9.509808    1.688804   -2.928541
     57          6           0        9.060441    2.604319   -1.819350
     58          6           0       10.076986    2.439906   -0.629823
     59          6           0        9.563860    1.627091    0.560801
     60          6           0        9.603765    0.116475    0.213072
     61          6           0       10.542861    1.896124    1.809909
     62          6           0        9.647973    2.036152    3.117440
     63          6           0        9.676512    0.686795    3.936676
     64          6           0       10.255547    0.957649    5.389683
     65          6           0       11.844462    1.167890    5.383382
     66          6           0        9.909876   -0.385750    6.164046
     67          1           0       -0.106633    1.552686   -0.000131
     68          1           0       -5.235185    5.399623   -0.283462
     69          1           0       -8.945468    0.197702    0.376944
     70          1           0       -1.169985   -2.990110    0.940187
     71          1           0        0.019090   -0.912592   -0.909832
     72          1           0        1.420464   -0.484583    0.718321
     73          1           0        0.868467   -1.975911    1.456957
     74          1           0        0.158846   -0.431834    1.916949
     75          1           0       -0.952419   -2.456662   -1.953513
     76          1           0       -2.275983   -3.433128   -1.784570
     77          1           0       -0.976920   -5.270308   -1.552745
     78          1           0       -0.110189   -4.548001   -0.199697
     79          1           0        0.316420    4.894778   -1.006309
     80          1           0        0.638057    3.370127   -0.126071
     81          1           0        0.213818    4.687055    0.825328
     82          1           0       -1.407698    8.178527   -0.555145
     83          1           0       -0.654092    6.795284   -1.196748
     84          1           0       -0.723073    6.815821    0.591163
     85          1           0       -7.811135    4.720519   -1.009697
     86          1           0       -8.915711    2.819528    1.171977
     87          1           0       -8.693741    5.041537    1.622914
     88          1           0       -7.764457    6.224386    0.647712
     89          1           0       -6.923339    5.164515    1.714635
     90          1           0       -9.230682    1.826563   -1.657487
     91          1           0       -9.717935    3.482976   -1.618524
     92          1           0      -11.713764    2.794068   -0.968172
     93          1           0      -11.007868    2.051862    0.537519
     94          1           0      -11.193836    1.123002   -0.877487
     95          1           0       -9.268072   -1.987087    1.627033
     96          1           0       -8.912090   -3.558253    1.312982
     97          1           0       -9.420049   -2.566570   -0.117854
     98          1           0       -3.963953   -4.554366   -0.417585
     99          1           0       -2.969632   -6.965852    2.832576
    100          1           0       -1.596244   -6.011198    2.987998
    101          1           0       -1.528233   -7.334519    1.794760
    102          1           0        3.201833   -5.022122   -2.858282
    103          1           0        3.945321   -4.988047   -1.345156
    104          1           0        3.140185   -2.265449   -2.294409
    105          1           0        5.974006   -4.300717   -1.453833
    106          1           0        6.828947   -2.947012   -1.000691
    107          1           0        7.039217   -3.526396   -2.704472
    108          1           0        6.001450   -0.782683   -1.550604
    109          1           0        4.681816   -0.368628   -2.577908
    110          1           0        5.849002   -0.071176   -4.282322
    111          1           0        6.445634   -1.672872   -4.300352
    112          1           0        8.525986   -1.010265   -3.759629
    113          1           0        8.099182   -0.267963   -2.254885
    114          1           0        7.308527    1.782972   -3.568728
    115          1           0        7.670963    1.643689   -5.785646
    116          1           0        8.452964    0.117666   -5.755716
    117          1           0        9.404423    1.685696   -5.487771
    118          1           0       10.287303    2.110370   -3.565773
    119          1           0        9.982128    0.795097   -2.523046
    120          1           0        8.049728    2.446474   -1.443769
    121          1           0        9.057626    3.650855   -2.121390
    122          1           0       10.344190    3.472323   -0.404071
    123          1           0       11.007800    1.958871   -0.930712
    124          1           0        8.526885    1.863896    0.796600
    125          1           0       10.314881   -0.025607   -0.599571
    126          1           0        8.639124   -0.106955   -0.242142
    127          1           0        9.750809   -0.469068    1.120573
    128          1           0       11.100439    2.819477    1.653244
    129          1           0       11.289212    1.104866    1.886771
    130          1           0        8.561072    2.090365    3.047774
    131          1           0        9.945697    2.921576    3.679178
    132          1           0       10.374187   -0.032139    3.507370
    133          1           0        8.706917    0.189868    3.935632
    134          1           0        9.726041    1.841026    5.748657
    135          1           0       12.150142    1.977965    4.722173
    136          1           0       12.310182    0.211036    5.147344
    137          1           0       12.123157    1.498922    6.384182
    138          1           0        9.138354   -0.243095    6.920978
    139          1           0       10.764913   -0.792064    6.702904
    140          1           0        9.548904   -1.180905    5.511094
 ---------------------------------------------------------------------

 SCF Done:  E(RZINDO/S) =  -474.164178661     A.U. after   19 cycles

 Excitation energies and oscillator strengths:

 Excited State   1:      Singlet-A      1.2233 eV 1013.53 nm  f=0.6395  <S**2>=0.000
     175 ->178         0.16969
     176 ->177         0.66779
 This state for optimization and/or second-order correction.
 Total Energy, E(CIS/TDA) =  -474.119223387
 Copying the excited state density for this state as the 1-particle RhoCI density.

 Excited State   2:      Singlet-A      1.9297 eV  642.52 nm  f=0.0624  <S**2>=0.000
     175 ->177         0.56439
     176 ->178        -0.38843

 Excited State   3:      Singlet-A      2.9393 eV  421.82 nm  f=0.0011  <S**2>=0.000
     168 ->177         0.32360
     168 ->178        -0.20900
     168 ->179        -0.40462
     168 ->180         0.19337
     168 ->185        -0.19569

 Excited State   4:      Singlet-A      3.0324 eV  408.87 nm  f=0.6743  <S**2>=0.000
     171 ->177        -0.10354
     175 ->177         0.28903
     176 ->178         0.51431
     176 ->179         0.31663

 Excited State   5:      Singlet-A      3.0803 eV  402.51 nm  f=0.0696  <S**2>=0.000
     169 ->177         0.18795
     169 ->179         0.24852
     169 ->180         0.37888
     169 ->185         0.14909
     169 ->187        -0.15092
     170 ->180        -0.16967
     176 ->179        -0.28557
     176 ->180        -0.11377

 The electronic state is 1-A.
 Alpha  occ. eigenvalues --   -1.87051  -1.79498  -1.77998  -1.74674  -1.74342
 Alpha  occ. eigenvalues --   -1.69452  -1.65593  -1.60414  -1.59181  -1.56167
 Alpha  occ. eigenvalues --   -1.54504  -1.50277  -1.48317  -1.48089  -1.46990
 Alpha  occ. eigenvalues --   -1.45232  -1.44355  -1.41049  -1.39302  -1.38103
 Alpha  occ. eigenvalues --   -1.37842  -1.35674  -1.32236  -1.30966  -1.29153
 Alpha  occ. eigenvalues --   -1.25743  -1.25179  -1.21760  -1.20495  -1.18515
 Alpha  occ. eigenvalues --   -1.17430  -1.16193  -1.15179  -1.14820  -1.13261
 Alpha  occ. eigenvalues --   -1.12057  -1.09742  -1.08816  -1.04846  -1.03571
 Alpha  occ. eigenvalues --   -1.02777  -1.00724  -0.98572  -0.97738  -0.97138
 Alpha  occ. eigenvalues --   -0.96452  -0.94379  -0.93964  -0.93802  -0.92447
 Alpha  occ. eigenvalues --   -0.90968  -0.90783  -0.88564  -0.88523  -0.86800
 Alpha  occ. eigenvalues --   -0.86404  -0.84106  -0.83393  -0.82009  -0.80418
 Alpha  occ. eigenvalues --   -0.80247  -0.79918  -0.77087  -0.76591  -0.76300
 Alpha  occ. eigenvalues --   -0.75862  -0.75367  -0.74635  -0.74395  -0.73579
 Alpha  occ. eigenvalues --   -0.73114  -0.72652  -0.72303  -0.71988  -0.70587
 Alpha  occ. eigenvalues --   -0.70465  -0.69871  -0.68812  -0.68604  -0.68460
 Alpha  occ. eigenvalues --   -0.68265  -0.67223  -0.66947  -0.66398  -0.65990
 Alpha  occ. eigenvalues --   -0.65919  -0.65616  -0.64925  -0.64232  -0.64059
 Alpha  occ. eigenvalues --   -0.63414  -0.63275  -0.63139  -0.62209  -0.61825
 Alpha  occ. eigenvalues --   -0.61669  -0.61484  -0.60694  -0.60015  -0.59800
 Alpha  occ. eigenvalues --   -0.59193  -0.58918  -0.58652  -0.58521  -0.58299
 Alpha  occ. eigenvalues --   -0.58224  -0.57478  -0.57096  -0.56998  -0.56260
 Alpha  occ. eigenvalues --   -0.55821  -0.55410  -0.55105  -0.54653  -0.54429
 Alpha  occ. eigenvalues --   -0.53938  -0.53707  -0.53584  -0.53076  -0.52842
 Alpha  occ. eigenvalues --   -0.52580  -0.52423  -0.52331  -0.52240  -0.51629
 Alpha  occ. eigenvalues --   -0.51409  -0.51363  -0.51189  -0.50746  -0.50610
 Alpha  occ. eigenvalues --   -0.50313  -0.50096  -0.49972  -0.49755  -0.49227
 Alpha  occ. eigenvalues --   -0.49156  -0.48731  -0.48702  -0.48342  -0.47921
 Alpha  occ. eigenvalues --   -0.47818  -0.47685  -0.47196  -0.47163  -0.46893
 Alpha  occ. eigenvalues --   -0.46594  -0.45798  -0.45636  -0.45331  -0.45220
 Alpha  occ. eigenvalues --   -0.44842  -0.44714  -0.44575  -0.44492  -0.43854
 Alpha  occ. eigenvalues --   -0.43404  -0.43100  -0.42866  -0.42681  -0.42501
 Alpha  occ. eigenvalues --   -0.42122  -0.41981  -0.39716  -0.39623  -0.38687
 Alpha  occ. eigenvalues --   -0.38418  -0.37359  -0.35998  -0.35293  -0.34909
 Alpha  occ. eigenvalues --   -0.33631  -0.32802  -0.32564  -0.32316  -0.27016
 Alpha  occ. eigenvalues --   -0.21811
 Alpha virt. eigenvalues --   -0.08911  -0.01826  -0.00579   0.01095   0.02022
 Alpha virt. eigenvalues --    0.02141   0.02212   0.02723   0.04595   0.04939
 Alpha virt. eigenvalues --    0.06082   0.06620   0.07473   0.07630   0.08017

 Mulliken charges:
               1
     1  Mg   0.425660
     2  C   -0.053086
     3  C   -0.066789
     4  C   -0.062975
     5  C   -0.083146
     6  N   -0.304432
     7  C    0.135653
     8  C    0.006993
     9  C    0.003810
    10  C    0.094433
    11  C   -0.049039
    12  C   -0.016373
    13  C    0.012932
    14  C    0.476424
    15  O   -0.524186
    16  O   -0.271370
    17  N   -0.302196
    18  C    0.096685
    19  C   -0.001243
    20  C   -0.056031
    21  C    0.102730
    22  C   -0.054382
    23  C    0.331518
    24  O   -0.535635
    25  C   -0.032622
    26  N   -0.274960
    27  C    0.125887
    28  C   -0.001039
    29  C   -0.006724
    30  C    0.147232
    31  C   -0.049906
    32  C   -0.024293
    33  C   -0.051447
    34  N   -0.314495
    35  C    0.117794
    36  C    0.053963
    37  C   -0.037376
    38  C    0.120743
    39  C   -0.043227
    40  C    0.339949
    41  O   -0.513872
    42  C    0.059073
    43  C    0.494164
    44  O   -0.508246
    45  O   -0.270221
    46  C    0.069211
    47  C    0.111808
    48  C   -0.083674
    49  C   -0.001188
    50  C   -0.047634
    51  C   -0.022093
    52  C   -0.038697
    53  C   -0.033177
    54  C   -0.023281
    55  C   -0.064425
    56  C   -0.033430
    57  C   -0.035122
    58  C   -0.038783
    59  C   -0.015524
    60  C   -0.064255
    61  C   -0.038931
    62  C   -0.051209
    63  C   -0.044532
    64  C   -0.021590
    65  C   -0.056307
    66  C   -0.062271
    67  H    0.021615
    68  H    0.042477
    69  H    0.025489
    70  H    0.040815
    71  H    0.034365
    72  H    0.016402
    73  H    0.019914
    74  H    0.019419
    75  H    0.022331
    76  H    0.032574
    77  H    0.042144
    78  H    0.031797
    79  H    0.034647
    80  H    0.019303
    81  H    0.026051
    82  H    0.042614
    83  H    0.033539
    84  H    0.049035
    85  H    0.039786
    86  H    0.043919
    87  H    0.019124
    88  H    0.022772
    89  H    0.025732
    90  H    0.019306
    91  H    0.021370
    92  H    0.021370
    93  H    0.019290
    94  H    0.015199
    95  H    0.025459
    96  H    0.029328
    97  H    0.045083
    98  H    0.060471
    99  H    0.049522
   100  H    0.038934
   101  H    0.035926
   102  H    0.064612
   103  H    0.034552
   104  H    0.015085
   105  H    0.013811
   106  H    0.023383
   107  H    0.036073
   108  H    0.019411
   109  H    0.017788
   110  H    0.018757
   111  H    0.021558
   112  H    0.017149
   113  H    0.016496
   114  H    0.033274
   115  H    0.008789
   116  H    0.030723
   117  H    0.023303
   118  H    0.024378
   119  H    0.021565
   120  H    0.023016
   121  H    0.015669
   122  H    0.008552
   123  H    0.019422
   124  H    0.027321
   125  H    0.026966
   126  H    0.011449
   127  H    0.027172
   128  H    0.015382
   129  H    0.028264
   130  H    0.023519
   131  H    0.021681
   132  H    0.015593
   133  H    0.022329
   134  H    0.030774
   135  H    0.020652
   136  H    0.028130
   137  H    0.015684
   138  H    0.013764
   139  H    0.014691
   140  H    0.020916
 Sum of Mulliken charges =  -0.00000

 Dipole moment (field-independent basis, Debye):
    X=              4.8255    Y=              0.1279    Z=             -1.0254  Tot=              4.9349
 N-N= 4.372423406356D+03 E-N= 0.000000000000D+00  KE=-9.418584921387D+03
 Leave Link  601 at Wed May  4 00:13:48 2022, MaxMem=  6710886400 cpu:               0.8 elap:               0.1
 (Enter /sw/apps/gaussian-16.0/g16/l9999.exe)
 1\1\GINC-BP1-COMPUTE058\SP\RZINDO CIS\STO-3G\C55H74Mg1N4O6\OF15641\04-
 May-2022\0\\#p ZINDO=(nstates=5)\\step_1101_chromophore_27 ZINDO\\0,1\
 Mg,0,-5.663,24.994,27.721\C,0,-3.781,26.862,30.112\C,0,-6.648,22.843,3
 0.133\C,0,-7.163,23.011,25.263\C,0,-4.199,26.833,25.232\N,0,-5.18,24.8
 79,29.773\C,0,-4.535,25.789,30.643\C,0,-4.838,25.543,32.129\C,0,-5.671
 ,24.154,32.071\C,0,-5.799,23.855,30.567\C,0,-5.032,23.031,32.851\C,0,-
 5.66,26.698,32.741\C,0,-5.341,27.007,34.171\C,0,-6.399,26.716,35.211\O

 Normal termination of Gaussian 16 at Wed May  4 00:13:48 2022.
