 Gaussian 16, Revision A.03,
 Gaussian 16:  ES64L-G16RevA.03 25-Dec-2016

 ------------------------------
 #p blyp/Def2SVP td=(nstates=5)
 ------------------------------

 -------------------------------------------------
 step_301_chromophore_9 TDDFT with blyp functional
 -------------------------------------------------
 Symbolic Z-matrix:
 Charge =  0 Multiplicity = 1

                         Standard orientation:
 ---------------------------------------------------------------------
 Center     Atomic      Atomic             Coordinates (Angstroms)
 Number     Number       Type             X           Y           Z
 ---------------------------------------------------------------------
      1         12           0       -5.240001    0.844566   -0.078858
      2          6           0       -4.156483   -2.456066    0.131481
      3          6           0       -1.972352    1.887732   -0.223236
      4          6           0       -6.169934    4.170509    0.197778
      5          6           0       -8.525940   -0.193562    0.479633
      6          7           0       -3.246299   -0.219401   -0.014457
      7          6           0       -3.040612   -1.551112   -0.038348
      8          6           0       -1.565072   -1.830083   -0.292160
      9          6           0       -0.881261   -0.426190    0.023005
     10          6           0       -2.099334    0.503833   -0.099364
     11          6           0       -0.208875   -0.315920    1.454171
     12          6           0       -1.321553   -2.413962   -1.730117
     13          6           0       -0.268822   -3.472840   -1.872430
     14          6           0        0.664437   -3.780024   -0.753981
     15          8           0        0.433580   -4.456711    0.228792
     16          8           0        1.865331   -3.112826   -1.037300
     17          7           0       -4.207888    2.783846   -0.179075
     18          6           0       -2.847212    2.914481   -0.251353
     19          6           0       -2.610675    4.360379   -0.360165
     20          6           0       -3.800195    5.087213   -0.223148
     21          6           0       -4.801727    4.009978   -0.006386
     22          6           0       -1.067345    4.801943   -0.563718
     23          6           0       -4.059522    6.636375   -0.158029
     24          8           0       -5.131762    7.295644   -0.019455
     25          6           0       -2.798844    7.561141   -0.489919
     26          7           0       -6.969378    1.835366    0.167510
     27          6           0       -7.174213    3.211003    0.274886
     28          6           0       -8.631585    3.636385    0.445657
     29          6           0       -9.339201    2.265182    0.199562
     30          6           0       -8.237956    1.218864    0.265969
     31          6           0       -8.858505    4.374727    1.787056
     32          6           0      -10.201390    2.253021   -0.990145
     33          6           0       -9.690003    1.500673   -2.292606
     34          7           0       -6.220440   -0.917535    0.322098
     35          6           0       -7.559056   -1.231142    0.531315
     36          6           0       -7.708965   -2.663026    0.764204
     37          6           0       -6.421273   -3.168106    0.502296
     38          6           0       -5.520654   -2.060374    0.397679
     39          6           0       -9.004381   -3.392596    1.104927
     40          6           0       -5.667864   -4.397536    0.286496
     41          8           0       -6.040064   -5.561872    0.196371
     42          6           0       -4.122039   -3.956917    0.135951
     43          6           0       -3.371389   -4.523038    1.142017
     44          8           0       -3.506037   -4.294260    2.359472
     45          8           0       -2.606782   -5.579368    0.670780
     46          6           0       -2.109624   -6.494138    1.668088
     47          6           0        2.805709   -3.020883    0.080859
     48          6           0        4.155270   -2.486544   -0.370331
     49          6           0        5.086201   -3.105388   -1.182237
     50          6           0        4.826891   -4.347918   -1.948116
     51          6           0        6.490915   -2.433235   -1.300467
     52          6           0        6.908986   -1.952629   -2.727707
     53          6           0        8.429018   -1.744417   -2.921102
     54          6           0        8.951618   -0.281100   -2.633736
     55          6           0        8.978245    0.531511   -3.905142
     56          6           0       10.286313   -0.216342   -1.816181
     57          6           0       10.390275    1.022214   -0.869372
     58          6           0       11.790847    1.677709   -0.988759
     59          6           0       11.927183    3.058742   -0.367806
     60          6           0       12.487837    4.173436   -1.326803
     61          6           0       12.830380    2.951380    0.931708
     62          6           0       11.849631    2.654491    2.108697
     63          6           0       12.478278    1.591971    3.054811
     64          6           0       11.489411    0.761984    3.888479
     65          6           0       12.134830    0.282964    5.230170
     66          6           0       10.910758   -0.411424    3.095984
     67          1           0       -0.948271    2.248541   -0.107573
     68          1           0       -6.490902    5.207535    0.311824
     69          1           0       -9.576107   -0.447501    0.636495
     70          1           0       -1.272163   -2.593473    0.429130
     71          1           0       -0.113932   -0.160134   -0.703841
     72          1           0       -0.207182   -1.304442    1.913515
     73          1           0       -0.909130    0.240968    2.076784
     74          1           0        0.732827    0.231830    1.411922
     75          1           0       -1.084636   -1.655321   -2.476694
     76          1           0       -2.263814   -2.892130   -1.997552
     77          1           0        0.254289   -3.083166   -2.745815
     78          1           0       -0.701189   -4.440248   -2.127673
     79          1           0       -0.922824    5.777570   -1.028911
     80          1           0       -0.518817    4.203933   -1.290378
     81          1           0       -0.686983    4.849258    0.456815
     82          1           0       -2.002343    7.300947    0.207024
     83          1           0       -3.000799    8.632158   -0.451103
     84          1           0       -2.494109    7.210783   -1.477039
     85          1           0       -8.896908    4.339553   -0.343863
     86          1           0      -10.079471    2.014624    0.958991
     87          1           0       -9.243037    5.367535    1.552304
     88          1           0       -7.962476    4.457416    2.402783
     89          1           0       -9.656584    3.898911    2.358236
     90          1           0      -10.333963    3.285882   -1.311861
     91          1           0      -11.104121    1.751443   -0.644577
     92          1           0      -10.409532    0.696516   -2.446133
     93          1           0       -8.641818    1.214142   -2.370408
     94          1           0       -9.836039    2.302195   -3.016941
     95          1           0       -9.052450   -4.344606    0.576798
     96          1           0       -9.835439   -2.775607    0.761374
     97          1           0       -9.160635   -3.542947    2.173206
     98          1           0       -3.837478   -4.329266   -0.847801
     99          1           0       -1.992651   -7.479897    1.218198
    100          1           0       -2.690035   -6.537459    2.589494
    101          1           0       -1.158708   -6.049709    1.963320
    102          1           0        2.788736   -3.941440    0.663728
    103          1           0        2.398864   -2.248277    0.733900
    104          1           0        4.522666   -1.575290    0.101142
    105          1           0        3.853085   -4.775057   -1.705839
    106          1           0        5.653719   -5.021768   -1.726510
    107          1           0        4.910149   -4.138464   -3.014886
    108          1           0        7.124832   -3.277416   -1.030128
    109          1           0        6.636323   -1.554233   -0.671313
    110          1           0        6.378787   -1.006049   -2.826619
    111          1           0        6.494942   -2.575648   -3.520547
    112          1           0        8.563136   -2.021608   -3.967065
    113          1           0        9.055674   -2.464248   -2.394791
    114          1           0        8.199931    0.182605   -1.994461
    115          1           0        8.165389    0.151417   -4.522750
    116          1           0        9.874684    0.669228   -4.510129
    117          1           0        8.548668    1.527770   -3.795465
    118          1           0       11.165667   -0.252412   -2.459326
    119          1           0       10.260549   -1.080792   -1.152400
    120          1           0       10.194918    0.718905    0.159214
    121          1           0        9.631987    1.795521   -0.989728
    122          1           0       11.949069    1.746225   -2.064741
    123          1           0       12.527238    0.971173   -0.603977
    124          1           0       10.886765    3.314324   -0.167961
    125          1           0       11.649631    4.865374   -1.398404
    126          1           0       12.729694    3.751067   -2.301816
    127          1           0       13.445382    4.572363   -0.989682
    128          1           0       13.333594    3.851519    1.284627
    129          1           0       13.561031    2.154295    0.793624
    130          1           0       10.850862    2.313898    1.834567
    131          1           0       11.725552    3.550160    2.717554
    132          1           0       13.080633    2.151827    3.770199
    133          1           0       13.099588    0.872827    2.521873
    134          1           0       10.634050    1.369807    4.184769
    135          1           0       11.945277    0.899899    6.108698
    136          1           0       13.213079    0.306874    5.072977
    137          1           0       11.708696   -0.695786    5.448866
    138          1           0       11.508583   -0.601182    2.204446
    139          1           0        9.893938   -0.234684    2.744870
    140          1           0       10.850899   -1.344107    3.657810
 ---------------------------------------------------------------------

 SCF Done:  E(RB-LYP) =  -3007.37336068     A.U. after   21 cycles

 Excitation energies and oscillator strengths:

 Excited State   1:      Singlet-A      1.7930 eV  691.48 nm  f=0.3116  <S**2>=0.000
     245 -> 248       -0.18050
     246 -> 247        0.68944
     246 <- 247       -0.14656
 This state for optimization and/or second-order correction.
 Total Energy, E(TD-HF/TD-DFT) =  -3007.30746810
 Copying the excited state density for this state as the 1-particle RhoCI density.

 Excited State   2:      Singlet-A      1.9918 eV  622.47 nm  f=0.0510  <S**2>=0.000
     244 -> 247        0.21222
     245 -> 247        0.61718
     246 -> 248        0.23323
     246 -> 249       -0.10237

 Excited State   3:      Singlet-A      2.0153 eV  615.21 nm  f=0.0076  <S**2>=0.000
     244 -> 247        0.67380
     245 -> 247       -0.19200

 Excited State   4:      Singlet-A      2.0815 eV  595.64 nm  f=0.0001  <S**2>=0.000
     243 -> 247        0.70564

 Excited State   5:      Singlet-A      2.3786 eV  521.25 nm  f=0.0001  <S**2>=0.000
     241 -> 247        0.10160
     242 -> 247        0.69780

 The electronic state is 1-A.
 Alpha  occ. eigenvalues --  -46.27071 -18.82037 -18.80499 -18.78249 -18.76719
 Alpha  occ. eigenvalues --  -18.76287 -18.74997 -14.03615 -14.03538 -14.01113
 Alpha  occ. eigenvalues --  -14.00954 -10.04613 -10.02135 -10.01581 -10.00176
 Alpha  occ. eigenvalues --   -9.97824  -9.97172  -9.97048  -9.96765  -9.96456
 Alpha  occ. eigenvalues --   -9.95927  -9.95899  -9.95564  -9.95380  -9.95108
 Alpha  occ. eigenvalues --   -9.95002  -9.94599  -9.94469  -9.94459  -9.94136
 Alpha  occ. eigenvalues --   -9.94098  -9.93992  -9.93824  -9.93750  -9.93640
 Alpha  occ. eigenvalues --   -9.93599  -9.93157  -9.93101  -9.92900  -9.92848
 Alpha  occ. eigenvalues --   -9.92745  -9.92693  -9.92664  -9.92625  -9.92564
 Alpha  occ. eigenvalues --   -9.92348  -9.92334  -9.92139  -9.92131  -9.92096
 Alpha  occ. eigenvalues --   -9.91835  -9.91822  -9.91719  -9.91671  -9.91618
 Alpha  occ. eigenvalues --   -9.91593  -9.91582  -9.91384  -9.91351  -9.91070
 Alpha  occ. eigenvalues --   -9.90986  -9.90892  -9.90786  -9.90757  -9.90696
 Alpha  occ. eigenvalues --   -9.90665  -2.91736  -1.72167  -1.71580  -1.71479
 Alpha  occ. eigenvalues --   -0.97688  -0.96037  -0.91378  -0.90892  -0.89797
 Alpha  occ. eigenvalues --   -0.87574  -0.86769  -0.85826  -0.85388  -0.84246
 Alpha  occ. eigenvalues --   -0.75413  -0.73694  -0.73331  -0.72914  -0.72848
 Alpha  occ. eigenvalues --   -0.72085  -0.71942  -0.70931  -0.70804  -0.69846
 Alpha  occ. eigenvalues --   -0.69484  -0.69373  -0.68157  -0.67835  -0.67290
 Alpha  occ. eigenvalues --   -0.66479  -0.65602  -0.64989  -0.64825  -0.64397
 Alpha  occ. eigenvalues --   -0.63684  -0.62579  -0.62361  -0.61692  -0.60865
 Alpha  occ. eigenvalues --   -0.60447  -0.60055  -0.59834  -0.59759  -0.58809
 Alpha  occ. eigenvalues --   -0.58413  -0.57791  -0.57011  -0.55842  -0.55261
 Alpha  occ. eigenvalues --   -0.54144  -0.53941  -0.52789  -0.52116  -0.51767
 Alpha  occ. eigenvalues --   -0.51096  -0.50939  -0.50521  -0.50481  -0.50180
 Alpha  occ. eigenvalues --   -0.49564  -0.49366  -0.48404  -0.47354  -0.46422
 Alpha  occ. eigenvalues --   -0.46278  -0.45866  -0.45766  -0.45284  -0.44924
 Alpha  occ. eigenvalues --   -0.44201  -0.43870  -0.43465  -0.42974  -0.42329
 Alpha  occ. eigenvalues --   -0.42189  -0.42044  -0.41853  -0.41508  -0.41326
 Alpha  occ. eigenvalues --   -0.40986  -0.40675  -0.40648  -0.40183  -0.39860
 Alpha  occ. eigenvalues --   -0.39754  -0.39569  -0.39463  -0.39397  -0.38971
 Alpha  occ. eigenvalues --   -0.38846  -0.38695  -0.38485  -0.38219  -0.38073
 Alpha  occ. eigenvalues --   -0.37957  -0.37753  -0.37669  -0.37413  -0.37284
 Alpha  occ. eigenvalues --   -0.37193  -0.37082  -0.36677  -0.36501  -0.36430
 Alpha  occ. eigenvalues --   -0.36190  -0.35974  -0.35868  -0.35735  -0.35442
 Alpha  occ. eigenvalues --   -0.35265  -0.35157  -0.34983  -0.34867  -0.34579
 Alpha  occ. eigenvalues --   -0.34316  -0.34190  -0.34150  -0.34087  -0.33981
 Alpha  occ. eigenvalues --   -0.33789  -0.33725  -0.33500  -0.33193  -0.33023
 Alpha  occ. eigenvalues --   -0.32942  -0.32896  -0.32516  -0.32436  -0.32274
 Alpha  occ. eigenvalues --   -0.31930  -0.31777  -0.31704  -0.31540  -0.31279
 Alpha  occ. eigenvalues --   -0.31166  -0.31061  -0.30869  -0.30778  -0.30665
 Alpha  occ. eigenvalues --   -0.30400  -0.30093  -0.30072  -0.29841  -0.29791
 Alpha  occ. eigenvalues --   -0.29754  -0.29538  -0.29503  -0.29261  -0.29240
 Alpha  occ. eigenvalues --   -0.28970  -0.28649  -0.28414  -0.28262  -0.27726
 Alpha  occ. eigenvalues --   -0.27492  -0.27327  -0.27126  -0.26760  -0.26708
 Alpha  occ. eigenvalues --   -0.26538  -0.26101  -0.26063  -0.25939  -0.25801
 Alpha  occ. eigenvalues --   -0.25218  -0.24921  -0.24134  -0.23772  -0.23479
 Alpha  occ. eigenvalues --   -0.23228  -0.22936  -0.22248  -0.21193  -0.20699
 Alpha  occ. eigenvalues --   -0.20426  -0.20320  -0.19117  -0.18902  -0.17432
 Alpha  occ. eigenvalues --   -0.15869
 Alpha virt. eigenvalues --   -0.11590  -0.07248  -0.06790  -0.05333  -0.03984
 Alpha virt. eigenvalues --   -0.03045  -0.02681  -0.02390  -0.01702   0.00034
 Alpha virt. eigenvalues --    0.00896   0.01247   0.01722   0.02017   0.02466

 Mulliken charges:
               1
     1  Mg   0.694049
     2  C   -0.028359
     3  C   -0.024304
     4  C   -0.050168
     5  C   -0.077875
     6  N   -0.189515
     7  C   -0.057961
     8  C    0.003543
     9  C   -0.023830
    10  C    0.004754
    11  C    0.130110
    12  C    0.138982
    13  C    0.169059
    14  C    0.065281
    15  O   -0.171847
    16  O   -0.294200
    17  N   -0.263484
    18  C    0.120347
    19  C   -0.114581
    20  C    0.014477
    21  C    0.074952
    22  C    0.126020
    23  C   -0.011230
    24  O   -0.186164
    25  C    0.090940
    26  N   -0.294303
    27  C    0.048566
    28  C    0.010626
    29  C    0.058132
    30  C    0.062625
    31  C    0.134009
    32  C    0.051716
    33  C    0.070002
    34  N   -0.276397
    35  C    0.120692
    36  C   -0.161291
    37  C    0.067113
    38  C    0.092473
    39  C    0.168407
    40  C   -0.050805
    41  O   -0.123733
    42  C    0.103861
    43  C    0.118262
    44  O   -0.219239
    45  O   -0.273039
    46  C    0.227709
    47  C    0.310153
    48  C   -0.100059
    49  C   -0.155915
    50  C    0.175444
    51  C    0.128522
    52  C    0.038133
    53  C    0.125830
    54  C   -0.065856
    55  C    0.122397
    56  C    0.135022
    57  C    0.029745
    58  C    0.080869
    59  C   -0.082975
    60  C    0.124464
    61  C    0.123192
    62  C    0.053281
    63  C    0.076728
    64  C   -0.095683
    65  C    0.100850
    66  C    0.099703
    67  H   -0.064513
    68  H   -0.053069
    69  H   -0.061760
    70  H    0.003295
    71  H   -0.030529
    72  H    0.008768
    73  H   -0.008892
    74  H    0.007249
    75  H   -0.016699
    76  H   -0.023717
    77  H   -0.017869
    78  H    0.000044
    79  H   -0.020790
    80  H    0.006485
    81  H    0.017926
    82  H    0.003220
    83  H    0.003276
    84  H    0.019871
    85  H   -0.015450
    86  H   -0.045590
    87  H   -0.006908
    88  H    0.009379
    89  H   -0.014294
    90  H   -0.023193
    91  H   -0.021063
    92  H   -0.002251
    93  H    0.015498
    94  H   -0.016755
    95  H    0.012194
    96  H   -0.020942
    97  H    0.014269
    98  H   -0.012439
    99  H    0.011556
   100  H    0.011443
   101  H    0.005060
   102  H    0.009416
   103  H   -0.024477
   104  H   -0.041923
   105  H    0.001481
   106  H   -0.013496
   107  H    0.003986
   108  H   -0.023339
   109  H   -0.022354
   110  H   -0.030153
   111  H   -0.031539
   112  H   -0.040495
   113  H   -0.043514
   114  H   -0.037480
   115  H   -0.038465
   116  H   -0.004603
   117  H   -0.036759
   118  H   -0.023883
   119  H   -0.039010
   120  H   -0.031551
   121  H   -0.033592
   122  H   -0.035718
   123  H   -0.027893
   124  H   -0.035153
   125  H   -0.006828
   126  H   -0.030855
   127  H   -0.014872
   128  H   -0.029719
   129  H   -0.021926
   130  H   -0.019733
   131  H   -0.029948
   132  H   -0.038407
   133  H   -0.027724
   134  H   -0.042792
   135  H   -0.017031
   136  H   -0.015409
   137  H   -0.022235
   138  H   -0.016882
   139  H   -0.011800
   140  H   -0.024362
 Sum of Mulliken charges =  -0.00000

 Dipole moment (field-independent basis, Debye):
    X=              3.3763    Y=              2.2427    Z=             -3.0736  Tot=              5.0869
 Quadrupole moment (field-independent basis, Debye-Ang):
   XX=           -378.3226   YY=           -446.4361   ZZ=           -407.2213
   XY=            -13.0605   XZ=              2.9781   YZ=              9.6815

 Normal termination of Gaussian 16 at Fri Apr 29 14:37:27 2022.
