 Gaussian 16, Revision A.03,
 Gaussian 16:  ES64L-G16RevA.03 25-Dec-2016

 -----------------------------------
 #p cam-b3lyp/Def2SVP td=(nstates=5)
 -----------------------------------

 ------------------------------------------------------
 step_301_chromophore_9 TDDFT with cam-b3lyp functional
 ------------------------------------------------------
 Symbolic Z-matrix:
 Charge =  0 Multiplicity = 1

                         Standard orientation:
 ---------------------------------------------------------------------
 Center     Atomic      Atomic             Coordinates (Angstroms)
 Number     Number       Type             X           Y           Z
 ---------------------------------------------------------------------
      1         12           0       -5.240001    0.844566   -0.078858
      2          6           0       -4.156483   -2.456066    0.131481
      3          6           0       -1.972352    1.887732   -0.223236
      4          6           0       -6.169934    4.170509    0.197778
      5          6           0       -8.525940   -0.193562    0.479633
      6          7           0       -3.246299   -0.219401   -0.014457
      7          6           0       -3.040612   -1.551112   -0.038348
      8          6           0       -1.565072   -1.830083   -0.292160
      9          6           0       -0.881261   -0.426190    0.023005
     10          6           0       -2.099334    0.503833   -0.099364
     11          6           0       -0.208875   -0.315920    1.454171
     12          6           0       -1.321553   -2.413962   -1.730117
     13          6           0       -0.268822   -3.472840   -1.872430
     14          6           0        0.664437   -3.780024   -0.753981
     15          8           0        0.433580   -4.456711    0.228792
     16          8           0        1.865331   -3.112826   -1.037300
     17          7           0       -4.207888    2.783846   -0.179075
     18          6           0       -2.847212    2.914481   -0.251353
     19          6           0       -2.610675    4.360379   -0.360165
     20          6           0       -3.800195    5.087213   -0.223148
     21          6           0       -4.801727    4.009978   -0.006386
     22          6           0       -1.067345    4.801943   -0.563718
     23          6           0       -4.059522    6.636375   -0.158029
     24          8           0       -5.131762    7.295644   -0.019455
     25          6           0       -2.798844    7.561141   -0.489919
     26          7           0       -6.969378    1.835366    0.167510
     27          6           0       -7.174213    3.211003    0.274886
     28          6           0       -8.631585    3.636385    0.445657
     29          6           0       -9.339201    2.265182    0.199562
     30          6           0       -8.237956    1.218864    0.265969
     31          6           0       -8.858505    4.374727    1.787056
     32          6           0      -10.201390    2.253021   -0.990145
     33          6           0       -9.690003    1.500673   -2.292606
     34          7           0       -6.220440   -0.917535    0.322098
     35          6           0       -7.559056   -1.231142    0.531315
     36          6           0       -7.708965   -2.663026    0.764204
     37          6           0       -6.421273   -3.168106    0.502296
     38          6           0       -5.520654   -2.060374    0.397679
     39          6           0       -9.004381   -3.392596    1.104927
     40          6           0       -5.667864   -4.397536    0.286496
     41          8           0       -6.040064   -5.561872    0.196371
     42          6           0       -4.122039   -3.956917    0.135951
     43          6           0       -3.371389   -4.523038    1.142017
     44          8           0       -3.506037   -4.294260    2.359472
     45          8           0       -2.606782   -5.579368    0.670780
     46          6           0       -2.109624   -6.494138    1.668088
     47          6           0        2.805709   -3.020883    0.080859
     48          6           0        4.155270   -2.486544   -0.370331
     49          6           0        5.086201   -3.105388   -1.182237
     50          6           0        4.826891   -4.347918   -1.948116
     51          6           0        6.490915   -2.433235   -1.300467
     52          6           0        6.908986   -1.952629   -2.727707
     53          6           0        8.429018   -1.744417   -2.921102
     54          6           0        8.951618   -0.281100   -2.633736
     55          6           0        8.978245    0.531511   -3.905142
     56          6           0       10.286313   -0.216342   -1.816181
     57          6           0       10.390275    1.022214   -0.869372
     58          6           0       11.790847    1.677709   -0.988759
     59          6           0       11.927183    3.058742   -0.367806
     60          6           0       12.487837    4.173436   -1.326803
     61          6           0       12.830380    2.951380    0.931708
     62          6           0       11.849631    2.654491    2.108697
     63          6           0       12.478278    1.591971    3.054811
     64          6           0       11.489411    0.761984    3.888479
     65          6           0       12.134830    0.282964    5.230170
     66          6           0       10.910758   -0.411424    3.095984
     67          1           0       -0.948271    2.248541   -0.107573
     68          1           0       -6.490902    5.207535    0.311824
     69          1           0       -9.576107   -0.447501    0.636495
     70          1           0       -1.272163   -2.593473    0.429130
     71          1           0       -0.113932   -0.160134   -0.703841
     72          1           0       -0.207182   -1.304442    1.913515
     73          1           0       -0.909130    0.240968    2.076784
     74          1           0        0.732827    0.231830    1.411922
     75          1           0       -1.084636   -1.655321   -2.476694
     76          1           0       -2.263814   -2.892130   -1.997552
     77          1           0        0.254289   -3.083166   -2.745815
     78          1           0       -0.701189   -4.440248   -2.127673
     79          1           0       -0.922824    5.777570   -1.028911
     80          1           0       -0.518817    4.203933   -1.290378
     81          1           0       -0.686983    4.849258    0.456815
     82          1           0       -2.002343    7.300947    0.207024
     83          1           0       -3.000799    8.632158   -0.451103
     84          1           0       -2.494109    7.210783   -1.477039
     85          1           0       -8.896908    4.339553   -0.343863
     86          1           0      -10.079471    2.014624    0.958991
     87          1           0       -9.243037    5.367535    1.552304
     88          1           0       -7.962476    4.457416    2.402783
     89          1           0       -9.656584    3.898911    2.358236
     90          1           0      -10.333963    3.285882   -1.311861
     91          1           0      -11.104121    1.751443   -0.644577
     92          1           0      -10.409532    0.696516   -2.446133
     93          1           0       -8.641818    1.214142   -2.370408
     94          1           0       -9.836039    2.302195   -3.016941
     95          1           0       -9.052450   -4.344606    0.576798
     96          1           0       -9.835439   -2.775607    0.761374
     97          1           0       -9.160635   -3.542947    2.173206
     98          1           0       -3.837478   -4.329266   -0.847801
     99          1           0       -1.992651   -7.479897    1.218198
    100          1           0       -2.690035   -6.537459    2.589494
    101          1           0       -1.158708   -6.049709    1.963320
    102          1           0        2.788736   -3.941440    0.663728
    103          1           0        2.398864   -2.248277    0.733900
    104          1           0        4.522666   -1.575290    0.101142
    105          1           0        3.853085   -4.775057   -1.705839
    106          1           0        5.653719   -5.021768   -1.726510
    107          1           0        4.910149   -4.138464   -3.014886
    108          1           0        7.124832   -3.277416   -1.030128
    109          1           0        6.636323   -1.554233   -0.671313
    110          1           0        6.378787   -1.006049   -2.826619
    111          1           0        6.494942   -2.575648   -3.520547
    112          1           0        8.563136   -2.021608   -3.967065
    113          1           0        9.055674   -2.464248   -2.394791
    114          1           0        8.199931    0.182605   -1.994461
    115          1           0        8.165389    0.151417   -4.522750
    116          1           0        9.874684    0.669228   -4.510129
    117          1           0        8.548668    1.527770   -3.795465
    118          1           0       11.165667   -0.252412   -2.459326
    119          1           0       10.260549   -1.080792   -1.152400
    120          1           0       10.194918    0.718905    0.159214
    121          1           0        9.631987    1.795521   -0.989728
    122          1           0       11.949069    1.746225   -2.064741
    123          1           0       12.527238    0.971173   -0.603977
    124          1           0       10.886765    3.314324   -0.167961
    125          1           0       11.649631    4.865374   -1.398404
    126          1           0       12.729694    3.751067   -2.301816
    127          1           0       13.445382    4.572363   -0.989682
    128          1           0       13.333594    3.851519    1.284627
    129          1           0       13.561031    2.154295    0.793624
    130          1           0       10.850862    2.313898    1.834567
    131          1           0       11.725552    3.550160    2.717554
    132          1           0       13.080633    2.151827    3.770199
    133          1           0       13.099588    0.872827    2.521873
    134          1           0       10.634050    1.369807    4.184769
    135          1           0       11.945277    0.899899    6.108698
    136          1           0       13.213079    0.306874    5.072977
    137          1           0       11.708696   -0.695786    5.448866
    138          1           0       11.508583   -0.601182    2.204446
    139          1           0        9.893938   -0.234684    2.744870
    140          1           0       10.850899   -1.344107    3.657810
 ---------------------------------------------------------------------

 SCF Done:  E(RCAM-B3LYP) =  -3007.15370693     A.U. after   17 cycles

 Excitation energies and oscillator strengths:

 Excited State   1:      Singlet-A      1.7027 eV  728.17 nm  f=0.3792  <S**2>=0.000
     245 -> 248       -0.18695
     246 -> 247        0.68393
     245 <- 248       -0.10968
 This state for optimization and/or second-order correction.
 Total Energy, E(TD-HF/TD-DFT) =  -3007.09113429
 Copying the excited state density for this state as the 1-particle RhoCI density.

 Excited State   2:      Singlet-A      2.2343 eV  554.90 nm  f=0.0683  <S**2>=0.000
     245 -> 247        0.62104
     246 -> 248        0.32844

 Excited State   3:      Singlet-A      3.4420 eV  360.21 nm  f=0.6310  <S**2>=0.000
     239 -> 247       -0.11799
     242 -> 247       -0.19972
     245 -> 247       -0.29179
     246 -> 248        0.58998
     245 <- 247        0.10718

 Excited State   4:      Singlet-A      3.4689 eV  357.42 nm  f=0.0033  <S**2>=0.000
     241 -> 247       -0.16189
     241 -> 250        0.11625
     244 -> 247        0.63563

 Excited State   5:      Singlet-A      3.5227 eV  351.95 nm  f=0.0259  <S**2>=0.000
     240 -> 247        0.46762
     240 -> 249       -0.41280
     240 -> 250       -0.22217

 The electronic state is 1-A.
 Alpha  occ. eigenvalues --  -46.88575 -19.24862 -19.23450 -19.21242 -19.20159
 Alpha  occ. eigenvalues --  -19.19277 -19.18206 -14.42601 -14.42305 -14.39484
 Alpha  occ. eigenvalues --  -14.39409 -10.39954 -10.37741 -10.37228 -10.35496
 Alpha  occ. eigenvalues --  -10.31925 -10.31511 -10.31421 -10.31337 -10.31067
 Alpha  occ. eigenvalues --  -10.30596 -10.30061 -10.29903 -10.29866 -10.29441
 Alpha  occ. eigenvalues --  -10.29234 -10.28893 -10.28875 -10.28667 -10.28532
 Alpha  occ. eigenvalues --  -10.28264 -10.28081 -10.27913 -10.27847 -10.27638
 Alpha  occ. eigenvalues --  -10.27522 -10.27374 -10.26984 -10.26936 -10.26645
 Alpha  occ. eigenvalues --  -10.26630 -10.26490 -10.26456 -10.26393 -10.26205
 Alpha  occ. eigenvalues --  -10.26170 -10.26080 -10.26073 -10.25930 -10.25772
 Alpha  occ. eigenvalues --  -10.25768 -10.25610 -10.25495 -10.25441 -10.25378
 Alpha  occ. eigenvalues --  -10.25313 -10.25137 -10.25106 -10.25070 -10.24774
 Alpha  occ. eigenvalues --  -10.24576 -10.24573 -10.24474 -10.24373 -10.24311
 Alpha  occ. eigenvalues --  -10.24294  -3.17147  -1.92054  -1.91579  -1.91470
 Alpha  occ. eigenvalues --   -1.16137  -1.14605  -1.09608  -1.08719  -1.08308
 Alpha  occ. eigenvalues --   -1.05563  -1.04535  -1.03253  -1.03126  -1.01716
 Alpha  occ. eigenvalues --   -0.92541  -0.90536  -0.90136  -0.89662  -0.89545
 Alpha  occ. eigenvalues --   -0.88816  -0.88649  -0.87535  -0.87356  -0.86331
 Alpha  occ. eigenvalues --   -0.86192  -0.85761  -0.84421  -0.84025  -0.83440
 Alpha  occ. eigenvalues --   -0.82533  -0.81517  -0.80879  -0.80616  -0.80249
 Alpha  occ. eigenvalues --   -0.79889  -0.78220  -0.78147  -0.77130  -0.76226
 Alpha  occ. eigenvalues --   -0.75774  -0.75435  -0.75101  -0.75063  -0.74055
 Alpha  occ. eigenvalues --   -0.73473  -0.72743  -0.71938  -0.70656  -0.69841
 Alpha  occ. eigenvalues --   -0.68798  -0.68538  -0.67247  -0.66493  -0.66123
 Alpha  occ. eigenvalues --   -0.65319  -0.65020  -0.64593  -0.64449  -0.64045
 Alpha  occ. eigenvalues --   -0.63343  -0.63286  -0.62284  -0.61020  -0.60102
 Alpha  occ. eigenvalues --   -0.59912  -0.59322  -0.59183  -0.58834  -0.58376
 Alpha  occ. eigenvalues --   -0.57498  -0.57277  -0.56678  -0.55911  -0.55357
 Alpha  occ. eigenvalues --   -0.55114  -0.55007  -0.54819  -0.54655  -0.54268
 Alpha  occ. eigenvalues --   -0.53902  -0.53396  -0.53296  -0.53122  -0.52765
 Alpha  occ. eigenvalues --   -0.52408  -0.52238  -0.52143  -0.52077  -0.51801
 Alpha  occ. eigenvalues --   -0.51291  -0.51269  -0.51054  -0.50744  -0.50488
 Alpha  occ. eigenvalues --   -0.50403  -0.50260  -0.49932  -0.49820  -0.49623
 Alpha  occ. eigenvalues --   -0.49409  -0.49196  -0.49103  -0.48997  -0.48744
 Alpha  occ. eigenvalues --   -0.48575  -0.48233  -0.47942  -0.47882  -0.47746
 Alpha  occ. eigenvalues --   -0.47684  -0.47443  -0.47145  -0.46782  -0.46479
 Alpha  occ. eigenvalues --   -0.46133  -0.45975  -0.45925  -0.45781  -0.45642
 Alpha  occ. eigenvalues --   -0.45540  -0.45412  -0.45243  -0.44864  -0.44758
 Alpha  occ. eigenvalues --   -0.44604  -0.44557  -0.44203  -0.44062  -0.43841
 Alpha  occ. eigenvalues --   -0.43747  -0.43595  -0.43169  -0.43090  -0.42814
 Alpha  occ. eigenvalues --   -0.42535  -0.42448  -0.42434  -0.42169  -0.41919
 Alpha  occ. eigenvalues --   -0.41845  -0.41745  -0.41543  -0.41227  -0.41020
 Alpha  occ. eigenvalues --   -0.40947  -0.40903  -0.40755  -0.40624  -0.40443
 Alpha  occ. eigenvalues --   -0.40297  -0.39961  -0.39528  -0.39222  -0.38672
 Alpha  occ. eigenvalues --   -0.38377  -0.38135  -0.37916  -0.37575  -0.37522
 Alpha  occ. eigenvalues --   -0.37471  -0.37183  -0.36854  -0.36653  -0.36624
 Alpha  occ. eigenvalues --   -0.36457  -0.35405  -0.35327  -0.34675  -0.34510
 Alpha  occ. eigenvalues --   -0.33588  -0.33519  -0.33100  -0.31677  -0.31159
 Alpha  occ. eigenvalues --   -0.30969  -0.30390  -0.29938  -0.29730  -0.24243
 Alpha  occ. eigenvalues --   -0.21049
 Alpha virt. eigenvalues --   -0.08553  -0.02157  -0.00346   0.01637   0.02689
 Alpha virt. eigenvalues --    0.03745   0.04369   0.04760   0.05241   0.06485
 Alpha virt. eigenvalues --    0.07730   0.08029   0.08190   0.08265   0.08943

 Mulliken charges:
               1
     1  Mg   0.827203
     2  C   -0.052002
     3  C   -0.045494
     4  C   -0.072847
     5  C   -0.083097
     6  N   -0.257561
     7  C   -0.020176
     8  C   -0.050069
     9  C   -0.072706
    10  C    0.023626
    11  C    0.072896
    12  C    0.089577
    13  C    0.096833
    14  C    0.144866
    15  O   -0.213159
    16  O   -0.357853
    17  N   -0.347897
    18  C    0.130485
    19  C   -0.121645
    20  C   -0.049815
    21  C    0.103241
    22  C    0.071606
    23  C    0.066247
    24  O   -0.224615
    25  C    0.017902
    26  N   -0.370199
    27  C    0.069349
    28  C   -0.043760
    29  C    0.001365
    30  C    0.074603
    31  C    0.073582
    32  C   -0.001655
    33  C    0.011063
    34  N   -0.364464
    35  C    0.120731
    36  C   -0.158802
    37  C   -0.010762
    38  C    0.130487
    39  C    0.122232
    40  C    0.050193
    41  O   -0.164397
    42  C    0.014686
    43  C    0.211364
    44  O   -0.254520
    45  O   -0.335110
    46  C    0.184774
    47  C    0.277031
    48  C   -0.126405
    49  C   -0.170777
    50  C    0.114261
    51  C    0.076327
    52  C   -0.015851
    53  C    0.065404
    54  C   -0.119954
    55  C    0.061515
    56  C    0.080450
    57  C   -0.014222
    58  C    0.033260
    59  C   -0.144919
    60  C    0.068324
    61  C    0.067993
    62  C    0.005436
    63  C    0.022757
    64  C   -0.155502
    65  C    0.044047
    66  C    0.040902
    67  H   -0.028514
    68  H   -0.012421
    69  H   -0.027159
    70  H    0.034381
    71  H    0.004925
    72  H    0.032619
    73  H    0.018301
    74  H    0.029182
    75  H    0.013100
    76  H    0.007093
    77  H    0.019155
    78  H    0.031978
    79  H    0.008053
    80  H    0.034741
    81  H    0.045329
    82  H    0.028711
    83  H    0.037628
    84  H    0.043277
    85  H    0.019811
    86  H   -0.008031
    87  H    0.017242
    88  H    0.034987
    89  H    0.011209
    90  H    0.004771
    91  H    0.006496
    92  H    0.020720
    93  H    0.037110
    94  H    0.006062
    95  H    0.037586
    96  H    0.001532
    97  H    0.039383
    98  H    0.033715
    99  H    0.034747
   100  H    0.037754
   101  H    0.028413
   102  H    0.040433
   103  H    0.001988
   104  H   -0.010100
   105  H    0.026745
   106  H    0.010771
   107  H    0.026914
   108  H    0.003249
   109  H    0.005035
   110  H   -0.002566
   111  H   -0.003426
   112  H   -0.008698
   113  H   -0.012898
   114  H   -0.007092
   115  H   -0.013217
   116  H    0.019168
   117  H   -0.010756
   118  H    0.003740
   119  H   -0.009456
   120  H   -0.008403
   121  H   -0.007142
   122  H   -0.008413
   123  H   -0.002061
   124  H   -0.003265
   125  H    0.015980
   126  H   -0.006019
   127  H    0.009239
   128  H    0.000179
   129  H    0.005743
   130  H    0.002875
   131  H   -0.001069
   132  H   -0.008779
   133  H   -0.002212
   134  H   -0.010059
   135  H    0.007655
   136  H    0.007903
   137  H    0.001616
   138  H    0.003848
   139  H    0.010548
   140  H    0.001734
 Sum of Mulliken charges =  -0.00000

 Dipole moment (field-independent basis, Debye):
    X=              3.9800    Y=              3.0342    Z=             -3.2232  Tot=              5.9528
 Quadrupole moment (field-independent basis, Debye-Ang):
   XX=           -381.6177   YY=           -442.0895   ZZ=           -407.1606
   XY=            -15.1259   XZ=              3.3845   YZ=              9.5044

 Normal termination of Gaussian 16 at Fri Apr 29 13:35:20 2022.
