 Gaussian 16, Revision A.03,
 Gaussian 16:  ES64L-G16RevA.03 25-Dec-2016

 ---------------------------------
 #p PBE1PBE/Def2SVP td=(nstates=5)
 ---------------------------------

 ----------------------------------------------------
 step_301_chromophore_9 TDDFT with PBE1PBE functional
 ----------------------------------------------------
 Symbolic Z-matrix:
 Charge =  0 Multiplicity = 1

                         Standard orientation:
 ---------------------------------------------------------------------
 Center     Atomic      Atomic             Coordinates (Angstroms)
 Number     Number       Type             X           Y           Z
 ---------------------------------------------------------------------
      1         12           0       -5.240001    0.844566   -0.078858
      2          6           0       -4.156483   -2.456066    0.131481
      3          6           0       -1.972352    1.887732   -0.223236
      4          6           0       -6.169934    4.170509    0.197778
      5          6           0       -8.525940   -0.193562    0.479633
      6          7           0       -3.246299   -0.219401   -0.014457
      7          6           0       -3.040612   -1.551112   -0.038348
      8          6           0       -1.565072   -1.830083   -0.292160
      9          6           0       -0.881261   -0.426190    0.023005
     10          6           0       -2.099334    0.503833   -0.099364
     11          6           0       -0.208875   -0.315920    1.454171
     12          6           0       -1.321553   -2.413962   -1.730117
     13          6           0       -0.268822   -3.472840   -1.872430
     14          6           0        0.664437   -3.780024   -0.753981
     15          8           0        0.433580   -4.456711    0.228792
     16          8           0        1.865331   -3.112826   -1.037300
     17          7           0       -4.207888    2.783846   -0.179075
     18          6           0       -2.847212    2.914481   -0.251353
     19          6           0       -2.610675    4.360379   -0.360165
     20          6           0       -3.800195    5.087213   -0.223148
     21          6           0       -4.801727    4.009978   -0.006386
     22          6           0       -1.067345    4.801943   -0.563718
     23          6           0       -4.059522    6.636375   -0.158029
     24          8           0       -5.131762    7.295644   -0.019455
     25          6           0       -2.798844    7.561141   -0.489919
     26          7           0       -6.969378    1.835366    0.167510
     27          6           0       -7.174213    3.211003    0.274886
     28          6           0       -8.631585    3.636385    0.445657
     29          6           0       -9.339201    2.265182    0.199562
     30          6           0       -8.237956    1.218864    0.265969
     31          6           0       -8.858505    4.374727    1.787056
     32          6           0      -10.201390    2.253021   -0.990145
     33          6           0       -9.690003    1.500673   -2.292606
     34          7           0       -6.220440   -0.917535    0.322098
     35          6           0       -7.559056   -1.231142    0.531315
     36          6           0       -7.708965   -2.663026    0.764204
     37          6           0       -6.421273   -3.168106    0.502296
     38          6           0       -5.520654   -2.060374    0.397679
     39          6           0       -9.004381   -3.392596    1.104927
     40          6           0       -5.667864   -4.397536    0.286496
     41          8           0       -6.040064   -5.561872    0.196371
     42          6           0       -4.122039   -3.956917    0.135951
     43          6           0       -3.371389   -4.523038    1.142017
     44          8           0       -3.506037   -4.294260    2.359472
     45          8           0       -2.606782   -5.579368    0.670780
     46          6           0       -2.109624   -6.494138    1.668088
     47          6           0        2.805709   -3.020883    0.080859
     48          6           0        4.155270   -2.486544   -0.370331
     49          6           0        5.086201   -3.105388   -1.182237
     50          6           0        4.826891   -4.347918   -1.948116
     51          6           0        6.490915   -2.433235   -1.300467
     52          6           0        6.908986   -1.952629   -2.727707
     53          6           0        8.429018   -1.744417   -2.921102
     54          6           0        8.951618   -0.281100   -2.633736
     55          6           0        8.978245    0.531511   -3.905142
     56          6           0       10.286313   -0.216342   -1.816181
     57          6           0       10.390275    1.022214   -0.869372
     58          6           0       11.790847    1.677709   -0.988759
     59          6           0       11.927183    3.058742   -0.367806
     60          6           0       12.487837    4.173436   -1.326803
     61          6           0       12.830380    2.951380    0.931708
     62          6           0       11.849631    2.654491    2.108697
     63          6           0       12.478278    1.591971    3.054811
     64          6           0       11.489411    0.761984    3.888479
     65          6           0       12.134830    0.282964    5.230170
     66          6           0       10.910758   -0.411424    3.095984
     67          1           0       -0.948271    2.248541   -0.107573
     68          1           0       -6.490902    5.207535    0.311824
     69          1           0       -9.576107   -0.447501    0.636495
     70          1           0       -1.272163   -2.593473    0.429130
     71          1           0       -0.113932   -0.160134   -0.703841
     72          1           0       -0.207182   -1.304442    1.913515
     73          1           0       -0.909130    0.240968    2.076784
     74          1           0        0.732827    0.231830    1.411922
     75          1           0       -1.084636   -1.655321   -2.476694
     76          1           0       -2.263814   -2.892130   -1.997552
     77          1           0        0.254289   -3.083166   -2.745815
     78          1           0       -0.701189   -4.440248   -2.127673
     79          1           0       -0.922824    5.777570   -1.028911
     80          1           0       -0.518817    4.203933   -1.290378
     81          1           0       -0.686983    4.849258    0.456815
     82          1           0       -2.002343    7.300947    0.207024
     83          1           0       -3.000799    8.632158   -0.451103
     84          1           0       -2.494109    7.210783   -1.477039
     85          1           0       -8.896908    4.339553   -0.343863
     86          1           0      -10.079471    2.014624    0.958991
     87          1           0       -9.243037    5.367535    1.552304
     88          1           0       -7.962476    4.457416    2.402783
     89          1           0       -9.656584    3.898911    2.358236
     90          1           0      -10.333963    3.285882   -1.311861
     91          1           0      -11.104121    1.751443   -0.644577
     92          1           0      -10.409532    0.696516   -2.446133
     93          1           0       -8.641818    1.214142   -2.370408
     94          1           0       -9.836039    2.302195   -3.016941
     95          1           0       -9.052450   -4.344606    0.576798
     96          1           0       -9.835439   -2.775607    0.761374
     97          1           0       -9.160635   -3.542947    2.173206
     98          1           0       -3.837478   -4.329266   -0.847801
     99          1           0       -1.992651   -7.479897    1.218198
    100          1           0       -2.690035   -6.537459    2.589494
    101          1           0       -1.158708   -6.049709    1.963320
    102          1           0        2.788736   -3.941440    0.663728
    103          1           0        2.398864   -2.248277    0.733900
    104          1           0        4.522666   -1.575290    0.101142
    105          1           0        3.853085   -4.775057   -1.705839
    106          1           0        5.653719   -5.021768   -1.726510
    107          1           0        4.910149   -4.138464   -3.014886
    108          1           0        7.124832   -3.277416   -1.030128
    109          1           0        6.636323   -1.554233   -0.671313
    110          1           0        6.378787   -1.006049   -2.826619
    111          1           0        6.494942   -2.575648   -3.520547
    112          1           0        8.563136   -2.021608   -3.967065
    113          1           0        9.055674   -2.464248   -2.394791
    114          1           0        8.199931    0.182605   -1.994461
    115          1           0        8.165389    0.151417   -4.522750
    116          1           0        9.874684    0.669228   -4.510129
    117          1           0        8.548668    1.527770   -3.795465
    118          1           0       11.165667   -0.252412   -2.459326
    119          1           0       10.260549   -1.080792   -1.152400
    120          1           0       10.194918    0.718905    0.159214
    121          1           0        9.631987    1.795521   -0.989728
    122          1           0       11.949069    1.746225   -2.064741
    123          1           0       12.527238    0.971173   -0.603977
    124          1           0       10.886765    3.314324   -0.167961
    125          1           0       11.649631    4.865374   -1.398404
    126          1           0       12.729694    3.751067   -2.301816
    127          1           0       13.445382    4.572363   -0.989682
    128          1           0       13.333594    3.851519    1.284627
    129          1           0       13.561031    2.154295    0.793624
    130          1           0       10.850862    2.313898    1.834567
    131          1           0       11.725552    3.550160    2.717554
    132          1           0       13.080633    2.151827    3.770199
    133          1           0       13.099588    0.872827    2.521873
    134          1           0       10.634050    1.369807    4.184769
    135          1           0       11.945277    0.899899    6.108698
    136          1           0       13.213079    0.306874    5.072977
    137          1           0       11.708696   -0.695786    5.448866
    138          1           0       11.508583   -0.601182    2.204446
    139          1           0        9.893938   -0.234684    2.744870
    140          1           0       10.850899   -1.344107    3.657810
 ---------------------------------------------------------------------

 SCF Done:  E(RPBE1PBE) =  -3005.34277006     A.U. after   15 cycles

 Excitation energies and oscillator strengths:

 Excited State   1:      Singlet-A      1.8490 eV  670.53 nm  f=0.3712  <S**2>=0.000
     245 -> 248       -0.17881
     246 -> 247        0.69137
     246 <- 247       -0.10338
 This state for optimization and/or second-order correction.
 Total Energy, E(TD-HF/TD-DFT) =  -3005.27481891
 Copying the excited state density for this state as the 1-particle RhoCI density.

 Excited State   2:      Singlet-A      2.2301 eV  555.96 nm  f=0.0744  <S**2>=0.000
     245 -> 247        0.63922
     246 -> 248        0.29362

 Excited State   3:      Singlet-A      3.0369 eV  408.25 nm  f=0.0005  <S**2>=0.000
     240 -> 247       -0.17472
     241 -> 247       -0.15659
     242 -> 247        0.10564
     243 -> 247        0.61849
     244 -> 247       -0.13725

 Excited State   4:      Singlet-A      3.0990 eV  400.07 nm  f=0.0007  <S**2>=0.000
     241 -> 247        0.30218
     241 -> 249       -0.13344
     242 -> 247        0.57285
     242 -> 249       -0.19263

 Excited State   5:      Singlet-A      3.1999 eV  387.46 nm  f=0.0012  <S**2>=0.000
     240 -> 247        0.18226
     241 -> 247        0.54598
     242 -> 247       -0.27865
     243 -> 247        0.24214

 The electronic state is 1-A.
 Alpha  occ. eigenvalues --  -46.91994 -19.25555 -19.24093 -19.21488 -19.20268
 Alpha  occ. eigenvalues --  -19.19638 -19.18421 -14.42021 -14.41965 -14.39161
 Alpha  occ. eigenvalues --  -14.39092 -10.36967 -10.34662 -10.34306 -10.32756
 Alpha  occ. eigenvalues --  -10.29461 -10.29295 -10.29276 -10.28965 -10.28712
 Alpha  occ. eigenvalues --  -10.28096 -10.27824 -10.27550 -10.27377 -10.27108
 Alpha  occ. eigenvalues --  -10.26689 -10.26674 -10.26448 -10.26441 -10.26371
 Alpha  occ. eigenvalues --  -10.26176 -10.25733 -10.25485 -10.25478 -10.25330
 Alpha  occ. eigenvalues --  -10.25220 -10.25004 -10.24512 -10.24476 -10.24413
 Alpha  occ. eigenvalues --  -10.24208 -10.24089 -10.23938 -10.23762 -10.23664
 Alpha  occ. eigenvalues --  -10.23634 -10.23632 -10.23619 -10.23543 -10.23446
 Alpha  occ. eigenvalues --  -10.23397 -10.23333 -10.23264 -10.23029 -10.23027
 Alpha  occ. eigenvalues --  -10.22883 -10.22659 -10.22648 -10.22632 -10.22308
 Alpha  occ. eigenvalues --  -10.22124 -10.22018 -10.21947 -10.21773 -10.21687
 Alpha  occ. eigenvalues --  -10.21682  -3.14146  -1.86994  -1.86497  -1.86391
 Alpha  occ. eigenvalues --   -1.10906  -1.09346  -1.04468  -1.03580  -1.02903
 Alpha  occ. eigenvalues --   -1.00339  -0.99125  -0.98044  -0.97683  -0.96352
 Alpha  occ. eigenvalues --   -0.86919  -0.84689  -0.84283  -0.83897  -0.83756
 Alpha  occ. eigenvalues --   -0.83128  -0.82754  -0.81686  -0.81641  -0.80628
 Alpha  occ. eigenvalues --   -0.80442  -0.80051  -0.78626  -0.78364  -0.77715
 Alpha  occ. eigenvalues --   -0.76715  -0.75767  -0.75116  -0.75010  -0.74378
 Alpha  occ. eigenvalues --   -0.73964  -0.72460  -0.72360  -0.71433  -0.70426
 Alpha  occ. eigenvalues --   -0.70089  -0.69506  -0.69432  -0.69220  -0.68219
 Alpha  occ. eigenvalues --   -0.67796  -0.67203  -0.66379  -0.64955  -0.64284
 Alpha  occ. eigenvalues --   -0.63219  -0.62803  -0.61653  -0.60722  -0.60497
 Alpha  occ. eigenvalues --   -0.59593  -0.59526  -0.59062  -0.58705  -0.58565
 Alpha  occ. eigenvalues --   -0.57799  -0.57506  -0.56489  -0.55608  -0.54618
 Alpha  occ. eigenvalues --   -0.54395  -0.53904  -0.53637  -0.53362  -0.52937
 Alpha  occ. eigenvalues --   -0.52087  -0.51860  -0.51012  -0.50559  -0.49887
 Alpha  occ. eigenvalues --   -0.49559  -0.49405  -0.49364  -0.49225  -0.48782
 Alpha  occ. eigenvalues --   -0.48448  -0.47873  -0.47738  -0.47709  -0.47346
 Alpha  occ. eigenvalues --   -0.46934  -0.46737  -0.46583  -0.46544  -0.46324
 Alpha  occ. eigenvalues --   -0.45881  -0.45782  -0.45602  -0.45419  -0.45073
 Alpha  occ. eigenvalues --   -0.44929  -0.44838  -0.44463  -0.44188  -0.44163
 Alpha  occ. eigenvalues --   -0.44035  -0.43858  -0.43712  -0.43493  -0.43346
 Alpha  occ. eigenvalues --   -0.43140  -0.42813  -0.42565  -0.42434  -0.42369
 Alpha  occ. eigenvalues --   -0.42280  -0.42098  -0.41796  -0.41428  -0.41231
 Alpha  occ. eigenvalues --   -0.40948  -0.40758  -0.40671  -0.40526  -0.40343
 Alpha  occ. eigenvalues --   -0.40285  -0.40078  -0.40026  -0.39623  -0.39493
 Alpha  occ. eigenvalues --   -0.39399  -0.39215  -0.38927  -0.38892  -0.38710
 Alpha  occ. eigenvalues --   -0.38535  -0.38263  -0.37954  -0.37861  -0.37540
 Alpha  occ. eigenvalues --   -0.37339  -0.37263  -0.37185  -0.36877  -0.36790
 Alpha  occ. eigenvalues --   -0.36633  -0.36456  -0.36343  -0.36115  -0.35848
 Alpha  occ. eigenvalues --   -0.35742  -0.35673  -0.35657  -0.35368  -0.35350
 Alpha  occ. eigenvalues --   -0.35079  -0.34751  -0.34445  -0.34015  -0.33672
 Alpha  occ. eigenvalues --   -0.33126  -0.33091  -0.32743  -0.32503  -0.32432
 Alpha  occ. eigenvalues --   -0.32279  -0.32235  -0.31702  -0.31622  -0.31463
 Alpha  occ. eigenvalues --   -0.31390  -0.30361  -0.30200  -0.29866  -0.29425
 Alpha  occ. eigenvalues --   -0.29161  -0.28577  -0.27813  -0.27191  -0.26275
 Alpha  occ. eigenvalues --   -0.25917  -0.25818  -0.25364  -0.25277  -0.21140
 Alpha  occ. eigenvalues --   -0.18742
 Alpha virt. eigenvalues --   -0.11106  -0.05613  -0.04557  -0.02789  -0.00844
 Alpha virt. eigenvalues --   -0.00221  -0.00026   0.00282   0.00980   0.02951
 Alpha virt. eigenvalues --    0.03744   0.04186   0.04595   0.04871   0.05383

 Mulliken charges:
               1
     1  Mg   0.977779
     2  C   -0.075301
     3  C   -0.049681
     4  C   -0.059738
     5  C   -0.070415
     6  N   -0.363018
     7  C    0.058375
     8  C   -0.128661
     9  C   -0.145627
    10  C    0.063309
    11  C    0.018471
    12  C    0.040324
    13  C    0.024040
    14  C    0.208438
    15  O   -0.248290
    16  O   -0.385470
    17  N   -0.456352
    18  C    0.157890
    19  C   -0.152296
    20  C   -0.085542
    21  C    0.129445
    22  C    0.013392
    23  C    0.111133
    24  O   -0.261286
    25  C   -0.058982
    26  N   -0.474794
    27  C    0.096218
    28  C   -0.119465
    29  C   -0.069285
    30  C    0.102108
    31  C    0.017012
    32  C   -0.058800
    33  C   -0.062682
    34  N   -0.488398
    35  C    0.137290
    36  C   -0.169957
    37  C   -0.065066
    38  C    0.195716
    39  C    0.069835
    40  C    0.143251
    41  O   -0.208963
    42  C   -0.096316
    43  C    0.306803
    44  O   -0.289670
    45  O   -0.369149
    46  C    0.129198
    47  C    0.228486
    48  C   -0.136346
    49  C   -0.209862
    50  C    0.050379
    51  C    0.012733
    52  C   -0.080336
    53  C    0.008752
    54  C   -0.206790
    55  C    0.006283
    56  C    0.023204
    57  C   -0.077123
    58  C   -0.014387
    59  C   -0.237500
    60  C    0.010331
    61  C    0.011008
    62  C   -0.052605
    63  C   -0.035799
    64  C   -0.247343
    65  C   -0.017271
    66  C   -0.017091
    67  H    0.003240
    68  H    0.019542
    69  H    0.004675
    70  H    0.077996
    71  H    0.040629
    72  H    0.058860
    73  H    0.047125
    74  H    0.054749
    75  H    0.044193
    76  H    0.042585
    77  H    0.052031
    78  H    0.062988
    79  H    0.034004
    80  H    0.059579
    81  H    0.072968
    82  H    0.056338
    83  H    0.064174
    84  H    0.070145
    85  H    0.056005
    86  H    0.029782
    87  H    0.044413
    88  H    0.062277
    89  H    0.038895
    90  H    0.037548
    91  H    0.037664
    92  H    0.048344
    93  H    0.066370
    94  H    0.034709
    95  H    0.065127
    96  H    0.029635
    97  H    0.067430
    98  H    0.071015
    99  H    0.056803
   100  H    0.059208
   101  H    0.052383
   102  H    0.065784
   103  H    0.032859
   104  H    0.019268
   105  H    0.055452
   106  H    0.038682
   107  H    0.054165
   108  H    0.037342
   109  H    0.035729
   110  H    0.030937
   111  H    0.028885
   112  H    0.024720
   113  H    0.018545
   114  H    0.032034
   115  H    0.015358
   116  H    0.045119
   117  H    0.017256
   118  H    0.034809
   119  H    0.024189
   120  H    0.029653
   121  H    0.023796
   122  H    0.025309
   123  H    0.029975
   124  H    0.034544
   125  H    0.042939
   126  H    0.021088
   127  H    0.036060
   128  H    0.032317
   129  H    0.036869
   130  H    0.034876
   131  H    0.032626
   132  H    0.025592
   133  H    0.029402
   134  H    0.028501
   135  H    0.035419
   136  H    0.035358
   137  H    0.028641
   138  H    0.031379
   139  H    0.036840
   140  H    0.028707
 Sum of Mulliken charges =  -0.00000

 Dipole moment (field-independent basis, Debye):
    X=              3.6737    Y=              2.7282    Z=             -3.2171  Tot=              5.5937
 Quadrupole moment (field-independent basis, Debye-Ang):
   XX=           -373.2195   YY=           -440.3789   ZZ=           -404.5902
   XY=            -14.2530   XZ=              2.8779   YZ=              9.7852

 Normal termination of Gaussian 16 at Fri Apr 29 13:55:32 2022.
