 Gaussian 16, Revision A.03,
 Gaussian 16:  ES64L-G16RevA.03 25-Dec-2016

 --------------------------------
 #p wB97XD/Def2SVP td=(nstates=5)
 --------------------------------

 ---------------------------------------------------
 step_301_chromophore_9 TDDFT with wB97XD functional
 ---------------------------------------------------
 Symbolic Z-matrix:
 Charge =  0 Multiplicity = 1

                         Standard orientation:
 ---------------------------------------------------------------------
 Center     Atomic      Atomic             Coordinates (Angstroms)
 Number     Number       Type             X           Y           Z
 ---------------------------------------------------------------------
      1         12           0       -5.240001    0.844566   -0.078858
      2          6           0       -4.156483   -2.456066    0.131481
      3          6           0       -1.972352    1.887732   -0.223236
      4          6           0       -6.169934    4.170509    0.197778
      5          6           0       -8.525940   -0.193562    0.479633
      6          7           0       -3.246299   -0.219401   -0.014457
      7          6           0       -3.040612   -1.551112   -0.038348
      8          6           0       -1.565072   -1.830083   -0.292160
      9          6           0       -0.881261   -0.426190    0.023005
     10          6           0       -2.099334    0.503833   -0.099364
     11          6           0       -0.208875   -0.315920    1.454171
     12          6           0       -1.321553   -2.413962   -1.730117
     13          6           0       -0.268822   -3.472840   -1.872430
     14          6           0        0.664437   -3.780024   -0.753981
     15          8           0        0.433580   -4.456711    0.228792
     16          8           0        1.865331   -3.112826   -1.037300
     17          7           0       -4.207888    2.783846   -0.179075
     18          6           0       -2.847212    2.914481   -0.251353
     19          6           0       -2.610675    4.360379   -0.360165
     20          6           0       -3.800195    5.087213   -0.223148
     21          6           0       -4.801727    4.009978   -0.006386
     22          6           0       -1.067345    4.801943   -0.563718
     23          6           0       -4.059522    6.636375   -0.158029
     24          8           0       -5.131762    7.295644   -0.019455
     25          6           0       -2.798844    7.561141   -0.489919
     26          7           0       -6.969378    1.835366    0.167510
     27          6           0       -7.174213    3.211003    0.274886
     28          6           0       -8.631585    3.636385    0.445657
     29          6           0       -9.339201    2.265182    0.199562
     30          6           0       -8.237956    1.218864    0.265969
     31          6           0       -8.858505    4.374727    1.787056
     32          6           0      -10.201390    2.253021   -0.990145
     33          6           0       -9.690003    1.500673   -2.292606
     34          7           0       -6.220440   -0.917535    0.322098
     35          6           0       -7.559056   -1.231142    0.531315
     36          6           0       -7.708965   -2.663026    0.764204
     37          6           0       -6.421273   -3.168106    0.502296
     38          6           0       -5.520654   -2.060374    0.397679
     39          6           0       -9.004381   -3.392596    1.104927
     40          6           0       -5.667864   -4.397536    0.286496
     41          8           0       -6.040064   -5.561872    0.196371
     42          6           0       -4.122039   -3.956917    0.135951
     43          6           0       -3.371389   -4.523038    1.142017
     44          8           0       -3.506037   -4.294260    2.359472
     45          8           0       -2.606782   -5.579368    0.670780
     46          6           0       -2.109624   -6.494138    1.668088
     47          6           0        2.805709   -3.020883    0.080859
     48          6           0        4.155270   -2.486544   -0.370331
     49          6           0        5.086201   -3.105388   -1.182237
     50          6           0        4.826891   -4.347918   -1.948116
     51          6           0        6.490915   -2.433235   -1.300467
     52          6           0        6.908986   -1.952629   -2.727707
     53          6           0        8.429018   -1.744417   -2.921102
     54          6           0        8.951618   -0.281100   -2.633736
     55          6           0        8.978245    0.531511   -3.905142
     56          6           0       10.286313   -0.216342   -1.816181
     57          6           0       10.390275    1.022214   -0.869372
     58          6           0       11.790847    1.677709   -0.988759
     59          6           0       11.927183    3.058742   -0.367806
     60          6           0       12.487837    4.173436   -1.326803
     61          6           0       12.830380    2.951380    0.931708
     62          6           0       11.849631    2.654491    2.108697
     63          6           0       12.478278    1.591971    3.054811
     64          6           0       11.489411    0.761984    3.888479
     65          6           0       12.134830    0.282964    5.230170
     66          6           0       10.910758   -0.411424    3.095984
     67          1           0       -0.948271    2.248541   -0.107573
     68          1           0       -6.490902    5.207535    0.311824
     69          1           0       -9.576107   -0.447501    0.636495
     70          1           0       -1.272163   -2.593473    0.429130
     71          1           0       -0.113932   -0.160134   -0.703841
     72          1           0       -0.207182   -1.304442    1.913515
     73          1           0       -0.909130    0.240968    2.076784
     74          1           0        0.732827    0.231830    1.411922
     75          1           0       -1.084636   -1.655321   -2.476694
     76          1           0       -2.263814   -2.892130   -1.997552
     77          1           0        0.254289   -3.083166   -2.745815
     78          1           0       -0.701189   -4.440248   -2.127673
     79          1           0       -0.922824    5.777570   -1.028911
     80          1           0       -0.518817    4.203933   -1.290378
     81          1           0       -0.686983    4.849258    0.456815
     82          1           0       -2.002343    7.300947    0.207024
     83          1           0       -3.000799    8.632158   -0.451103
     84          1           0       -2.494109    7.210783   -1.477039
     85          1           0       -8.896908    4.339553   -0.343863
     86          1           0      -10.079471    2.014624    0.958991
     87          1           0       -9.243037    5.367535    1.552304
     88          1           0       -7.962476    4.457416    2.402783
     89          1           0       -9.656584    3.898911    2.358236
     90          1           0      -10.333963    3.285882   -1.311861
     91          1           0      -11.104121    1.751443   -0.644577
     92          1           0      -10.409532    0.696516   -2.446133
     93          1           0       -8.641818    1.214142   -2.370408
     94          1           0       -9.836039    2.302195   -3.016941
     95          1           0       -9.052450   -4.344606    0.576798
     96          1           0       -9.835439   -2.775607    0.761374
     97          1           0       -9.160635   -3.542947    2.173206
     98          1           0       -3.837478   -4.329266   -0.847801
     99          1           0       -1.992651   -7.479897    1.218198
    100          1           0       -2.690035   -6.537459    2.589494
    101          1           0       -1.158708   -6.049709    1.963320
    102          1           0        2.788736   -3.941440    0.663728
    103          1           0        2.398864   -2.248277    0.733900
    104          1           0        4.522666   -1.575290    0.101142
    105          1           0        3.853085   -4.775057   -1.705839
    106          1           0        5.653719   -5.021768   -1.726510
    107          1           0        4.910149   -4.138464   -3.014886
    108          1           0        7.124832   -3.277416   -1.030128
    109          1           0        6.636323   -1.554233   -0.671313
    110          1           0        6.378787   -1.006049   -2.826619
    111          1           0        6.494942   -2.575648   -3.520547
    112          1           0        8.563136   -2.021608   -3.967065
    113          1           0        9.055674   -2.464248   -2.394791
    114          1           0        8.199931    0.182605   -1.994461
    115          1           0        8.165389    0.151417   -4.522750
    116          1           0        9.874684    0.669228   -4.510129
    117          1           0        8.548668    1.527770   -3.795465
    118          1           0       11.165667   -0.252412   -2.459326
    119          1           0       10.260549   -1.080792   -1.152400
    120          1           0       10.194918    0.718905    0.159214
    121          1           0        9.631987    1.795521   -0.989728
    122          1           0       11.949069    1.746225   -2.064741
    123          1           0       12.527238    0.971173   -0.603977
    124          1           0       10.886765    3.314324   -0.167961
    125          1           0       11.649631    4.865374   -1.398404
    126          1           0       12.729694    3.751067   -2.301816
    127          1           0       13.445382    4.572363   -0.989682
    128          1           0       13.333594    3.851519    1.284627
    129          1           0       13.561031    2.154295    0.793624
    130          1           0       10.850862    2.313898    1.834567
    131          1           0       11.725552    3.550160    2.717554
    132          1           0       13.080633    2.151827    3.770199
    133          1           0       13.099588    0.872827    2.521873
    134          1           0       10.634050    1.369807    4.184769
    135          1           0       11.945277    0.899899    6.108698
    136          1           0       13.213079    0.306874    5.072977
    137          1           0       11.708696   -0.695786    5.448866
    138          1           0       11.508583   -0.601182    2.204446
    139          1           0        9.893938   -0.234684    2.744870
    140          1           0       10.850899   -1.344107    3.657810
 ---------------------------------------------------------------------

 SCF Done:  E(RwB97XD) =  -3007.85244023     A.U. after   18 cycles

 Excitation energies and oscillator strengths:

 Excited State   1:      Singlet-A      1.6484 eV  752.13 nm  f=0.3771  <S**2>=0.000
     245 -> 248       -0.19237
     246 -> 247        0.68165
     245 <- 248       -0.11893
 This state for optimization and/or second-order correction.
 Total Energy, E(TD-HF/TD-DFT) =  -3007.79186092
 Copying the excited state density for this state as the 1-particle RhoCI density.

 Excited State   2:      Singlet-A      2.1783 eV  569.18 nm  f=0.0668  <S**2>=0.000
     245 -> 247        0.61970
     246 -> 248        0.32918

 Excited State   3:      Singlet-A      3.4482 eV  359.56 nm  f=0.6227  <S**2>=0.000
     239 -> 247       -0.12588
     242 -> 247       -0.21635
     245 -> 247       -0.28480
     246 -> 248        0.58382
     245 <- 247        0.11128

 Excited State   4:      Singlet-A      3.4976 eV  354.49 nm  f=0.0023  <S**2>=0.000
     241 -> 247       -0.12795
     241 -> 250        0.10149
     242 -> 247       -0.13092
     243 -> 247        0.10534
     244 -> 247        0.62092
     244 -> 249        0.11639

 Excited State   5:      Singlet-A      3.5348 eV  350.76 nm  f=0.0275  <S**2>=0.000
     240 -> 247        0.45130
     240 -> 249       -0.42732
     240 -> 250       -0.22298

 The electronic state is 1-A.
 Alpha  occ. eigenvalues --  -46.94906 -19.30077 -19.28654 -19.26132 -19.25244
 Alpha  occ. eigenvalues --  -19.24323 -19.23149 -14.47183 -14.46923 -14.44103
 Alpha  occ. eigenvalues --  -14.43993 -10.43740 -10.41544 -10.41300 -10.39521
 Alpha  occ. eigenvalues --  -10.35804 -10.35534 -10.35424 -10.35380 -10.35136
 Alpha  occ. eigenvalues --  -10.34681 -10.34300 -10.33926 -10.33893 -10.33214
 Alpha  occ. eigenvalues --  -10.33150 -10.33050 -10.33042 -10.32719 -10.32596
 Alpha  occ. eigenvalues --  -10.32356 -10.32095 -10.31919 -10.31794 -10.31687
 Alpha  occ. eigenvalues --  -10.31543 -10.31377 -10.30986 -10.30847 -10.30641
 Alpha  occ. eigenvalues --  -10.30596 -10.30390 -10.30364 -10.30344 -10.30053
 Alpha  occ. eigenvalues --  -10.30038 -10.30015 -10.29994 -10.29832 -10.29804
 Alpha  occ. eigenvalues --  -10.29629 -10.29608 -10.29526 -10.29397 -10.29313
 Alpha  occ. eigenvalues --  -10.29265 -10.29041 -10.29021 -10.28953 -10.28699
 Alpha  occ. eigenvalues --  -10.28505 -10.28401 -10.28396 -10.28202 -10.28122
 Alpha  occ. eigenvalues --  -10.28110  -3.20918  -1.94516  -1.94016  -1.93911
 Alpha  occ. eigenvalues --   -1.18265  -1.16754  -1.11841  -1.10896  -1.10572
 Alpha  occ. eigenvalues --   -1.07734  -1.06529  -1.05264  -1.05183  -1.03724
 Alpha  occ. eigenvalues --   -0.94503  -0.92347  -0.91938  -0.91451  -0.91411
 Alpha  occ. eigenvalues --   -0.90768  -0.90431  -0.89314  -0.89279  -0.88317
 Alpha  occ. eigenvalues --   -0.88108  -0.87649  -0.86273  -0.85940  -0.85334
 Alpha  occ. eigenvalues --   -0.84375  -0.83404  -0.82776  -0.82579  -0.82082
 Alpha  occ. eigenvalues --   -0.81830  -0.80180  -0.80041  -0.79010  -0.78085
 Alpha  occ. eigenvalues --   -0.77700  -0.77214  -0.77011  -0.76910  -0.75893
 Alpha  occ. eigenvalues --   -0.75391  -0.74715  -0.73913  -0.72568  -0.71766
 Alpha  occ. eigenvalues --   -0.70780  -0.70436  -0.69257  -0.68372  -0.68088
 Alpha  occ. eigenvalues --   -0.67178  -0.67035  -0.66447  -0.66403  -0.65984
 Alpha  occ. eigenvalues --   -0.65249  -0.65166  -0.64122  -0.62998  -0.62125
 Alpha  occ. eigenvalues --   -0.61852  -0.61281  -0.61125  -0.60789  -0.60360
 Alpha  occ. eigenvalues --   -0.59438  -0.59281  -0.58537  -0.57874  -0.57318
 Alpha  occ. eigenvalues --   -0.56990  -0.56895  -0.56746  -0.56583  -0.56176
 Alpha  occ. eigenvalues --   -0.55804  -0.55295  -0.55152  -0.55030  -0.54691
 Alpha  occ. eigenvalues --   -0.54358  -0.54145  -0.54054  -0.53961  -0.53737
 Alpha  occ. eigenvalues --   -0.53217  -0.53142  -0.52946  -0.52667  -0.52388
 Alpha  occ. eigenvalues --   -0.52275  -0.52166  -0.51818  -0.51778  -0.51512
 Alpha  occ. eigenvalues --   -0.51330  -0.51136  -0.51030  -0.50953  -0.50633
 Alpha  occ. eigenvalues --   -0.50473  -0.50132  -0.49909  -0.49776  -0.49688
 Alpha  occ. eigenvalues --   -0.49563  -0.49375  -0.49049  -0.48662  -0.48402
 Alpha  occ. eigenvalues --   -0.48061  -0.47847  -0.47839  -0.47685  -0.47522
 Alpha  occ. eigenvalues --   -0.47452  -0.47272  -0.47139  -0.46747  -0.46646
 Alpha  occ. eigenvalues --   -0.46493  -0.46432  -0.46136  -0.46009  -0.45794
 Alpha  occ. eigenvalues --   -0.45686  -0.45523  -0.45032  -0.45022  -0.44684
 Alpha  occ. eigenvalues --   -0.44486  -0.44401  -0.44319  -0.44042  -0.43835
 Alpha  occ. eigenvalues --   -0.43772  -0.43723  -0.43478  -0.43134  -0.42938
 Alpha  occ. eigenvalues --   -0.42822  -0.42788  -0.42677  -0.42476  -0.42314
 Alpha  occ. eigenvalues --   -0.42162  -0.41824  -0.41424  -0.41068  -0.40575
 Alpha  occ. eigenvalues --   -0.40212  -0.40088  -0.39771  -0.39450  -0.39413
 Alpha  occ. eigenvalues --   -0.39368  -0.39211  -0.38685  -0.38592  -0.38496
 Alpha  occ. eigenvalues --   -0.38401  -0.37284  -0.37202  -0.36671  -0.36484
 Alpha  occ. eigenvalues --   -0.35775  -0.35432  -0.34995  -0.33880  -0.33144
 Alpha  occ. eigenvalues --   -0.32998  -0.32581  -0.31975  -0.31862  -0.26169
 Alpha  occ. eigenvalues --   -0.22854
 Alpha virt. eigenvalues --   -0.06900  -0.00250   0.01682   0.03741   0.05714
 Alpha virt. eigenvalues --    0.06056   0.06636   0.06953   0.07656   0.09320
 Alpha virt. eigenvalues --    0.10327   0.11030   0.11418   0.11539   0.12163

 Mulliken charges:
               1
     1  Mg   0.965698
     2  C   -0.069064
     3  C   -0.061532
     4  C   -0.082463
     5  C   -0.090480
     6  N   -0.326561
     7  C    0.021886
     8  C   -0.092901
     9  C   -0.122942
    10  C    0.048252
    11  C    0.026048
    12  C    0.049051
    13  C    0.038582
    14  C    0.195497
    15  O   -0.243816
    16  O   -0.384478
    17  N   -0.425439
    18  C    0.150027
    19  C   -0.141454
    20  C   -0.085199
    21  C    0.126995
    22  C    0.026438
    23  C    0.107903
    24  O   -0.253970
    25  C   -0.041213
    26  N   -0.446966
    27  C    0.090952
    28  C   -0.093898
    29  C   -0.047157
    30  C    0.093709
    31  C    0.025689
    32  C   -0.047609
    33  C   -0.044252
    34  N   -0.451536
    35  C    0.130731
    36  C   -0.171319
    37  C   -0.057780
    38  C    0.169402
    39  C    0.082095
    40  C    0.125419
    41  O   -0.200760
    42  C   -0.056104
    43  C    0.279421
    44  O   -0.283326
    45  O   -0.366051
    46  C    0.143417
    47  C    0.243467
    48  C   -0.145002
    49  C   -0.198588
    50  C    0.064152
    51  C    0.032471
    52  C   -0.062661
    53  C    0.023641
    54  C   -0.175816
    55  C    0.014503
    56  C    0.039622
    57  C   -0.054731
    58  C   -0.000028
    59  C   -0.202524
    60  C    0.022383
    61  C    0.026479
    62  C   -0.036658
    63  C   -0.016844
    64  C   -0.219311
    65  C   -0.003180
    66  C   -0.006056
    67  H   -0.003188
    68  H    0.013753
    69  H   -0.000454
    70  H    0.056072
    71  H    0.032573
    72  H    0.054130
    73  H    0.040651
    74  H    0.050402
    75  H    0.038053
    76  H    0.031146
    77  H    0.046946
    78  H    0.058960
    79  H    0.029347
    80  H    0.056625
    81  H    0.069067
    82  H    0.049162
    83  H    0.063997
    84  H    0.062421
    85  H    0.045745
    86  H    0.019257
    87  H    0.039335
    88  H    0.056321
    89  H    0.033555
    90  H    0.028270
    91  H    0.031427
    92  H    0.042936
    93  H    0.057628
    94  H    0.028370
    95  H    0.060812
    96  H    0.022101
    97  H    0.062383
    98  H    0.064646
    99  H    0.053718
   100  H    0.055094
   101  H    0.048447
   102  H    0.062026
   103  H    0.026463
   104  H    0.015648
   105  H    0.049925
   106  H    0.032947
   107  H    0.048005
   108  H    0.026867
   109  H    0.028523
   110  H    0.020696
   111  H    0.020463
   112  H    0.016616
   113  H    0.010588
   114  H    0.016819
   115  H    0.007155
   116  H    0.040931
   117  H    0.011571
   118  H    0.025983
   119  H    0.015179
   120  H    0.013642
   121  H    0.013872
   122  H    0.011935
   123  H    0.019516
   124  H    0.019770
   125  H    0.037900
   126  H    0.014881
   127  H    0.030483
   128  H    0.025409
   129  H    0.026688
   130  H    0.020249
   131  H    0.025635
   132  H    0.016384
   133  H    0.017100
   134  H    0.017941
   135  H    0.030316
   136  H    0.028368
   137  H    0.022038
   138  H    0.022823
   139  H    0.031388
   140  H    0.023288
 Sum of Mulliken charges =  -0.00000

 Dipole moment (field-independent basis, Debye):
    X=              4.0608    Y=              3.1541    Z=             -3.2891  Tot=              6.1038
 Quadrupole moment (field-independent basis, Debye-Ang):
   XX=           -377.1302   YY=           -437.6366   ZZ=           -404.1879
   XY=            -15.2330   XZ=              3.3337   YZ=              9.5834

 Normal termination of Gaussian 16 at Fri Apr 29 14:24:53 2022.
