 Gaussian 16, Revision A.03,
 Gaussian 16:  ES64L-G16RevA.03 25-Dec-2016

 --------------------
 #p ZINDO=(nstates=5)
 --------------------

 ----------------------------
 step_301_chromophore_9 ZINDO
 ----------------------------
 Symbolic Z-matrix:
 Charge =  0 Multiplicity = 1

                         Standard orientation:
 ---------------------------------------------------------------------
 Center     Atomic      Atomic             Coordinates (Angstroms)
 Number     Number       Type             X           Y           Z
 ---------------------------------------------------------------------
      1         12           0       -5.240001    0.844566   -0.078858
      2          6           0       -4.156483   -2.456066    0.131481
      3          6           0       -1.972352    1.887732   -0.223236
      4          6           0       -6.169934    4.170509    0.197778
      5          6           0       -8.525940   -0.193562    0.479633
      6          7           0       -3.246299   -0.219401   -0.014457
      7          6           0       -3.040612   -1.551112   -0.038348
      8          6           0       -1.565072   -1.830083   -0.292160
      9          6           0       -0.881261   -0.426190    0.023005
     10          6           0       -2.099334    0.503833   -0.099364
     11          6           0       -0.208875   -0.315920    1.454171
     12          6           0       -1.321553   -2.413962   -1.730117
     13          6           0       -0.268822   -3.472840   -1.872430
     14          6           0        0.664437   -3.780024   -0.753981
     15          8           0        0.433580   -4.456711    0.228792
     16          8           0        1.865331   -3.112826   -1.037300
     17          7           0       -4.207888    2.783846   -0.179075
     18          6           0       -2.847212    2.914481   -0.251353
     19          6           0       -2.610675    4.360379   -0.360165
     20          6           0       -3.800195    5.087213   -0.223148
     21          6           0       -4.801727    4.009978   -0.006386
     22          6           0       -1.067345    4.801943   -0.563718
     23          6           0       -4.059522    6.636375   -0.158029
     24          8           0       -5.131762    7.295644   -0.019455
     25          6           0       -2.798844    7.561141   -0.489919
     26          7           0       -6.969378    1.835366    0.167510
     27          6           0       -7.174213    3.211003    0.274886
     28          6           0       -8.631585    3.636385    0.445657
     29          6           0       -9.339201    2.265182    0.199562
     30          6           0       -8.237956    1.218864    0.265969
     31          6           0       -8.858505    4.374727    1.787056
     32          6           0      -10.201390    2.253021   -0.990145
     33          6           0       -9.690003    1.500673   -2.292606
     34          7           0       -6.220440   -0.917535    0.322098
     35          6           0       -7.559056   -1.231142    0.531315
     36          6           0       -7.708965   -2.663026    0.764204
     37          6           0       -6.421273   -3.168106    0.502296
     38          6           0       -5.520654   -2.060374    0.397679
     39          6           0       -9.004381   -3.392596    1.104927
     40          6           0       -5.667864   -4.397536    0.286496
     41          8           0       -6.040064   -5.561872    0.196371
     42          6           0       -4.122039   -3.956917    0.135951
     43          6           0       -3.371389   -4.523038    1.142017
     44          8           0       -3.506037   -4.294260    2.359472
     45          8           0       -2.606782   -5.579368    0.670780
     46          6           0       -2.109624   -6.494138    1.668088
     47          6           0        2.805709   -3.020883    0.080859
     48          6           0        4.155270   -2.486544   -0.370331
     49          6           0        5.086201   -3.105388   -1.182237
     50          6           0        4.826891   -4.347918   -1.948116
     51          6           0        6.490915   -2.433235   -1.300467
     52          6           0        6.908986   -1.952629   -2.727707
     53          6           0        8.429018   -1.744417   -2.921102
     54          6           0        8.951618   -0.281100   -2.633736
     55          6           0        8.978245    0.531511   -3.905142
     56          6           0       10.286313   -0.216342   -1.816181
     57          6           0       10.390275    1.022214   -0.869372
     58          6           0       11.790847    1.677709   -0.988759
     59          6           0       11.927183    3.058742   -0.367806
     60          6           0       12.487837    4.173436   -1.326803
     61          6           0       12.830380    2.951380    0.931708
     62          6           0       11.849631    2.654491    2.108697
     63          6           0       12.478278    1.591971    3.054811
     64          6           0       11.489411    0.761984    3.888479
     65          6           0       12.134830    0.282964    5.230170
     66          6           0       10.910758   -0.411424    3.095984
     67          1           0       -0.948271    2.248541   -0.107573
     68          1           0       -6.490902    5.207535    0.311824
     69          1           0       -9.576107   -0.447501    0.636495
     70          1           0       -1.272163   -2.593473    0.429130
     71          1           0       -0.113932   -0.160134   -0.703841
     72          1           0       -0.207182   -1.304442    1.913515
     73          1           0       -0.909130    0.240968    2.076784
     74          1           0        0.732827    0.231830    1.411922
     75          1           0       -1.084636   -1.655321   -2.476694
     76          1           0       -2.263814   -2.892130   -1.997552
     77          1           0        0.254289   -3.083166   -2.745815
     78          1           0       -0.701189   -4.440248   -2.127673
     79          1           0       -0.922824    5.777570   -1.028911
     80          1           0       -0.518817    4.203933   -1.290378
     81          1           0       -0.686983    4.849258    0.456815
     82          1           0       -2.002343    7.300947    0.207024
     83          1           0       -3.000799    8.632158   -0.451103
     84          1           0       -2.494109    7.210783   -1.477039
     85          1           0       -8.896908    4.339553   -0.343863
     86          1           0      -10.079471    2.014624    0.958991
     87          1           0       -9.243037    5.367535    1.552304
     88          1           0       -7.962476    4.457416    2.402783
     89          1           0       -9.656584    3.898911    2.358236
     90          1           0      -10.333963    3.285882   -1.311861
     91          1           0      -11.104121    1.751443   -0.644577
     92          1           0      -10.409532    0.696516   -2.446133
     93          1           0       -8.641818    1.214142   -2.370408
     94          1           0       -9.836039    2.302195   -3.016941
     95          1           0       -9.052450   -4.344606    0.576798
     96          1           0       -9.835439   -2.775607    0.761374
     97          1           0       -9.160635   -3.542947    2.173206
     98          1           0       -3.837478   -4.329266   -0.847801
     99          1           0       -1.992651   -7.479897    1.218198
    100          1           0       -2.690035   -6.537459    2.589494
    101          1           0       -1.158708   -6.049709    1.963320
    102          1           0        2.788736   -3.941440    0.663728
    103          1           0        2.398864   -2.248277    0.733900
    104          1           0        4.522666   -1.575290    0.101142
    105          1           0        3.853085   -4.775057   -1.705839
    106          1           0        5.653719   -5.021768   -1.726510
    107          1           0        4.910149   -4.138464   -3.014886
    108          1           0        7.124832   -3.277416   -1.030128
    109          1           0        6.636323   -1.554233   -0.671313
    110          1           0        6.378787   -1.006049   -2.826619
    111          1           0        6.494942   -2.575648   -3.520547
    112          1           0        8.563136   -2.021608   -3.967065
    113          1           0        9.055674   -2.464248   -2.394791
    114          1           0        8.199931    0.182605   -1.994461
    115          1           0        8.165389    0.151417   -4.522750
    116          1           0        9.874684    0.669228   -4.510129
    117          1           0        8.548668    1.527770   -3.795465
    118          1           0       11.165667   -0.252412   -2.459326
    119          1           0       10.260549   -1.080792   -1.152400
    120          1           0       10.194918    0.718905    0.159214
    121          1           0        9.631987    1.795521   -0.989728
    122          1           0       11.949069    1.746225   -2.064741
    123          1           0       12.527238    0.971173   -0.603977
    124          1           0       10.886765    3.314324   -0.167961
    125          1           0       11.649631    4.865374   -1.398404
    126          1           0       12.729694    3.751067   -2.301816
    127          1           0       13.445382    4.572363   -0.989682
    128          1           0       13.333594    3.851519    1.284627
    129          1           0       13.561031    2.154295    0.793624
    130          1           0       10.850862    2.313898    1.834567
    131          1           0       11.725552    3.550160    2.717554
    132          1           0       13.080633    2.151827    3.770199
    133          1           0       13.099588    0.872827    2.521873
    134          1           0       10.634050    1.369807    4.184769
    135          1           0       11.945277    0.899899    6.108698
    136          1           0       13.213079    0.306874    5.072977
    137          1           0       11.708696   -0.695786    5.448866
    138          1           0       11.508583   -0.601182    2.204446
    139          1           0        9.893938   -0.234684    2.744870
    140          1           0       10.850899   -1.344107    3.657810
 ---------------------------------------------------------------------

 SCF Done:  E(RZINDO/S) =  -474.017531815     A.U. after   20 cycles

 Excitation energies and oscillator strengths:

 Excited State   1:      Singlet-A      1.2387 eV 1000.95 nm  f=0.5905  <S**2>=0.000
     175 ->178        -0.18830
     176 ->177         0.66397
 This state for optimization and/or second-order correction.
 Total Energy, E(CIS/TDA) =  -473.972011891
 Copying the excited state density for this state as the 1-particle RhoCI density.

 Excited State   2:      Singlet-A      1.9102 eV  649.08 nm  f=0.0056  <S**2>=0.000
     175 ->177         0.50260
     176 ->178         0.47350

 Excited State   3:      Singlet-A      2.9074 eV  426.44 nm  f=0.2606  <S**2>=0.000
     175 ->177         0.21497
     176 ->178        -0.26252
     176 ->179         0.53382
     176 ->180         0.20908

 Excited State   4:      Singlet-A      2.9678 eV  417.76 nm  f=0.0034  <S**2>=0.000
     167 ->179         0.17572
     168 ->177         0.25508
     168 ->179        -0.45726
     168 ->180         0.24384
     168 ->186        -0.20548

 Excited State   5:      Singlet-A      2.9977 eV  413.60 nm  f=0.8625  <S**2>=0.000
     175 ->177        -0.38113
     176 ->178         0.41098
     176 ->179         0.37306

 The electronic state is 1-A.
 Alpha  occ. eigenvalues --   -1.82995  -1.80166  -1.79848  -1.73221  -1.72906
 Alpha  occ. eigenvalues --   -1.70059  -1.65091  -1.60325  -1.57505  -1.55087
 Alpha  occ. eigenvalues --   -1.54012  -1.52182  -1.48251  -1.47576  -1.47100
 Alpha  occ. eigenvalues --   -1.44489  -1.41690  -1.39055  -1.38698  -1.37972
 Alpha  occ. eigenvalues --   -1.35490  -1.33723  -1.32154  -1.31754  -1.28208
 Alpha  occ. eigenvalues --   -1.27730  -1.24793  -1.21854  -1.19957  -1.18079
 Alpha  occ. eigenvalues --   -1.16578  -1.15614  -1.15536  -1.14423  -1.14114
 Alpha  occ. eigenvalues --   -1.13218  -1.11458  -1.10814  -1.04806  -1.03487
 Alpha  occ. eigenvalues --   -1.03101  -1.01124  -0.99261  -0.97702  -0.97343
 Alpha  occ. eigenvalues --   -0.96655  -0.95032  -0.93823  -0.92749  -0.92508
 Alpha  occ. eigenvalues --   -0.89684  -0.89231  -0.88870  -0.88025  -0.85703
 Alpha  occ. eigenvalues --   -0.85057  -0.84443  -0.83367  -0.81157  -0.80411
 Alpha  occ. eigenvalues --   -0.79491  -0.78496  -0.78170  -0.76931  -0.76054
 Alpha  occ. eigenvalues --   -0.75847  -0.75022  -0.74431  -0.74267  -0.74055
 Alpha  occ. eigenvalues --   -0.73837  -0.73174  -0.72428  -0.71860  -0.70877
 Alpha  occ. eigenvalues --   -0.70574  -0.69549  -0.69439  -0.68518  -0.68033
 Alpha  occ. eigenvalues --   -0.67521  -0.67035  -0.66446  -0.66162  -0.65617
 Alpha  occ. eigenvalues --   -0.65579  -0.64349  -0.64208  -0.63507  -0.63294
 Alpha  occ. eigenvalues --   -0.62917  -0.62340  -0.61964  -0.61871  -0.61518
 Alpha  occ. eigenvalues --   -0.61396  -0.61152  -0.60971  -0.60587  -0.60162
 Alpha  occ. eigenvalues --   -0.59441  -0.59146  -0.58863  -0.58561  -0.58131
 Alpha  occ. eigenvalues --   -0.57884  -0.57322  -0.57297  -0.57198  -0.56531
 Alpha  occ. eigenvalues --   -0.56187  -0.56063  -0.55490  -0.55300  -0.54846
 Alpha  occ. eigenvalues --   -0.54330  -0.53782  -0.53331  -0.53206  -0.52626
 Alpha  occ. eigenvalues --   -0.52492  -0.52460  -0.52101  -0.51712  -0.51575
 Alpha  occ. eigenvalues --   -0.51488  -0.51308  -0.50986  -0.50489  -0.50193
 Alpha  occ. eigenvalues --   -0.49897  -0.49414  -0.49342  -0.48939  -0.48726
 Alpha  occ. eigenvalues --   -0.48555  -0.48169  -0.48070  -0.48024  -0.47684
 Alpha  occ. eigenvalues --   -0.47120  -0.46915  -0.46840  -0.46790  -0.46269
 Alpha  occ. eigenvalues --   -0.46107  -0.45821  -0.45687  -0.45540  -0.45280
 Alpha  occ. eigenvalues --   -0.44895  -0.44844  -0.44643  -0.44554  -0.44276
 Alpha  occ. eigenvalues --   -0.44041  -0.43265  -0.42821  -0.42750  -0.42435
 Alpha  occ. eigenvalues --   -0.42295  -0.41596  -0.40227  -0.39607  -0.38929
 Alpha  occ. eigenvalues --   -0.37372  -0.37245  -0.36272  -0.34991  -0.34641
 Alpha  occ. eigenvalues --   -0.33977  -0.32428  -0.32165  -0.32044  -0.26712
 Alpha  occ. eigenvalues --   -0.21361
 Alpha virt. eigenvalues --   -0.08153  -0.02346  -0.00939   0.00849   0.01511
 Alpha virt. eigenvalues --    0.02444   0.02781   0.02931   0.04026   0.04647
 Alpha virt. eigenvalues --    0.05547   0.06117   0.06947   0.07626   0.08443

 Mulliken charges:
               1
     1  Mg   0.423655
     2  C   -0.037348
     3  C   -0.063981
     4  C   -0.075269
     5  C   -0.079207
     6  N   -0.268132
     7  C    0.101683
     8  C    0.006890
     9  C   -0.000445
    10  C    0.141173
    11  C   -0.053271
    12  C   -0.013428
    13  C    0.006467
    14  C    0.477191
    15  O   -0.505132
    16  O   -0.283754
    17  N   -0.341936
    18  C    0.122401
    19  C    0.021761
    20  C   -0.033402
    21  C    0.151144
    22  C   -0.058447
    23  C    0.319598
    24  O   -0.514925
    25  C   -0.032771
    26  N   -0.285207
    27  C    0.158949
    28  C    0.003908
    29  C    0.012357
    30  C    0.107619
    31  C   -0.047334
    32  C   -0.028872
    33  C   -0.067956
    34  N   -0.313035
    35  C    0.087168
    36  C    0.019821
    37  C   -0.046933
    38  C    0.099006
    39  C   -0.035278
    40  C    0.335552
    41  O   -0.518409
    42  C    0.071402
    43  C    0.501699
    44  O   -0.544044
    45  O   -0.272992
    46  C    0.075752
    47  C    0.105437
    48  C   -0.113753
    49  C    0.004704
    50  C   -0.034427
    51  C   -0.025918
    52  C   -0.032435
    53  C   -0.035199
    54  C   -0.003397
    55  C   -0.058808
    56  C   -0.035350
    57  C   -0.041757
    58  C   -0.033476
    59  C   -0.018132
    60  C   -0.066794
    61  C   -0.037061
    62  C   -0.043398
    63  C   -0.036146
    64  C   -0.011302
    65  C   -0.063955
    66  C   -0.055745
    67  H    0.015075
    68  H    0.038093
    69  H    0.030736
    70  H    0.044653
    71  H    0.025510
    72  H    0.036234
    73  H    0.021294
    74  H    0.029737
    75  H    0.027715
    76  H    0.023246
    77  H    0.029198
    78  H    0.040367
    79  H    0.019388
    80  H    0.033253
    81  H    0.038383
    82  H    0.030161
    83  H    0.046738
    84  H    0.036145
    85  H    0.036363
    86  H    0.020179
    87  H    0.020367
    88  H    0.032639
    89  H    0.018669
    90  H    0.022888
    91  H    0.020954
    92  H    0.025597
    93  H    0.038294
    94  H    0.011309
    95  H    0.035098
    96  H    0.016593
    97  H    0.038469
    98  H    0.045592
    99  H    0.035597
   100  H    0.050721
   101  H    0.038485
   102  H    0.060958
   103  H    0.026118
   104  H    0.025766
   105  H    0.033072
   106  H    0.027242
   107  H    0.030543
   108  H    0.024915
   109  H    0.030643
   110  H    0.015235
   111  H    0.020766
   112  H    0.011862
   113  H    0.019671
   114  H    0.019037
   115  H    0.007941
   116  H    0.030495
   117  H    0.008265
   118  H    0.027570
   119  H    0.015135
   120  H    0.014534
   121  H    0.020207
   122  H    0.013006
   123  H    0.019584
   124  H    0.024775
   125  H    0.024878
   126  H    0.015753
   127  H    0.024888
   128  H    0.022476
   129  H    0.028537
   130  H    0.024968
   131  H    0.016487
   132  H    0.011919
   133  H    0.023009
   134  H    0.014770
   135  H    0.017348
   136  H    0.020927
   137  H    0.020459
   138  H    0.015343
   139  H    0.012906
   140  H    0.017473
 Sum of Mulliken charges =  -0.00000

 Dipole moment (field-independent basis, Debye):
    X=              6.7296    Y=              5.0386    Z=             -4.9442  Tot=              9.7530
 N-N= 4.325840278789D+03 E-N= 0.000000000000D+00  KE=-9.325779024458D+03
 Leave Link  601 at Fri Apr 29 14:37:36 2022, MaxMem=  6710886400 cpu:               3.0 elap:               0.2
 (Enter /sw/apps/gaussian-16.0/g16/l9999.exe)
 1\1\GINC-BP1-COMPUTE148\SP\RZINDO CIS\STO-3G\C55H74Mg1N4O6\OF15641\29-
 Apr-2022\0\\#p ZINDO=(nstates=5)\\step_301_chromophore_9 ZINDO\\0,1\Mg
 ,0,35.488,1.456,29.409\C,0,33.466,2.462,32.057\C,0,38.195,1.407,31.52\
 C,0,37.677,0.933,26.775\C,0,32.824,1.905,27.198\N,0,35.782,1.934,31.59
 9\C,0,34.82,2.212,32.501\C,0,35.413,2.165,33.903\C,0,36.98,2.24,33.626
 \C,0,37.017,1.808,32.151\C,0,37.627,3.673,33.827\C,0,34.909,0.913,34.7
 07\C,0,34.641,1.099,36.171\C,0,35.063,2.341,36.875\O,0,34.5,3.418,36.8

 Normal termination of Gaussian 16 at Fri Apr 29 14:37:36 2022.
