 Gaussian 16, Revision A.03,
 Gaussian 16:  ES64L-G16RevA.03 25-Dec-2016

 ------------------------------
 #p blyp/Def2SVP td=(nstates=5)
 ------------------------------

 --------------------------------------------------
 step_951_chromophore_17 TDDFT with blyp functional
 --------------------------------------------------
 Symbolic Z-matrix:
 Charge =  0 Multiplicity = 1

                         Standard orientation:
 ---------------------------------------------------------------------
 Center     Atomic      Atomic             Coordinates (Angstroms)
 Number     Number       Type             X           Y           Z
 ---------------------------------------------------------------------
      1         12           0        4.604163    1.392503   -0.506978
      2          6           0        4.098085   -2.103814   -0.417289
      3          6           0        2.387170    1.399137   -3.243956
      4          6           0        4.175333    4.596237   -0.004612
      5          6           0        6.172559    1.078349    2.603111
      6          7           0        3.312985   -0.276442   -1.571250
      7          6           0        3.256718   -1.510327   -1.388686
      8          6           0        2.374385   -2.297143   -2.440293
      9          6           0        2.049879   -1.157231   -3.479428
     10          6           0        2.619629    0.056476   -2.731558
     11          6           0        2.622403   -1.270344   -4.945140
     12          6           0        1.070679   -3.118396   -1.838424
     13          6           0        1.111540   -4.614282   -1.818032
     14          6           0        0.092788   -5.309709   -0.869342
     15          8           0        0.327427   -6.286632   -0.137115
     16          8           0       -1.038282   -4.581165   -0.850860
     17          7           0        3.561214    2.879102   -1.615505
     18          6           0        2.761170    2.633864   -2.725873
     19          6           0        2.310206    3.928121   -3.211546
     20          6           0        2.667134    4.895018   -2.215023
     21          6           0        3.505652    4.192381   -1.204292
     22          6           0        1.534906    4.110595   -4.492803
     23          6           0        2.110328    6.322498   -2.114631
     24          8           0        1.369715    6.689692   -3.022771
     25          6           0        2.322213    7.173123   -0.951818
     26          7           0        5.196881    2.678067    1.056523
     27          6           0        5.016707    3.989699    0.962957
     28          6           0        5.479264    4.710474    2.180479
     29          6           0        6.282480    3.604604    3.076434
     30          6           0        5.876832    2.343843    2.244246
     31          6           0        6.441639    5.879499    1.847341
     32          6           0        5.805827    3.389058    4.524168
     33          6           0        6.929613    3.515886    5.566774
     34          7           0        5.237564   -0.181893    0.750490
     35          6           0        5.896725   -0.114170    1.984136
     36          6           0        6.246074   -1.449175    2.398010
     37          6           0        5.528808   -2.288920    1.437290
     38          6           0        4.920651   -1.452574    0.529590
     39          6           0        7.017773   -1.766025    3.651266
     40          6           0        5.264655   -3.606821    1.072624
     41          8           0        5.660079   -4.650514    1.568056
     42          6           0        4.346097   -3.588499   -0.209024
     43          6           0        5.131194   -4.230807   -1.264533
     44          8           0        6.030001   -3.722683   -1.938462
     45          8           0        4.681183   -5.517205   -1.440959
     46          6           0        5.656007   -6.374867   -2.106457
     47          6           0       -2.068968   -5.047178    0.123089
     48          6           0       -3.294388   -4.072043    0.161672
     49          6           0       -4.431649   -4.237631    0.897705
     50          6           0       -4.704974   -5.470988    1.924727
     51          6           0       -5.563893   -3.234661    0.789305
     52          6           0       -5.563193   -2.314249    2.052103
     53          6           0       -5.212195   -0.871522    1.748131
     54          6           0       -6.230223    0.060780    2.416118
     55          6           0       -5.524182    1.408958    2.709151
     56          6           0       -7.538456    0.272157    1.615054
     57          6           0       -8.815733    0.045184    2.453290
     58          6           0      -10.140851   -0.013859    1.698282
     59          6           0      -11.295356    0.929358    2.368266
     60          6           0      -12.115937    0.240826    3.472474
     61          6           0      -12.209422    1.493457    1.270191
     62          6           0      -11.426029    2.211750    0.127404
     63          6           0      -11.602166    1.446754   -1.207650
     64          6           0      -11.495557    2.351148   -2.407761
     65          6           0      -12.806856    2.758227   -3.108320
     66          6           0      -10.476491    1.844246   -3.391879
     67          1           0        1.840910    1.401062   -4.189536
     68          1           0        3.941003    5.658346    0.097309
     69          1           0        6.778867    0.998659    3.508037
     70          1           0        3.056118   -2.852489   -3.084027
     71          1           0        0.979518   -1.042532   -3.650311
     72          1           0        3.287888   -0.409459   -5.002487
     73          1           0        1.830753   -1.212931   -5.692147
     74          1           0        3.196561   -2.187231   -5.081309
     75          1           0        0.213320   -2.794692   -2.429213
     76          1           0        0.849355   -2.669060   -0.870070
     77          1           0        2.129919   -4.929766   -1.593016
     78          1           0        0.788561   -4.889166   -2.822309
     79          1           0        0.482970    4.369713   -4.369488
     80          1           0        1.669062    3.297048   -5.205422
     81          1           0        2.159091    4.773107   -5.093812
     82          1           0        2.091750    6.621714   -0.040070
     83          1           0        1.646174    8.028687   -0.960451
     84          1           0        3.329591    7.552539   -1.128745
     85          1           0        4.585155    5.050649    2.702461
     86          1           0        7.360339    3.748829    3.011079
     87          1           0        6.717610    6.423070    2.750491
     88          1           0        6.111455    6.593457    1.091730
     89          1           0        7.334611    5.398244    1.450311
     90          1           0        5.398846    2.399047    4.734342
     91          1           0        5.125549    4.209015    4.749518
     92          1           0        6.663725    4.444654    6.071533
     93          1           0        7.876293    3.701549    5.061066
     94          1           0        6.960438    2.664412    6.247882
     95          1           0        7.487436   -0.932460    4.174957
     96          1           0        7.765024   -2.530940    3.439253
     97          1           0        6.275092   -2.234169    4.296785
     98          1           0        3.432625   -4.100899    0.092843
     99          1           0        6.046839   -6.044631   -3.069998
    100          1           0        5.074722   -7.281374   -2.270367
    101          1           0        6.413593   -6.466993   -1.328406
    102          1           0       -1.744763   -5.229278    1.146803
    103          1           0       -2.481121   -6.010585   -0.177243
    104          1           0       -3.162443   -3.188907   -0.462011
    105          1           0       -3.921235   -6.226363    1.983534
    106          1           0       -5.526950   -5.964869    1.407622
    107          1           0       -4.966654   -5.170079    2.939306
    108          1           0       -6.541594   -3.718404    0.796386
    109          1           0       -5.468049   -2.718299   -0.165936
    110          1           0       -4.742074   -2.641654    2.689667
    111          1           0       -6.482811   -2.445604    2.622690
    112          1           0       -5.132801   -0.644375    0.685429
    113          1           0       -4.264555   -0.769194    2.276012
    114          1           0       -6.448254   -0.316673    3.415035
    115          1           0       -5.374805    1.567579    3.776716
    116          1           0       -6.185539    2.232213    2.440285
    117          1           0       -4.621980    1.503859    2.105041
    118          1           0       -7.636644   -0.429669    0.786266
    119          1           0       -7.666568    1.286700    1.238802
    120          1           0       -8.884026    0.814855    3.222360
    121          1           0       -8.739796   -0.890432    3.007312
    122          1           0      -10.432362   -1.044985    1.896282
    123          1           0       -9.982677    0.069689    0.623493
    124          1           0      -10.862840    1.830789    2.802614
    125          1           0      -11.646962   -0.722243    3.669904
    126          1           0      -13.084273    0.025503    3.019990
    127          1           0      -12.234632    0.679531    4.463148
    128          1           0      -12.818926    2.227337    1.797759
    129          1           0      -12.937969    0.821222    0.816942
    130          1           0      -10.350097    2.187023    0.297964
    131          1           0      -11.785767    3.233178    0.248685
    132          1           0      -12.544433    0.908041   -1.309841
    133          1           0      -10.835475    0.672879   -1.245930
    134          1           0      -11.221290    3.350584   -2.069070
    135          1           0      -13.110866    3.761180   -2.810059
    136          1           0      -13.672081    2.114997   -2.951994
    137          1           0      -12.731402    2.677633   -4.192052
    138          1           0      -10.136971    2.786972   -3.821823
    139          1           0      -10.908907    1.171016   -4.131705
    140          1           0       -9.661237    1.401198   -2.820065
 ---------------------------------------------------------------------

 SCF Done:  E(RB-LYP) =  -3007.32993487     A.U. after   22 cycles

 Excitation energies and oscillator strengths:

 Excited State   1:      Singlet-A      1.8350 eV  675.68 nm  f=0.0015  <S**2>=0.000
     243 -> 247        0.10562
     244 -> 247        0.69614
 This state for optimization and/or second-order correction.
 Total Energy, E(TD-HF/TD-DFT) =  -3007.26250125
 Copying the excited state density for this state as the 1-particle RhoCI density.

 Excited State   2:      Singlet-A      1.8420 eV  673.09 nm  f=0.0157  <S**2>=0.000
     243 -> 247        0.60396
     244 -> 247       -0.12065
     245 -> 247        0.31604
     246 -> 247       -0.12072

 Excited State   3:      Singlet-A      1.8894 eV  656.22 nm  f=0.2826  <S**2>=0.000
     245 -> 247        0.12086
     245 -> 248       -0.22473
     246 -> 247        0.66191
     246 <- 247       -0.12977

 Excited State   4:      Singlet-A      2.0449 eV  606.31 nm  f=0.0640  <S**2>=0.000
     240 -> 247        0.10399
     243 -> 247       -0.33401
     245 -> 247        0.55583
     246 -> 248        0.24025

 Excited State   5:      Singlet-A      2.3140 eV  535.80 nm  f=0.0000  <S**2>=0.000
     241 -> 247        0.70639

 The electronic state is 1-A.
 Alpha  occ. eigenvalues --  -46.28245 -18.83279 -18.81309 -18.76435 -18.76158
 Alpha  occ. eigenvalues --  -18.74850 -18.74750 -14.03514 -14.03150 -14.01006
 Alpha  occ. eigenvalues --  -14.00344 -10.04214 -10.03221  -9.99416  -9.98501
 Alpha  occ. eigenvalues --   -9.98484  -9.96932  -9.96870  -9.96767  -9.96505
 Alpha  occ. eigenvalues --   -9.96296  -9.96167  -9.95541  -9.94987  -9.94665
 Alpha  occ. eigenvalues --   -9.94662  -9.94599  -9.94138  -9.94113  -9.93983
 Alpha  occ. eigenvalues --   -9.93904  -9.93816  -9.93531  -9.93491  -9.93235
 Alpha  occ. eigenvalues --   -9.93179  -9.93086  -9.93013  -9.92964  -9.92922
 Alpha  occ. eigenvalues --   -9.92892  -9.92755  -9.92703  -9.92679  -9.92476
 Alpha  occ. eigenvalues --   -9.92345  -9.92275  -9.92125  -9.92046  -9.91978
 Alpha  occ. eigenvalues --   -9.91936  -9.91706  -9.91321  -9.91298  -9.91136
 Alpha  occ. eigenvalues --   -9.91038  -9.90970  -9.90900  -9.90802  -9.90734
 Alpha  occ. eigenvalues --   -9.90603  -9.90588  -9.90511  -9.90504  -9.90470
 Alpha  occ. eigenvalues --   -9.90430  -2.92683  -1.73096  -1.72609  -1.72358
 Alpha  occ. eigenvalues --   -0.98180  -0.97094  -0.90978  -0.90765  -0.88866
 Alpha  occ. eigenvalues --   -0.88854  -0.88339  -0.86295  -0.85519  -0.84267
 Alpha  occ. eigenvalues --   -0.75614  -0.73601  -0.72914  -0.72834  -0.72493
 Alpha  occ. eigenvalues --   -0.71924  -0.71771  -0.71255  -0.70852  -0.70040
 Alpha  occ. eigenvalues --   -0.69440  -0.68892  -0.68187  -0.68067  -0.67345
 Alpha  occ. eigenvalues --   -0.66523  -0.66397  -0.65467  -0.65023  -0.64613
 Alpha  occ. eigenvalues --   -0.63906  -0.62411  -0.61915  -0.61526  -0.60560
 Alpha  occ. eigenvalues --   -0.60512  -0.60217  -0.59979  -0.59240  -0.59196
 Alpha  occ. eigenvalues --   -0.58084  -0.57798  -0.57020  -0.55391  -0.54590
 Alpha  occ. eigenvalues --   -0.53754  -0.53205  -0.52398  -0.52362  -0.51878
 Alpha  occ. eigenvalues --   -0.51485  -0.50926  -0.50517  -0.50460  -0.50328
 Alpha  occ. eigenvalues --   -0.49662  -0.49384  -0.48509  -0.48043  -0.46370
 Alpha  occ. eigenvalues --   -0.45944  -0.45751  -0.45416  -0.45206  -0.44808
 Alpha  occ. eigenvalues --   -0.44359  -0.43467  -0.43017  -0.42859  -0.42346
 Alpha  occ. eigenvalues --   -0.42149  -0.41778  -0.41617  -0.41561  -0.40908
 Alpha  occ. eigenvalues --   -0.40889  -0.40828  -0.40785  -0.40549  -0.40195
 Alpha  occ. eigenvalues --   -0.39974  -0.39894  -0.39715  -0.39450  -0.39223
 Alpha  occ. eigenvalues --   -0.39092  -0.38871  -0.38823  -0.38695  -0.38493
 Alpha  occ. eigenvalues --   -0.38372  -0.38169  -0.37867  -0.37382  -0.37144
 Alpha  occ. eigenvalues --   -0.36987  -0.36701  -0.36415  -0.36386  -0.36369
 Alpha  occ. eigenvalues --   -0.36177  -0.35937  -0.35662  -0.35597  -0.35533
 Alpha  occ. eigenvalues --   -0.35197  -0.35051  -0.34828  -0.34602  -0.34576
 Alpha  occ. eigenvalues --   -0.34559  -0.34267  -0.34182  -0.34119  -0.33737
 Alpha  occ. eigenvalues --   -0.33622  -0.33582  -0.33508  -0.33359  -0.33057
 Alpha  occ. eigenvalues --   -0.32752  -0.32560  -0.32427  -0.32109  -0.32010
 Alpha  occ. eigenvalues --   -0.31853  -0.31635  -0.31374  -0.31232  -0.31071
 Alpha  occ. eigenvalues --   -0.31043  -0.30901  -0.30833  -0.30705  -0.30405
 Alpha  occ. eigenvalues --   -0.30309  -0.30070  -0.30050  -0.29993  -0.29840
 Alpha  occ. eigenvalues --   -0.29600  -0.29425  -0.29291  -0.29196  -0.29029
 Alpha  occ. eigenvalues --   -0.28776  -0.28708  -0.28640  -0.28451  -0.28003
 Alpha  occ. eigenvalues --   -0.27732  -0.27352  -0.26901  -0.26677  -0.26594
 Alpha  occ. eigenvalues --   -0.25920  -0.25800  -0.25603  -0.25573  -0.25286
 Alpha  occ. eigenvalues --   -0.25203  -0.24337  -0.24312  -0.24242  -0.23888
 Alpha  occ. eigenvalues --   -0.23542  -0.21816  -0.21456  -0.21202  -0.20050
 Alpha  occ. eigenvalues --   -0.19931  -0.19782  -0.18182  -0.18097  -0.17105
 Alpha  occ. eigenvalues --   -0.16095
 Alpha virt. eigenvalues --   -0.11428  -0.07002  -0.05942  -0.04370  -0.03200
 Alpha virt. eigenvalues --   -0.02633  -0.02258  -0.01537  -0.01318  -0.00098
 Alpha virt. eigenvalues --    0.01732   0.01872   0.02292   0.02337   0.02997

 Mulliken charges:
               1
     1  Mg   0.692410
     2  C   -0.022984
     3  C   -0.054966
     4  C   -0.029890
     5  C   -0.066363
     6  N   -0.097941
     7  C   -0.137769
     8  C    0.072634
     9  C   -0.087006
    10  C   -0.017551
    11  C    0.124930
    12  C    0.125594
    13  C    0.125448
    14  C    0.080187
    15  O   -0.200889
    16  O   -0.256498
    17  N   -0.316361
    18  C    0.166778
    19  C   -0.155092
    20  C    0.038513
    21  C    0.060358
    22  C    0.212506
    23  C   -0.124583
    24  O   -0.172119
    25  C    0.190141
    26  N   -0.243682
    27  C    0.065688
    28  C    0.037281
    29  C    0.037672
    30  C   -0.014561
    31  C    0.107021
    32  C    0.085063
    33  C    0.052087
    34  N   -0.251150
    35  C    0.138675
    36  C   -0.159177
    37  C    0.152967
    38  C    0.091821
    39  C    0.175808
    40  C   -0.168206
    41  O   -0.137735
    42  C    0.083533
    43  C    0.135666
    44  O   -0.198405
    45  O   -0.270790
    46  C    0.222053
    47  C    0.288246
    48  C   -0.109878
    49  C   -0.142441
    50  C    0.098578
    51  C    0.144889
    52  C    0.054278
    53  C    0.128527
    54  C   -0.084518
    55  C    0.113059
    56  C    0.122227
    57  C    0.010288
    58  C    0.116872
    59  C   -0.078407
    60  C    0.128158
    61  C    0.086289
    62  C    0.060198
    63  C    0.127532
    64  C   -0.107515
    65  C    0.094984
    66  C    0.121742
    67  H   -0.061154
    68  H   -0.096428
    69  H   -0.078126
    70  H   -0.021819
    71  H   -0.022114
    72  H   -0.002952
    73  H   -0.001652
    74  H   -0.001312
    75  H   -0.026897
    76  H   -0.021281
    77  H    0.019035
    78  H   -0.002698
    79  H    0.028100
    80  H   -0.042259
    81  H   -0.008690
    82  H    0.022462
    83  H   -0.015380
    84  H    0.018845
    85  H   -0.014828
    86  H   -0.011850
    87  H   -0.008596
    88  H   -0.002840
    89  H   -0.014554
    90  H   -0.000959
    91  H   -0.022137
    92  H   -0.012333
    93  H   -0.014730
    94  H    0.003292
    95  H   -0.009967
    96  H    0.009245
    97  H    0.011161
    98  H    0.004875
    99  H    0.018905
   100  H    0.011018
   101  H    0.023237
   102  H    0.018462
   103  H    0.007640
   104  H   -0.030058
   105  H   -0.009397
   106  H    0.003016
   107  H    0.015564
   108  H   -0.036576
   109  H   -0.022997
   110  H   -0.022078
   111  H   -0.020883
   112  H   -0.023194
   113  H   -0.036794
   114  H   -0.037748
   115  H   -0.018904
   116  H   -0.038368
   117  H   -0.012443
   118  H   -0.035372
   119  H   -0.021621
   120  H   -0.037155
   121  H   -0.036651
   122  H   -0.042189
   123  H   -0.028762
   124  H   -0.031827
   125  H   -0.032695
   126  H   -0.020559
   127  H   -0.008746
   128  H   -0.046401
   129  H   -0.034187
   130  H   -0.020336
   131  H   -0.026427
   132  H   -0.038082
   133  H   -0.039422
   134  H   -0.035451
   135  H   -0.012353
   136  H   -0.030668
   137  H   -0.029969
   138  H   -0.019552
   139  H   -0.005397
   140  H   -0.020268
 Sum of Mulliken charges =  -0.00000

 Dipole moment (field-independent basis, Debye):
    X=             -1.4132    Y=              3.2428    Z=              1.4427  Tot=              3.8203
 Quadrupole moment (field-independent basis, Debye-Ang):
   XX=           -391.1883   YY=           -431.4939   ZZ=           -389.3785
   XY=             39.6796   XZ=              2.4958   YZ=             33.6741

 Normal termination of Gaussian 16 at Sat Apr 30 23:55:45 2022.
