 Gaussian 16, Revision A.03,
 Gaussian 16:  ES64L-G16RevA.03 25-Dec-2016

 -----------------------------------
 #p cam-b3lyp/Def2SVP td=(nstates=5)
 -----------------------------------

 -------------------------------------------------------
 step_951_chromophore_17 TDDFT with cam-b3lyp functional
 -------------------------------------------------------
 Symbolic Z-matrix:
 Charge =  0 Multiplicity = 1

                         Standard orientation:
 ---------------------------------------------------------------------
 Center     Atomic      Atomic             Coordinates (Angstroms)
 Number     Number       Type             X           Y           Z
 ---------------------------------------------------------------------
      1         12           0        4.604163    1.392503   -0.506978
      2          6           0        4.098085   -2.103814   -0.417289
      3          6           0        2.387170    1.399137   -3.243956
      4          6           0        4.175333    4.596237   -0.004612
      5          6           0        6.172559    1.078349    2.603111
      6          7           0        3.312985   -0.276442   -1.571250
      7          6           0        3.256718   -1.510327   -1.388686
      8          6           0        2.374385   -2.297143   -2.440293
      9          6           0        2.049879   -1.157231   -3.479428
     10          6           0        2.619629    0.056476   -2.731558
     11          6           0        2.622403   -1.270344   -4.945140
     12          6           0        1.070679   -3.118396   -1.838424
     13          6           0        1.111540   -4.614282   -1.818032
     14          6           0        0.092788   -5.309709   -0.869342
     15          8           0        0.327427   -6.286632   -0.137115
     16          8           0       -1.038282   -4.581165   -0.850860
     17          7           0        3.561214    2.879102   -1.615505
     18          6           0        2.761170    2.633864   -2.725873
     19          6           0        2.310206    3.928121   -3.211546
     20          6           0        2.667134    4.895018   -2.215023
     21          6           0        3.505652    4.192381   -1.204292
     22          6           0        1.534906    4.110595   -4.492803
     23          6           0        2.110328    6.322498   -2.114631
     24          8           0        1.369715    6.689692   -3.022771
     25          6           0        2.322213    7.173123   -0.951818
     26          7           0        5.196881    2.678067    1.056523
     27          6           0        5.016707    3.989699    0.962957
     28          6           0        5.479264    4.710474    2.180479
     29          6           0        6.282480    3.604604    3.076434
     30          6           0        5.876832    2.343843    2.244246
     31          6           0        6.441639    5.879499    1.847341
     32          6           0        5.805827    3.389058    4.524168
     33          6           0        6.929613    3.515886    5.566774
     34          7           0        5.237564   -0.181893    0.750490
     35          6           0        5.896725   -0.114170    1.984136
     36          6           0        6.246074   -1.449175    2.398010
     37          6           0        5.528808   -2.288920    1.437290
     38          6           0        4.920651   -1.452574    0.529590
     39          6           0        7.017773   -1.766025    3.651266
     40          6           0        5.264655   -3.606821    1.072624
     41          8           0        5.660079   -4.650514    1.568056
     42          6           0        4.346097   -3.588499   -0.209024
     43          6           0        5.131194   -4.230807   -1.264533
     44          8           0        6.030001   -3.722683   -1.938462
     45          8           0        4.681183   -5.517205   -1.440959
     46          6           0        5.656007   -6.374867   -2.106457
     47          6           0       -2.068968   -5.047178    0.123089
     48          6           0       -3.294388   -4.072043    0.161672
     49          6           0       -4.431649   -4.237631    0.897705
     50          6           0       -4.704974   -5.470988    1.924727
     51          6           0       -5.563893   -3.234661    0.789305
     52          6           0       -5.563193   -2.314249    2.052103
     53          6           0       -5.212195   -0.871522    1.748131
     54          6           0       -6.230223    0.060780    2.416118
     55          6           0       -5.524182    1.408958    2.709151
     56          6           0       -7.538456    0.272157    1.615054
     57          6           0       -8.815733    0.045184    2.453290
     58          6           0      -10.140851   -0.013859    1.698282
     59          6           0      -11.295356    0.929358    2.368266
     60          6           0      -12.115937    0.240826    3.472474
     61          6           0      -12.209422    1.493457    1.270191
     62          6           0      -11.426029    2.211750    0.127404
     63          6           0      -11.602166    1.446754   -1.207650
     64          6           0      -11.495557    2.351148   -2.407761
     65          6           0      -12.806856    2.758227   -3.108320
     66          6           0      -10.476491    1.844246   -3.391879
     67          1           0        1.840910    1.401062   -4.189536
     68          1           0        3.941003    5.658346    0.097309
     69          1           0        6.778867    0.998659    3.508037
     70          1           0        3.056118   -2.852489   -3.084027
     71          1           0        0.979518   -1.042532   -3.650311
     72          1           0        3.287888   -0.409459   -5.002487
     73          1           0        1.830753   -1.212931   -5.692147
     74          1           0        3.196561   -2.187231   -5.081309
     75          1           0        0.213320   -2.794692   -2.429213
     76          1           0        0.849355   -2.669060   -0.870070
     77          1           0        2.129919   -4.929766   -1.593016
     78          1           0        0.788561   -4.889166   -2.822309
     79          1           0        0.482970    4.369713   -4.369488
     80          1           0        1.669062    3.297048   -5.205422
     81          1           0        2.159091    4.773107   -5.093812
     82          1           0        2.091750    6.621714   -0.040070
     83          1           0        1.646174    8.028687   -0.960451
     84          1           0        3.329591    7.552539   -1.128745
     85          1           0        4.585155    5.050649    2.702461
     86          1           0        7.360339    3.748829    3.011079
     87          1           0        6.717610    6.423070    2.750491
     88          1           0        6.111455    6.593457    1.091730
     89          1           0        7.334611    5.398244    1.450311
     90          1           0        5.398846    2.399047    4.734342
     91          1           0        5.125549    4.209015    4.749518
     92          1           0        6.663725    4.444654    6.071533
     93          1           0        7.876293    3.701549    5.061066
     94          1           0        6.960438    2.664412    6.247882
     95          1           0        7.487436   -0.932460    4.174957
     96          1           0        7.765024   -2.530940    3.439253
     97          1           0        6.275092   -2.234169    4.296785
     98          1           0        3.432625   -4.100899    0.092843
     99          1           0        6.046839   -6.044631   -3.069998
    100          1           0        5.074722   -7.281374   -2.270367
    101          1           0        6.413593   -6.466993   -1.328406
    102          1           0       -1.744763   -5.229278    1.146803
    103          1           0       -2.481121   -6.010585   -0.177243
    104          1           0       -3.162443   -3.188907   -0.462011
    105          1           0       -3.921235   -6.226363    1.983534
    106          1           0       -5.526950   -5.964869    1.407622
    107          1           0       -4.966654   -5.170079    2.939306
    108          1           0       -6.541594   -3.718404    0.796386
    109          1           0       -5.468049   -2.718299   -0.165936
    110          1           0       -4.742074   -2.641654    2.689667
    111          1           0       -6.482811   -2.445604    2.622690
    112          1           0       -5.132801   -0.644375    0.685429
    113          1           0       -4.264555   -0.769194    2.276012
    114          1           0       -6.448254   -0.316673    3.415035
    115          1           0       -5.374805    1.567579    3.776716
    116          1           0       -6.185539    2.232213    2.440285
    117          1           0       -4.621980    1.503859    2.105041
    118          1           0       -7.636644   -0.429669    0.786266
    119          1           0       -7.666568    1.286700    1.238802
    120          1           0       -8.884026    0.814855    3.222360
    121          1           0       -8.739796   -0.890432    3.007312
    122          1           0      -10.432362   -1.044985    1.896282
    123          1           0       -9.982677    0.069689    0.623493
    124          1           0      -10.862840    1.830789    2.802614
    125          1           0      -11.646962   -0.722243    3.669904
    126          1           0      -13.084273    0.025503    3.019990
    127          1           0      -12.234632    0.679531    4.463148
    128          1           0      -12.818926    2.227337    1.797759
    129          1           0      -12.937969    0.821222    0.816942
    130          1           0      -10.350097    2.187023    0.297964
    131          1           0      -11.785767    3.233178    0.248685
    132          1           0      -12.544433    0.908041   -1.309841
    133          1           0      -10.835475    0.672879   -1.245930
    134          1           0      -11.221290    3.350584   -2.069070
    135          1           0      -13.110866    3.761180   -2.810059
    136          1           0      -13.672081    2.114997   -2.951994
    137          1           0      -12.731402    2.677633   -4.192052
    138          1           0      -10.136971    2.786972   -3.821823
    139          1           0      -10.908907    1.171016   -4.131705
    140          1           0       -9.661237    1.401198   -2.820065
 ---------------------------------------------------------------------

 SCF Done:  E(RCAM-B3LYP) =  -3007.12039582     A.U. after   17 cycles

 Excitation energies and oscillator strengths:

 Excited State   1:      Singlet-A      1.8119 eV  684.26 nm  f=0.3732  <S**2>=0.000
     245 -> 248       -0.20425
     246 -> 247        0.67729
     245 <- 248       -0.10860
 This state for optimization and/or second-order correction.
 Total Energy, E(TD-HF/TD-DFT) =  -3007.05380839
 Copying the excited state density for this state as the 1-particle RhoCI density.

 Excited State   2:      Singlet-A      2.2381 eV  553.96 nm  f=0.1084  <S**2>=0.000
     245 -> 247        0.63831
     246 -> 248        0.28503

 Excited State   3:      Singlet-A      3.2810 eV  377.89 nm  f=0.0018  <S**2>=0.000
     241 -> 247        0.16702
     242 -> 247       -0.24488
     243 -> 247        0.11507
     244 -> 247        0.60577

 Excited State   4:      Singlet-A      3.3877 eV  365.98 nm  f=0.0229  <S**2>=0.000
     241 -> 247        0.35273
     242 -> 247        0.47041
     243 -> 247       -0.22363
     246 -> 248       -0.23879

 Excited State   5:      Singlet-A      3.4219 eV  362.33 nm  f=0.0081  <S**2>=0.000
     239 -> 247        0.11131
     241 -> 247        0.45072
     241 -> 249       -0.21960
     241 -> 251       -0.16311
     242 -> 247       -0.27496
     243 -> 247        0.12895
     244 -> 247       -0.30474

 The electronic state is 1-A.
 Alpha  occ. eigenvalues --  -46.89890 -19.26187 -19.24250 -19.19349 -19.19303
 Alpha  occ. eigenvalues --  -19.18217 -19.17624 -14.42559 -14.41915 -14.39563
 Alpha  occ. eigenvalues --  -14.38583 -10.39497 -10.38730 -10.34699 -10.33572
 Alpha  occ. eigenvalues --  -10.32625 -10.31685 -10.31558 -10.31352 -10.30707
 Alpha  occ. eigenvalues --  -10.30615 -10.30359 -10.30130 -10.28896 -10.28891
 Alpha  occ. eigenvalues --  -10.28875 -10.28618 -10.28600 -10.28268 -10.28263
 Alpha  occ. eigenvalues --  -10.28077 -10.28023 -10.27952 -10.27598 -10.27556
 Alpha  occ. eigenvalues --  -10.27512 -10.27293 -10.27211 -10.26943 -10.26862
 Alpha  occ. eigenvalues --  -10.26659 -10.26554 -10.26553 -10.26442 -10.26392
 Alpha  occ. eigenvalues --  -10.26142 -10.26062 -10.25950 -10.25856 -10.25842
 Alpha  occ. eigenvalues --  -10.25547 -10.25395 -10.24966 -10.24959 -10.24872
 Alpha  occ. eigenvalues --  -10.24642 -10.24637 -10.24536 -10.24398 -10.24391
 Alpha  occ. eigenvalues --  -10.24347 -10.24244 -10.24189 -10.24099 -10.24026
 Alpha  occ. eigenvalues --  -10.23995  -3.18220  -1.93113  -1.92706  -1.92479
 Alpha  occ. eigenvalues --   -1.16581  -1.15647  -1.09530  -1.08927  -1.06832
 Alpha  occ. eigenvalues --   -1.06676  -1.06233  -1.03915  -1.02951  -1.01984
 Alpha  occ. eigenvalues --   -0.92682  -0.90451  -0.89723  -0.89529  -0.89262
 Alpha  occ. eigenvalues --   -0.88649  -0.88411  -0.87938  -0.87478  -0.86540
 Alpha  occ. eigenvalues --   -0.85820  -0.85610  -0.84469  -0.84243  -0.83727
 Alpha  occ. eigenvalues --   -0.82662  -0.82441  -0.81401  -0.80924  -0.80457
 Alpha  occ. eigenvalues --   -0.79602  -0.77998  -0.77454  -0.77237  -0.75945
 Alpha  occ. eigenvalues --   -0.75910  -0.75586  -0.75255  -0.74507  -0.74478
 Alpha  occ. eigenvalues --   -0.73093  -0.72729  -0.72014  -0.70251  -0.69126
 Alpha  occ. eigenvalues --   -0.68242  -0.67736  -0.66954  -0.66744  -0.66001
 Alpha  occ. eigenvalues --   -0.65647  -0.65107  -0.64649  -0.64459  -0.64197
 Alpha  occ. eigenvalues --   -0.63667  -0.63374  -0.62377  -0.61818  -0.59887
 Alpha  occ. eigenvalues --   -0.59575  -0.59321  -0.58875  -0.58572  -0.58419
 Alpha  occ. eigenvalues --   -0.57799  -0.56739  -0.56307  -0.56144  -0.55514
 Alpha  occ. eigenvalues --   -0.55266  -0.54686  -0.54647  -0.54321  -0.53708
 Alpha  occ. eigenvalues --   -0.53596  -0.53550  -0.53429  -0.53297  -0.53145
 Alpha  occ. eigenvalues --   -0.52637  -0.52535  -0.52474  -0.52354  -0.51785
 Alpha  occ. eigenvalues --   -0.51618  -0.51552  -0.51346  -0.51276  -0.51122
 Alpha  occ. eigenvalues --   -0.50954  -0.50726  -0.50250  -0.49530  -0.49466
 Alpha  occ. eigenvalues --   -0.49347  -0.49119  -0.48819  -0.48497  -0.48476
 Alpha  occ. eigenvalues --   -0.48340  -0.48224  -0.48131  -0.47696  -0.47588
 Alpha  occ. eigenvalues --   -0.47369  -0.47200  -0.46602  -0.46550  -0.46348
 Alpha  occ. eigenvalues --   -0.46338  -0.46170  -0.46060  -0.45858  -0.45811
 Alpha  occ. eigenvalues --   -0.45564  -0.45333  -0.45283  -0.45162  -0.44686
 Alpha  occ. eigenvalues --   -0.44620  -0.44107  -0.43999  -0.43827  -0.43745
 Alpha  occ. eigenvalues --   -0.43413  -0.43364  -0.42905  -0.42834  -0.42743
 Alpha  occ. eigenvalues --   -0.42552  -0.42384  -0.42288  -0.42114  -0.42028
 Alpha  occ. eigenvalues --   -0.41849  -0.41670  -0.41447  -0.41330  -0.41203
 Alpha  occ. eigenvalues --   -0.41049  -0.40681  -0.40509  -0.40387  -0.40131
 Alpha  occ. eigenvalues --   -0.39968  -0.39752  -0.39669  -0.39396  -0.38986
 Alpha  occ. eigenvalues --   -0.38645  -0.38205  -0.37751  -0.37445  -0.37372
 Alpha  occ. eigenvalues --   -0.37069  -0.36901  -0.36655  -0.36386  -0.35930
 Alpha  occ. eigenvalues --   -0.35866  -0.35819  -0.34833  -0.34451  -0.34319
 Alpha  occ. eigenvalues --   -0.33987  -0.33890  -0.33332  -0.30869  -0.30625
 Alpha  occ. eigenvalues --   -0.29921  -0.29601  -0.29588  -0.28796  -0.23835
 Alpha  occ. eigenvalues --   -0.21501
 Alpha virt. eigenvalues --   -0.08509  -0.02014   0.00551   0.01830   0.02691
 Alpha virt. eigenvalues --    0.05241   0.05262   0.05713   0.06182   0.06720
 Alpha virt. eigenvalues --    0.08106   0.08488   0.08654   0.09244   0.09253

 Mulliken charges:
               1
     1  Mg   0.821725
     2  C   -0.041045
     3  C   -0.066498
     4  C   -0.057162
     5  C   -0.079478
     6  N   -0.164740
     7  C   -0.092884
     8  C    0.019111
     9  C   -0.125781
    10  C   -0.005084
    11  C    0.064512
    12  C    0.075037
    13  C    0.056010
    14  C    0.162688
    15  O   -0.243540
    16  O   -0.321475
    17  N   -0.405193
    18  C    0.172788
    19  C   -0.154257
    20  C   -0.030269
    21  C    0.096693
    22  C    0.152994
    23  C   -0.040553
    24  O   -0.211470
    25  C    0.093616
    26  N   -0.318756
    27  C    0.098112
    28  C   -0.030597
    29  C   -0.010271
    30  C    0.008044
    31  C    0.054048
    32  C    0.025252
    33  C   -0.006939
    34  N   -0.340113
    35  C    0.137843
    36  C   -0.150531
    37  C    0.067865
    38  C    0.128849
    39  C    0.125337
    40  C   -0.069166
    41  O   -0.179799
    42  C    0.000719
    43  C    0.223440
    44  O   -0.234463
    45  O   -0.332879
    46  C    0.179482
    47  C    0.259373
    48  C   -0.127541
    49  C   -0.170538
    50  C    0.045134
    51  C    0.084614
    52  C    0.001743
    53  C    0.071942
    54  C   -0.144202
    55  C    0.055579
    56  C    0.069502
    57  C   -0.029157
    58  C    0.056395
    59  C   -0.127894
    60  C    0.067047
    61  C    0.035442
    62  C    0.002357
    63  C    0.071043
    64  C   -0.165101
    65  C    0.036401
    66  C    0.060460
    67  H   -0.023776
    68  H   -0.062917
    69  H   -0.044025
    70  H    0.011776
    71  H    0.013025
    72  H    0.022748
    73  H    0.022748
    74  H    0.024121
    75  H    0.004031
    76  H    0.010860
    77  H    0.046653
    78  H    0.028793
    79  H    0.056620
    80  H   -0.012920
    81  H    0.021006
    82  H    0.050511
    83  H    0.023318
    84  H    0.046327
    85  H    0.019592
    86  H    0.021286
    87  H    0.016873
    88  H    0.021246
    89  H    0.009482
    90  H    0.029871
    91  H    0.006014
    92  H    0.010829
    93  H    0.007657
    94  H    0.026274
    95  H    0.013527
    96  H    0.034766
    97  H    0.035685
    98  H    0.047660
    99  H    0.043041
   100  H    0.034870
   101  H    0.046780
   102  H    0.045666
   103  H    0.034105
   104  H    0.004131
   105  H    0.014444
   106  H    0.026156
   107  H    0.038214
   108  H   -0.004873
   109  H    0.006596
   110  H    0.006620
   111  H    0.005224
   112  H    0.003781
   113  H   -0.004648
   114  H   -0.004487
   115  H    0.005769
   116  H   -0.013144
   117  H    0.011772
   118  H   -0.009386
   119  H    0.004220
   120  H   -0.010704
   121  H   -0.011331
   122  H   -0.011565
   123  H   -0.004551
   124  H   -0.001391
   125  H   -0.008315
   126  H    0.003809
   127  H    0.016398
   128  H   -0.015303
   129  H   -0.006500
   130  H    0.005137
   131  H    0.002986
   132  H   -0.010113
   133  H   -0.010884
   134  H   -0.002997
   135  H    0.011155
   136  H   -0.005995
   137  H   -0.004155
   138  H    0.005383
   139  H    0.017563
   140  H    0.003042
 Sum of Mulliken charges =  -0.00000

 Dipole moment (field-independent basis, Debye):
    X=             -1.7772    Y=              3.9059    Z=              0.9337  Tot=              4.3916
 Quadrupole moment (field-independent basis, Debye-Ang):
   XX=           -392.3671   YY=           -428.2047   ZZ=           -386.7765
   XY=             42.5773   XZ=              1.1538   YZ=             34.7928

 Normal termination of Gaussian 16 at Sat Apr 30 23:00:09 2022.
