 Gaussian 16, Revision A.03,
 Gaussian 16:  ES64L-G16RevA.03 25-Dec-2016

 ---------------------------------
 #p PBE1PBE/Def2SVP td=(nstates=5)
 ---------------------------------

 -----------------------------------------------------
 step_951_chromophore_17 TDDFT with PBE1PBE functional
 -----------------------------------------------------
 Symbolic Z-matrix:
 Charge =  0 Multiplicity = 1

                         Standard orientation:
 ---------------------------------------------------------------------
 Center     Atomic      Atomic             Coordinates (Angstroms)
 Number     Number       Type             X           Y           Z
 ---------------------------------------------------------------------
      1         12           0        4.604163    1.392503   -0.506978
      2          6           0        4.098085   -2.103814   -0.417289
      3          6           0        2.387170    1.399137   -3.243956
      4          6           0        4.175333    4.596237   -0.004612
      5          6           0        6.172559    1.078349    2.603111
      6          7           0        3.312985   -0.276442   -1.571250
      7          6           0        3.256718   -1.510327   -1.388686
      8          6           0        2.374385   -2.297143   -2.440293
      9          6           0        2.049879   -1.157231   -3.479428
     10          6           0        2.619629    0.056476   -2.731558
     11          6           0        2.622403   -1.270344   -4.945140
     12          6           0        1.070679   -3.118396   -1.838424
     13          6           0        1.111540   -4.614282   -1.818032
     14          6           0        0.092788   -5.309709   -0.869342
     15          8           0        0.327427   -6.286632   -0.137115
     16          8           0       -1.038282   -4.581165   -0.850860
     17          7           0        3.561214    2.879102   -1.615505
     18          6           0        2.761170    2.633864   -2.725873
     19          6           0        2.310206    3.928121   -3.211546
     20          6           0        2.667134    4.895018   -2.215023
     21          6           0        3.505652    4.192381   -1.204292
     22          6           0        1.534906    4.110595   -4.492803
     23          6           0        2.110328    6.322498   -2.114631
     24          8           0        1.369715    6.689692   -3.022771
     25          6           0        2.322213    7.173123   -0.951818
     26          7           0        5.196881    2.678067    1.056523
     27          6           0        5.016707    3.989699    0.962957
     28          6           0        5.479264    4.710474    2.180479
     29          6           0        6.282480    3.604604    3.076434
     30          6           0        5.876832    2.343843    2.244246
     31          6           0        6.441639    5.879499    1.847341
     32          6           0        5.805827    3.389058    4.524168
     33          6           0        6.929613    3.515886    5.566774
     34          7           0        5.237564   -0.181893    0.750490
     35          6           0        5.896725   -0.114170    1.984136
     36          6           0        6.246074   -1.449175    2.398010
     37          6           0        5.528808   -2.288920    1.437290
     38          6           0        4.920651   -1.452574    0.529590
     39          6           0        7.017773   -1.766025    3.651266
     40          6           0        5.264655   -3.606821    1.072624
     41          8           0        5.660079   -4.650514    1.568056
     42          6           0        4.346097   -3.588499   -0.209024
     43          6           0        5.131194   -4.230807   -1.264533
     44          8           0        6.030001   -3.722683   -1.938462
     45          8           0        4.681183   -5.517205   -1.440959
     46          6           0        5.656007   -6.374867   -2.106457
     47          6           0       -2.068968   -5.047178    0.123089
     48          6           0       -3.294388   -4.072043    0.161672
     49          6           0       -4.431649   -4.237631    0.897705
     50          6           0       -4.704974   -5.470988    1.924727
     51          6           0       -5.563893   -3.234661    0.789305
     52          6           0       -5.563193   -2.314249    2.052103
     53          6           0       -5.212195   -0.871522    1.748131
     54          6           0       -6.230223    0.060780    2.416118
     55          6           0       -5.524182    1.408958    2.709151
     56          6           0       -7.538456    0.272157    1.615054
     57          6           0       -8.815733    0.045184    2.453290
     58          6           0      -10.140851   -0.013859    1.698282
     59          6           0      -11.295356    0.929358    2.368266
     60          6           0      -12.115937    0.240826    3.472474
     61          6           0      -12.209422    1.493457    1.270191
     62          6           0      -11.426029    2.211750    0.127404
     63          6           0      -11.602166    1.446754   -1.207650
     64          6           0      -11.495557    2.351148   -2.407761
     65          6           0      -12.806856    2.758227   -3.108320
     66          6           0      -10.476491    1.844246   -3.391879
     67          1           0        1.840910    1.401062   -4.189536
     68          1           0        3.941003    5.658346    0.097309
     69          1           0        6.778867    0.998659    3.508037
     70          1           0        3.056118   -2.852489   -3.084027
     71          1           0        0.979518   -1.042532   -3.650311
     72          1           0        3.287888   -0.409459   -5.002487
     73          1           0        1.830753   -1.212931   -5.692147
     74          1           0        3.196561   -2.187231   -5.081309
     75          1           0        0.213320   -2.794692   -2.429213
     76          1           0        0.849355   -2.669060   -0.870070
     77          1           0        2.129919   -4.929766   -1.593016
     78          1           0        0.788561   -4.889166   -2.822309
     79          1           0        0.482970    4.369713   -4.369488
     80          1           0        1.669062    3.297048   -5.205422
     81          1           0        2.159091    4.773107   -5.093812
     82          1           0        2.091750    6.621714   -0.040070
     83          1           0        1.646174    8.028687   -0.960451
     84          1           0        3.329591    7.552539   -1.128745
     85          1           0        4.585155    5.050649    2.702461
     86          1           0        7.360339    3.748829    3.011079
     87          1           0        6.717610    6.423070    2.750491
     88          1           0        6.111455    6.593457    1.091730
     89          1           0        7.334611    5.398244    1.450311
     90          1           0        5.398846    2.399047    4.734342
     91          1           0        5.125549    4.209015    4.749518
     92          1           0        6.663725    4.444654    6.071533
     93          1           0        7.876293    3.701549    5.061066
     94          1           0        6.960438    2.664412    6.247882
     95          1           0        7.487436   -0.932460    4.174957
     96          1           0        7.765024   -2.530940    3.439253
     97          1           0        6.275092   -2.234169    4.296785
     98          1           0        3.432625   -4.100899    0.092843
     99          1           0        6.046839   -6.044631   -3.069998
    100          1           0        5.074722   -7.281374   -2.270367
    101          1           0        6.413593   -6.466993   -1.328406
    102          1           0       -1.744763   -5.229278    1.146803
    103          1           0       -2.481121   -6.010585   -0.177243
    104          1           0       -3.162443   -3.188907   -0.462011
    105          1           0       -3.921235   -6.226363    1.983534
    106          1           0       -5.526950   -5.964869    1.407622
    107          1           0       -4.966654   -5.170079    2.939306
    108          1           0       -6.541594   -3.718404    0.796386
    109          1           0       -5.468049   -2.718299   -0.165936
    110          1           0       -4.742074   -2.641654    2.689667
    111          1           0       -6.482811   -2.445604    2.622690
    112          1           0       -5.132801   -0.644375    0.685429
    113          1           0       -4.264555   -0.769194    2.276012
    114          1           0       -6.448254   -0.316673    3.415035
    115          1           0       -5.374805    1.567579    3.776716
    116          1           0       -6.185539    2.232213    2.440285
    117          1           0       -4.621980    1.503859    2.105041
    118          1           0       -7.636644   -0.429669    0.786266
    119          1           0       -7.666568    1.286700    1.238802
    120          1           0       -8.884026    0.814855    3.222360
    121          1           0       -8.739796   -0.890432    3.007312
    122          1           0      -10.432362   -1.044985    1.896282
    123          1           0       -9.982677    0.069689    0.623493
    124          1           0      -10.862840    1.830789    2.802614
    125          1           0      -11.646962   -0.722243    3.669904
    126          1           0      -13.084273    0.025503    3.019990
    127          1           0      -12.234632    0.679531    4.463148
    128          1           0      -12.818926    2.227337    1.797759
    129          1           0      -12.937969    0.821222    0.816942
    130          1           0      -10.350097    2.187023    0.297964
    131          1           0      -11.785767    3.233178    0.248685
    132          1           0      -12.544433    0.908041   -1.309841
    133          1           0      -10.835475    0.672879   -1.245930
    134          1           0      -11.221290    3.350584   -2.069070
    135          1           0      -13.110866    3.761180   -2.810059
    136          1           0      -13.672081    2.114997   -2.951994
    137          1           0      -12.731402    2.677633   -4.192052
    138          1           0      -10.136971    2.786972   -3.821823
    139          1           0      -10.908907    1.171016   -4.131705
    140          1           0       -9.661237    1.401198   -2.820065
 ---------------------------------------------------------------------

 SCF Done:  E(RPBE1PBE) =  -3005.30955921     A.U. after   15 cycles

 Excitation energies and oscillator strengths:

 Excited State   1:      Singlet-A      1.9504 eV  635.70 nm  f=0.3591  <S**2>=0.000
     245 -> 248       -0.20245
     246 -> 247        0.68155
 This state for optimization and/or second-order correction.
 Total Energy, E(TD-HF/TD-DFT) =  -3005.23788484
 Copying the excited state density for this state as the 1-particle RhoCI density.

 Excited State   2:      Singlet-A      2.2378 eV  554.03 nm  f=0.1033  <S**2>=0.000
     245 -> 247        0.64818
     246 -> 248        0.25881

 Excited State   3:      Singlet-A      2.8488 eV  435.22 nm  f=0.0007  <S**2>=0.000
     241 -> 247        0.10369
     242 -> 247        0.57205
     242 -> 249       -0.12325
     244 -> 247        0.35715

 Excited State   4:      Singlet-A      2.9765 eV  416.54 nm  f=0.0041  <S**2>=0.000
     241 -> 247       -0.27551
     242 -> 247       -0.28415
     244 -> 247        0.56885

 Excited State   5:      Singlet-A      3.0041 eV  412.72 nm  f=0.0012  <S**2>=0.000
     240 -> 247        0.58150
     240 -> 249        0.16085
     241 -> 247       -0.33073

 The electronic state is 1-A.
 Alpha  occ. eigenvalues --  -46.93269 -19.26877 -19.24893 -19.19689 -19.19514
 Alpha  occ. eigenvalues --  -19.18311 -19.18020 -14.41872 -14.41504 -14.39153
 Alpha  occ. eigenvalues --  -14.38322 -10.36575 -10.35711 -10.31720 -10.30820
 Alpha  occ. eigenvalues --  -10.30043 -10.29333 -10.29086 -10.28809 -10.28363
 Alpha  occ. eigenvalues --  -10.28270 -10.27918 -10.27614 -10.26795 -10.26738
 Alpha  occ. eigenvalues --  -10.26546 -10.26404 -10.26311 -10.26220 -10.26036
 Alpha  occ. eigenvalues --  -10.25806 -10.25778 -10.25441 -10.25292 -10.25182
 Alpha  occ. eigenvalues --  -10.25126 -10.24938 -10.24695 -10.24692 -10.24257
 Alpha  occ. eigenvalues --  -10.24118 -10.24103 -10.24098 -10.24003 -10.23766
 Alpha  occ. eigenvalues --  -10.23742 -10.23673 -10.23576 -10.23401 -10.23241
 Alpha  occ. eigenvalues --  -10.23091 -10.23045 -10.22521 -10.22493 -10.22461
 Alpha  occ. eigenvalues --  -10.22255 -10.22194 -10.22186 -10.22170 -10.21894
 Alpha  occ. eigenvalues --  -10.21793 -10.21771 -10.21750 -10.21481 -10.21388
 Alpha  occ. eigenvalues --  -10.21382  -3.15184  -1.88015  -1.87589  -1.87364
 Alpha  occ. eigenvalues --   -1.11424  -1.10396  -1.04141  -1.03804  -1.01620
 Alpha  occ. eigenvalues --   -1.01563  -1.00840  -0.98575  -0.97722  -0.96499
 Alpha  occ. eigenvalues --   -0.87112  -0.84537  -0.83851  -0.83801  -0.83492
 Alpha  occ. eigenvalues --   -0.82823  -0.82670  -0.82151  -0.81599  -0.80845
 Alpha  occ. eigenvalues --   -0.80151  -0.79766  -0.78660  -0.78528  -0.77866
 Alpha  occ. eigenvalues --   -0.76916  -0.76627  -0.75738  -0.75081  -0.74791
 Alpha  occ. eigenvalues --   -0.73805  -0.72333  -0.71744  -0.71458  -0.70260
 Alpha  occ. eigenvalues --   -0.70048  -0.69672  -0.69596  -0.68647  -0.68625
 Alpha  occ. eigenvalues --   -0.67440  -0.67191  -0.66436  -0.64529  -0.63544
 Alpha  occ. eigenvalues --   -0.62810  -0.61948  -0.61311  -0.60970  -0.60407
 Alpha  occ. eigenvalues --   -0.60091  -0.59323  -0.59124  -0.59033  -0.58661
 Alpha  occ. eigenvalues --   -0.57771  -0.57494  -0.56575  -0.56377  -0.54288
 Alpha  occ. eigenvalues --   -0.54094  -0.53851  -0.53435  -0.53164  -0.52905
 Alpha  occ. eigenvalues --   -0.52376  -0.51275  -0.50699  -0.50613  -0.50003
 Alpha  occ. eigenvalues --   -0.49791  -0.49215  -0.49209  -0.48709  -0.48195
 Alpha  occ. eigenvalues --   -0.48009  -0.47973  -0.47913  -0.47871  -0.47727
 Alpha  occ. eigenvalues --   -0.47303  -0.47152  -0.46990  -0.46852  -0.46310
 Alpha  occ. eigenvalues --   -0.46146  -0.46071  -0.45954  -0.45736  -0.45628
 Alpha  occ. eigenvalues --   -0.45433  -0.45212  -0.44921  -0.44111  -0.44003
 Alpha  occ. eigenvalues --   -0.43960  -0.43715  -0.43393  -0.43151  -0.43082
 Alpha  occ. eigenvalues --   -0.43005  -0.42856  -0.42773  -0.42357  -0.42194
 Alpha  occ. eigenvalues --   -0.42051  -0.41797  -0.41259  -0.41197  -0.41152
 Alpha  occ. eigenvalues --   -0.40922  -0.40912  -0.40804  -0.40544  -0.40456
 Alpha  occ. eigenvalues --   -0.40270  -0.40156  -0.39999  -0.39950  -0.39433
 Alpha  occ. eigenvalues --   -0.39318  -0.38820  -0.38749  -0.38622  -0.38515
 Alpha  occ. eigenvalues --   -0.38206  -0.38045  -0.37724  -0.37606  -0.37441
 Alpha  occ. eigenvalues --   -0.37317  -0.37160  -0.37095  -0.36874  -0.36739
 Alpha  occ. eigenvalues --   -0.36627  -0.36487  -0.36304  -0.36164  -0.36031
 Alpha  occ. eigenvalues --   -0.35920  -0.35564  -0.35380  -0.35121  -0.34877
 Alpha  occ. eigenvalues --   -0.34862  -0.34691  -0.34547  -0.34259  -0.33978
 Alpha  occ. eigenvalues --   -0.33399  -0.32944  -0.32502  -0.32394  -0.32199
 Alpha  occ. eigenvalues --   -0.32055  -0.31864  -0.31741  -0.31225  -0.30795
 Alpha  occ. eigenvalues --   -0.30760  -0.30655  -0.29754  -0.29655  -0.29465
 Alpha  occ. eigenvalues --   -0.29258  -0.28698  -0.28195  -0.26544  -0.25236
 Alpha  occ. eigenvalues --   -0.25068  -0.24911  -0.24839  -0.24612  -0.20791
 Alpha  occ. eigenvalues --   -0.19083
 Alpha virt. eigenvalues --   -0.11004  -0.05441  -0.03651  -0.01765  -0.00893
 Alpha virt. eigenvalues --    0.00636   0.00770   0.01419   0.01709   0.02786
 Alpha virt. eigenvalues --    0.04586   0.04823   0.05237   0.05264   0.06004

 Mulliken charges:
               1
     1  Mg   0.958982
     2  C   -0.047164
     3  C   -0.056094
     4  C   -0.061103
     5  C   -0.082936
     6  N   -0.270336
     7  C   -0.004310
     8  C   -0.053915
     9  C   -0.183830
    10  C    0.021079
    11  C    0.004614
    12  C    0.026530
    13  C   -0.031521
    14  C    0.232026
    15  O   -0.277908
    16  O   -0.351603
    17  N   -0.514948
    18  C    0.192140
    19  C   -0.180858
    20  C   -0.082052
    21  C    0.133685
    22  C    0.095435
    23  C    0.014095
    24  O   -0.246437
    25  C    0.011936
    26  N   -0.422209
    27  C    0.140228
    28  C   -0.118028
    29  C   -0.080367
    30  C    0.048627
    31  C   -0.002240
    32  C   -0.035628
    33  C   -0.076483
    34  N   -0.466612
    35  C    0.158090
    36  C   -0.154094
    37  C    0.013100
    38  C    0.182612
    39  C    0.072220
    40  C    0.024717
    41  O   -0.224738
    42  C   -0.115520
    43  C    0.314127
    44  O   -0.270003
    45  O   -0.365145
    46  C    0.123414
    47  C    0.220533
    48  C   -0.135429
    49  C   -0.221087
    50  C   -0.015678
    51  C    0.024457
    52  C   -0.057538
    53  C    0.013954
    54  C   -0.232112
    55  C   -0.002092
    56  C    0.013290
    57  C   -0.084427
    58  C   -0.007827
    59  C   -0.213334
    60  C    0.007888
    61  C   -0.015646
    62  C   -0.067240
    63  C    0.015975
    64  C   -0.253752
    65  C   -0.018884
    66  C   -0.007540
    67  H    0.006510
    68  H   -0.022751
    69  H   -0.008034
    70  H    0.052648
    71  H    0.049454
    72  H    0.051624
    73  H    0.049250
    74  H    0.050407
    75  H    0.036246
    76  H    0.043358
    77  H    0.083139
    78  H    0.062936
    79  H    0.081685
    80  H    0.012977
    81  H    0.048591
    82  H    0.075557
    83  H    0.051662
    84  H    0.073278
    85  H    0.054860
    86  H    0.055996
    87  H    0.045537
    88  H    0.048734
    89  H    0.037388
    90  H    0.061609
    91  H    0.040216
    92  H    0.039183
    93  H    0.035236
    94  H    0.052875
    95  H    0.039803
    96  H    0.063397
    97  H    0.064916
    98  H    0.085092
    99  H    0.064432
   100  H    0.056397
   101  H    0.069223
   102  H    0.071036
   103  H    0.061022
   104  H    0.033778
   105  H    0.040554
   106  H    0.054145
   107  H    0.063446
   108  H    0.028483
   109  H    0.037186
   110  H    0.040742
   111  H    0.036301
   112  H    0.034992
   113  H    0.029953
   114  H    0.033291
   115  H    0.033305
   116  H    0.014915
   117  H    0.039066
   118  H    0.023944
   119  H    0.037036
   120  H    0.022522
   121  H    0.020935
   122  H    0.022966
   123  H    0.030349
   124  H    0.036142
   125  H    0.019575
   126  H    0.031436
   127  H    0.043158
   128  H    0.019271
   129  H    0.024923
   130  H    0.041375
   131  H    0.034954
   132  H    0.021625
   133  H    0.021535
   134  H    0.035320
   135  H    0.037803
   136  H    0.020730
   137  H    0.022974
   138  H    0.034285
   139  H    0.045022
   140  H    0.031384
 Sum of Mulliken charges =  -0.00000

 Dipole moment (field-independent basis, Debye):
    X=             -1.5944    Y=              3.7511    Z=              1.2740  Tot=              4.2704
 Quadrupole moment (field-independent basis, Debye-Ang):
   XX=           -387.0001   YY=           -425.6840   ZZ=           -382.6493
   XY=             42.2528   XZ=              3.2757   YZ=             35.5828

 Normal termination of Gaussian 16 at Sat Apr 30 23:17:11 2022.
