 Gaussian 16, Revision A.03,
 Gaussian 16:  ES64L-G16RevA.03 25-Dec-2016

 --------------------------------
 #p wB97XD/Def2SVP td=(nstates=5)
 --------------------------------

 ----------------------------------------------------
 step_951_chromophore_17 TDDFT with wB97XD functional
 ----------------------------------------------------
 Symbolic Z-matrix:
 Charge =  0 Multiplicity = 1

                         Standard orientation:
 ---------------------------------------------------------------------
 Center     Atomic      Atomic             Coordinates (Angstroms)
 Number     Number       Type             X           Y           Z
 ---------------------------------------------------------------------
      1         12           0        4.604163    1.392503   -0.506978
      2          6           0        4.098085   -2.103814   -0.417289
      3          6           0        2.387170    1.399137   -3.243956
      4          6           0        4.175333    4.596237   -0.004612
      5          6           0        6.172559    1.078349    2.603111
      6          7           0        3.312985   -0.276442   -1.571250
      7          6           0        3.256718   -1.510327   -1.388686
      8          6           0        2.374385   -2.297143   -2.440293
      9          6           0        2.049879   -1.157231   -3.479428
     10          6           0        2.619629    0.056476   -2.731558
     11          6           0        2.622403   -1.270344   -4.945140
     12          6           0        1.070679   -3.118396   -1.838424
     13          6           0        1.111540   -4.614282   -1.818032
     14          6           0        0.092788   -5.309709   -0.869342
     15          8           0        0.327427   -6.286632   -0.137115
     16          8           0       -1.038282   -4.581165   -0.850860
     17          7           0        3.561214    2.879102   -1.615505
     18          6           0        2.761170    2.633864   -2.725873
     19          6           0        2.310206    3.928121   -3.211546
     20          6           0        2.667134    4.895018   -2.215023
     21          6           0        3.505652    4.192381   -1.204292
     22          6           0        1.534906    4.110595   -4.492803
     23          6           0        2.110328    6.322498   -2.114631
     24          8           0        1.369715    6.689692   -3.022771
     25          6           0        2.322213    7.173123   -0.951818
     26          7           0        5.196881    2.678067    1.056523
     27          6           0        5.016707    3.989699    0.962957
     28          6           0        5.479264    4.710474    2.180479
     29          6           0        6.282480    3.604604    3.076434
     30          6           0        5.876832    2.343843    2.244246
     31          6           0        6.441639    5.879499    1.847341
     32          6           0        5.805827    3.389058    4.524168
     33          6           0        6.929613    3.515886    5.566774
     34          7           0        5.237564   -0.181893    0.750490
     35          6           0        5.896725   -0.114170    1.984136
     36          6           0        6.246074   -1.449175    2.398010
     37          6           0        5.528808   -2.288920    1.437290
     38          6           0        4.920651   -1.452574    0.529590
     39          6           0        7.017773   -1.766025    3.651266
     40          6           0        5.264655   -3.606821    1.072624
     41          8           0        5.660079   -4.650514    1.568056
     42          6           0        4.346097   -3.588499   -0.209024
     43          6           0        5.131194   -4.230807   -1.264533
     44          8           0        6.030001   -3.722683   -1.938462
     45          8           0        4.681183   -5.517205   -1.440959
     46          6           0        5.656007   -6.374867   -2.106457
     47          6           0       -2.068968   -5.047178    0.123089
     48          6           0       -3.294388   -4.072043    0.161672
     49          6           0       -4.431649   -4.237631    0.897705
     50          6           0       -4.704974   -5.470988    1.924727
     51          6           0       -5.563893   -3.234661    0.789305
     52          6           0       -5.563193   -2.314249    2.052103
     53          6           0       -5.212195   -0.871522    1.748131
     54          6           0       -6.230223    0.060780    2.416118
     55          6           0       -5.524182    1.408958    2.709151
     56          6           0       -7.538456    0.272157    1.615054
     57          6           0       -8.815733    0.045184    2.453290
     58          6           0      -10.140851   -0.013859    1.698282
     59          6           0      -11.295356    0.929358    2.368266
     60          6           0      -12.115937    0.240826    3.472474
     61          6           0      -12.209422    1.493457    1.270191
     62          6           0      -11.426029    2.211750    0.127404
     63          6           0      -11.602166    1.446754   -1.207650
     64          6           0      -11.495557    2.351148   -2.407761
     65          6           0      -12.806856    2.758227   -3.108320
     66          6           0      -10.476491    1.844246   -3.391879
     67          1           0        1.840910    1.401062   -4.189536
     68          1           0        3.941003    5.658346    0.097309
     69          1           0        6.778867    0.998659    3.508037
     70          1           0        3.056118   -2.852489   -3.084027
     71          1           0        0.979518   -1.042532   -3.650311
     72          1           0        3.287888   -0.409459   -5.002487
     73          1           0        1.830753   -1.212931   -5.692147
     74          1           0        3.196561   -2.187231   -5.081309
     75          1           0        0.213320   -2.794692   -2.429213
     76          1           0        0.849355   -2.669060   -0.870070
     77          1           0        2.129919   -4.929766   -1.593016
     78          1           0        0.788561   -4.889166   -2.822309
     79          1           0        0.482970    4.369713   -4.369488
     80          1           0        1.669062    3.297048   -5.205422
     81          1           0        2.159091    4.773107   -5.093812
     82          1           0        2.091750    6.621714   -0.040070
     83          1           0        1.646174    8.028687   -0.960451
     84          1           0        3.329591    7.552539   -1.128745
     85          1           0        4.585155    5.050649    2.702461
     86          1           0        7.360339    3.748829    3.011079
     87          1           0        6.717610    6.423070    2.750491
     88          1           0        6.111455    6.593457    1.091730
     89          1           0        7.334611    5.398244    1.450311
     90          1           0        5.398846    2.399047    4.734342
     91          1           0        5.125549    4.209015    4.749518
     92          1           0        6.663725    4.444654    6.071533
     93          1           0        7.876293    3.701549    5.061066
     94          1           0        6.960438    2.664412    6.247882
     95          1           0        7.487436   -0.932460    4.174957
     96          1           0        7.765024   -2.530940    3.439253
     97          1           0        6.275092   -2.234169    4.296785
     98          1           0        3.432625   -4.100899    0.092843
     99          1           0        6.046839   -6.044631   -3.069998
    100          1           0        5.074722   -7.281374   -2.270367
    101          1           0        6.413593   -6.466993   -1.328406
    102          1           0       -1.744763   -5.229278    1.146803
    103          1           0       -2.481121   -6.010585   -0.177243
    104          1           0       -3.162443   -3.188907   -0.462011
    105          1           0       -3.921235   -6.226363    1.983534
    106          1           0       -5.526950   -5.964869    1.407622
    107          1           0       -4.966654   -5.170079    2.939306
    108          1           0       -6.541594   -3.718404    0.796386
    109          1           0       -5.468049   -2.718299   -0.165936
    110          1           0       -4.742074   -2.641654    2.689667
    111          1           0       -6.482811   -2.445604    2.622690
    112          1           0       -5.132801   -0.644375    0.685429
    113          1           0       -4.264555   -0.769194    2.276012
    114          1           0       -6.448254   -0.316673    3.415035
    115          1           0       -5.374805    1.567579    3.776716
    116          1           0       -6.185539    2.232213    2.440285
    117          1           0       -4.621980    1.503859    2.105041
    118          1           0       -7.636644   -0.429669    0.786266
    119          1           0       -7.666568    1.286700    1.238802
    120          1           0       -8.884026    0.814855    3.222360
    121          1           0       -8.739796   -0.890432    3.007312
    122          1           0      -10.432362   -1.044985    1.896282
    123          1           0       -9.982677    0.069689    0.623493
    124          1           0      -10.862840    1.830789    2.802614
    125          1           0      -11.646962   -0.722243    3.669904
    126          1           0      -13.084273    0.025503    3.019990
    127          1           0      -12.234632    0.679531    4.463148
    128          1           0      -12.818926    2.227337    1.797759
    129          1           0      -12.937969    0.821222    0.816942
    130          1           0      -10.350097    2.187023    0.297964
    131          1           0      -11.785767    3.233178    0.248685
    132          1           0      -12.544433    0.908041   -1.309841
    133          1           0      -10.835475    0.672879   -1.245930
    134          1           0      -11.221290    3.350584   -2.069070
    135          1           0      -13.110866    3.761180   -2.810059
    136          1           0      -13.672081    2.114997   -2.951994
    137          1           0      -12.731402    2.677633   -4.192052
    138          1           0      -10.136971    2.786972   -3.821823
    139          1           0      -10.908907    1.171016   -4.131705
    140          1           0       -9.661237    1.401198   -2.820065
 ---------------------------------------------------------------------

 SCF Done:  E(RwB97XD) =  -3007.81707507     A.U. after   19 cycles

 Excitation energies and oscillator strengths:

 Excited State   1:      Singlet-A      1.7616 eV  703.82 nm  f=0.3723  <S**2>=0.000
     245 -> 248       -0.20877
     246 -> 247        0.67604
     245 <- 248       -0.11757
 This state for optimization and/or second-order correction.
 Total Energy, E(TD-HF/TD-DFT) =  -3007.75233820
 Copying the excited state density for this state as the 1-particle RhoCI density.

 Excited State   2:      Singlet-A      2.1894 eV  566.28 nm  f=0.1046  <S**2>=0.000
     245 -> 247        0.63631
     246 -> 248        0.28724

 Excited State   3:      Singlet-A      3.3068 eV  374.93 nm  f=0.0013  <S**2>=0.000
     241 -> 249       -0.10242
     242 -> 247        0.33460
     244 -> 247        0.58891

 Excited State   4:      Singlet-A      3.4043 eV  364.20 nm  f=0.0340  <S**2>=0.000
     241 -> 247        0.47111
     242 -> 247       -0.37022
     242 -> 249       -0.11882
     244 -> 247        0.15331
     246 -> 248       -0.27219

 Excited State   5:      Singlet-A      3.4677 eV  357.55 nm  f=0.0060  <S**2>=0.000
     241 -> 247        0.35889
     241 -> 249       -0.22122
     241 -> 250       -0.15020
     242 -> 247        0.39766
     242 -> 249       -0.12459
     244 -> 247       -0.28655

 The electronic state is 1-A.
 Alpha  occ. eigenvalues --  -46.96224 -19.31426 -19.29459 -19.24326 -19.24236
 Alpha  occ. eigenvalues --  -19.23256 -19.22651 -14.47145 -14.46484 -14.44163
 Alpha  occ. eigenvalues --  -14.43168 -10.43328 -10.42566 -10.38666 -10.37548
 Alpha  occ. eigenvalues --  -10.36538 -10.35776 -10.35600 -10.35467 -10.34574
 Alpha  occ. eigenvalues --  -10.34422 -10.34347 -10.34211 -10.33086 -10.33000
 Alpha  occ. eigenvalues --  -10.32832 -10.32684 -10.32642 -10.32347 -10.32338
 Alpha  occ. eigenvalues --  -10.32114 -10.32052 -10.31969 -10.31745 -10.31712
 Alpha  occ. eigenvalues --  -10.31492 -10.31329 -10.31129 -10.31015 -10.30708
 Alpha  occ. eigenvalues --  -10.30537 -10.30508 -10.30449 -10.30320 -10.30317
 Alpha  occ. eigenvalues --  -10.30050 -10.29981 -10.29906 -10.29802 -10.29778
 Alpha  occ. eigenvalues --  -10.29371 -10.29356 -10.28885 -10.28875 -10.28821
 Alpha  occ. eigenvalues --  -10.28554 -10.28552 -10.28456 -10.28349 -10.28288
 Alpha  occ. eigenvalues --  -10.28207 -10.28165 -10.28110 -10.27902 -10.27828
 Alpha  occ. eigenvalues --  -10.27803  -3.22033  -1.95606  -1.95179  -1.94955
 Alpha  occ. eigenvalues --   -1.18788  -1.17800  -1.11757  -1.11130  -1.09005
 Alpha  occ. eigenvalues --   -1.08887  -1.08254  -1.05900  -1.04967  -1.04049
 Alpha  occ. eigenvalues --   -0.94661  -0.92214  -0.91482  -0.91404  -0.91119
 Alpha  occ. eigenvalues --   -0.90485  -0.90283  -0.89823  -0.89273  -0.88464
 Alpha  occ. eigenvalues --   -0.87747  -0.87555  -0.86312  -0.86115  -0.85637
 Alpha  occ. eigenvalues --   -0.84584  -0.84292  -0.83330  -0.82749  -0.82415
 Alpha  occ. eigenvalues --   -0.81464  -0.79928  -0.79377  -0.79183  -0.77891
 Alpha  occ. eigenvalues --   -0.77746  -0.77366  -0.77182  -0.76325  -0.76296
 Alpha  occ. eigenvalues --   -0.75025  -0.74702  -0.73998  -0.72178  -0.71059
 Alpha  occ. eigenvalues --   -0.70237  -0.69592  -0.68954  -0.68606  -0.67910
 Alpha  occ. eigenvalues --   -0.67603  -0.66956  -0.66651  -0.66456  -0.66154
 Alpha  occ. eigenvalues --   -0.65462  -0.65171  -0.64204  -0.63802  -0.61804
 Alpha  occ. eigenvalues --   -0.61586  -0.61273  -0.60870  -0.60519  -0.60383
 Alpha  occ. eigenvalues --   -0.59799  -0.58718  -0.58182  -0.58061  -0.57433
 Alpha  occ. eigenvalues --   -0.57208  -0.56617  -0.56584  -0.56172  -0.55652
 Alpha  occ. eigenvalues --   -0.55501  -0.55427  -0.55286  -0.55184  -0.55078
 Alpha  occ. eigenvalues --   -0.54602  -0.54451  -0.54392  -0.54235  -0.53668
 Alpha  occ. eigenvalues --   -0.53538  -0.53447  -0.53300  -0.53122  -0.53083
 Alpha  occ. eigenvalues --   -0.52899  -0.52587  -0.52151  -0.51469  -0.51377
 Alpha  occ. eigenvalues --   -0.51272  -0.51024  -0.50702  -0.50458  -0.50365
 Alpha  occ. eigenvalues --   -0.50238  -0.50113  -0.50045  -0.49612  -0.49471
 Alpha  occ. eigenvalues --   -0.49310  -0.49139  -0.48509  -0.48430  -0.48265
 Alpha  occ. eigenvalues --   -0.48175  -0.48115  -0.48002  -0.47766  -0.47685
 Alpha  occ. eigenvalues --   -0.47499  -0.47264  -0.47196  -0.47102  -0.46573
 Alpha  occ. eigenvalues --   -0.46496  -0.45966  -0.45907  -0.45748  -0.45661
 Alpha  occ. eigenvalues --   -0.45276  -0.45256  -0.44884  -0.44761  -0.44613
 Alpha  occ. eigenvalues --   -0.44455  -0.44246  -0.44237  -0.44106  -0.43910
 Alpha  occ. eigenvalues --   -0.43818  -0.43592  -0.43397  -0.43232  -0.43082
 Alpha  occ. eigenvalues --   -0.42942  -0.42606  -0.42411  -0.42215  -0.41975
 Alpha  occ. eigenvalues --   -0.41890  -0.41602  -0.41543  -0.41263  -0.40906
 Alpha  occ. eigenvalues --   -0.40481  -0.40026  -0.39589  -0.39462  -0.39279
 Alpha  occ. eigenvalues --   -0.39103  -0.38848  -0.38629  -0.38231  -0.37856
 Alpha  occ. eigenvalues --   -0.37778  -0.37643  -0.36647  -0.36443  -0.36153
 Alpha  occ. eigenvalues --   -0.36150  -0.35884  -0.35254  -0.33106  -0.32562
 Alpha  occ. eigenvalues --   -0.31908  -0.31788  -0.31601  -0.30938  -0.25764
 Alpha  occ. eigenvalues --   -0.23314
 Alpha virt. eigenvalues --   -0.06848  -0.00104   0.02625   0.04777   0.05081
 Alpha virt. eigenvalues --    0.07494   0.07537   0.08113   0.08495   0.09248
 Alpha virt. eigenvalues --    0.11055   0.11682   0.11921   0.12114   0.12658

 Mulliken charges:
               1
     1  Mg   0.953315
     2  C   -0.045367
     3  C   -0.074777
     4  C   -0.071046
     5  C   -0.094691
     6  N   -0.232287
     7  C   -0.047826
     8  C   -0.026005
     9  C   -0.166840
    10  C    0.014273
    11  C    0.016827
    12  C    0.035546
    13  C   -0.005269
    14  C    0.220734
    15  O   -0.275142
    16  O   -0.350689
    17  N   -0.485994
    18  C    0.186876
    19  C   -0.169172
    20  C   -0.074475
    21  C    0.126813
    22  C    0.104823
    23  C    0.009330
    24  O   -0.241342
    25  C    0.024548
    26  N   -0.390939
    27  C    0.127923
    28  C   -0.090049
    29  C   -0.057112
    30  C    0.038195
    31  C    0.008099
    32  C   -0.020729
    33  C   -0.060862
    34  N   -0.428644
    35  C    0.149757
    36  C   -0.157589
    37  C    0.018324
    38  C    0.161356
    39  C    0.083603
    40  C    0.007920
    41  O   -0.216766
    42  C   -0.072056
    43  C    0.288183
    44  O   -0.263858
    45  O   -0.363147
    46  C    0.137594
    47  C    0.233149
    48  C   -0.145934
    49  C   -0.203910
    50  C   -0.001522
    51  C    0.038561
    52  C   -0.040644
    53  C    0.028237
    54  C   -0.201131
    55  C    0.009395
    56  C    0.027946
    57  C   -0.066316
    58  C    0.014139
    59  C   -0.182804
    60  C    0.018884
    61  C   -0.002506
    62  C   -0.044391
    63  C    0.031633
    64  C   -0.224682
    65  C   -0.010408
    66  C    0.007967
    67  H    0.000016
    68  H   -0.040739
    69  H   -0.020011
    70  H    0.037251
    71  H    0.039666
    72  H    0.043119
    73  H    0.045056
    74  H    0.046183
    75  H    0.028441
    76  H    0.036047
    77  H    0.068866
    78  H    0.056708
    79  H    0.080888
    80  H    0.008804
    81  H    0.044614
    82  H    0.071047
    83  H    0.051139
    84  H    0.068659
    85  H    0.046280
    86  H    0.044069
    87  H    0.040121
    88  H    0.043320
    89  H    0.030352
    90  H    0.053134
    91  H    0.031095
    92  H    0.032815
    93  H    0.028002
    94  H    0.048242
    95  H    0.034751
    96  H    0.057982
    97  H    0.058262
    98  H    0.077878
    99  H    0.060660
   100  H    0.053419
   101  H    0.065663
   102  H    0.066138
   103  H    0.055191
   104  H    0.031419
   105  H    0.035891
   106  H    0.047168
   107  H    0.059112
   108  H    0.021702
   109  H    0.029383
   110  H    0.029612
   111  H    0.027434
   112  H    0.026194
   113  H    0.021522
   114  H    0.020275
   115  H    0.028533
   116  H    0.007932
   117  H    0.033016
   118  H    0.013593
   119  H    0.026683
   120  H    0.011489
   121  H    0.010804
   122  H    0.013405
   123  H    0.013402
   124  H    0.023400
   125  H    0.012167
   126  H    0.024803
   127  H    0.039307
   128  H    0.010683
   129  H    0.014921
   130  H    0.027062
   131  H    0.027917
   132  H    0.011251
   133  H    0.010624
   134  H    0.022608
   135  H    0.032907
   136  H    0.014681
   137  H    0.016937
   138  H    0.028000
   139  H    0.039332
   140  H    0.024678
 Sum of Mulliken charges =  -0.00000

 Dipole moment (field-independent basis, Debye):
    X=             -1.8219    Y=              4.0471    Z=              0.8632  Tot=              4.5215
 Quadrupole moment (field-independent basis, Debye-Ang):
   XX=           -388.5983   YY=           -424.0598   ZZ=           -382.2433
   XY=             42.9928   XZ=              1.3608   YZ=             35.0018

 Normal termination of Gaussian 16 at Sat Apr 30 23:43:28 2022.
