 Gaussian 16, Revision A.03,
 Gaussian 16:  ES64L-G16RevA.03 25-Dec-2016

 --------------------
 #p ZINDO=(nstates=5)
 --------------------

 -----------------------------
 step_951_chromophore_17 ZINDO
 -----------------------------
 Symbolic Z-matrix:
 Charge =  0 Multiplicity = 1

                         Standard orientation:
 ---------------------------------------------------------------------
 Center     Atomic      Atomic             Coordinates (Angstroms)
 Number     Number       Type             X           Y           Z
 ---------------------------------------------------------------------
      1         12           0        4.604163    1.392503   -0.506978
      2          6           0        4.098085   -2.103814   -0.417289
      3          6           0        2.387170    1.399137   -3.243956
      4          6           0        4.175333    4.596237   -0.004612
      5          6           0        6.172559    1.078349    2.603111
      6          7           0        3.312985   -0.276442   -1.571250
      7          6           0        3.256718   -1.510327   -1.388686
      8          6           0        2.374385   -2.297143   -2.440293
      9          6           0        2.049879   -1.157231   -3.479428
     10          6           0        2.619629    0.056476   -2.731558
     11          6           0        2.622403   -1.270344   -4.945140
     12          6           0        1.070679   -3.118396   -1.838424
     13          6           0        1.111540   -4.614282   -1.818032
     14          6           0        0.092788   -5.309709   -0.869342
     15          8           0        0.327427   -6.286632   -0.137115
     16          8           0       -1.038282   -4.581165   -0.850860
     17          7           0        3.561214    2.879102   -1.615505
     18          6           0        2.761170    2.633864   -2.725873
     19          6           0        2.310206    3.928121   -3.211546
     20          6           0        2.667134    4.895018   -2.215023
     21          6           0        3.505652    4.192381   -1.204292
     22          6           0        1.534906    4.110595   -4.492803
     23          6           0        2.110328    6.322498   -2.114631
     24          8           0        1.369715    6.689692   -3.022771
     25          6           0        2.322213    7.173123   -0.951818
     26          7           0        5.196881    2.678067    1.056523
     27          6           0        5.016707    3.989699    0.962957
     28          6           0        5.479264    4.710474    2.180479
     29          6           0        6.282480    3.604604    3.076434
     30          6           0        5.876832    2.343843    2.244246
     31          6           0        6.441639    5.879499    1.847341
     32          6           0        5.805827    3.389058    4.524168
     33          6           0        6.929613    3.515886    5.566774
     34          7           0        5.237564   -0.181893    0.750490
     35          6           0        5.896725   -0.114170    1.984136
     36          6           0        6.246074   -1.449175    2.398010
     37          6           0        5.528808   -2.288920    1.437290
     38          6           0        4.920651   -1.452574    0.529590
     39          6           0        7.017773   -1.766025    3.651266
     40          6           0        5.264655   -3.606821    1.072624
     41          8           0        5.660079   -4.650514    1.568056
     42          6           0        4.346097   -3.588499   -0.209024
     43          6           0        5.131194   -4.230807   -1.264533
     44          8           0        6.030001   -3.722683   -1.938462
     45          8           0        4.681183   -5.517205   -1.440959
     46          6           0        5.656007   -6.374867   -2.106457
     47          6           0       -2.068968   -5.047178    0.123089
     48          6           0       -3.294388   -4.072043    0.161672
     49          6           0       -4.431649   -4.237631    0.897705
     50          6           0       -4.704974   -5.470988    1.924727
     51          6           0       -5.563893   -3.234661    0.789305
     52          6           0       -5.563193   -2.314249    2.052103
     53          6           0       -5.212195   -0.871522    1.748131
     54          6           0       -6.230223    0.060780    2.416118
     55          6           0       -5.524182    1.408958    2.709151
     56          6           0       -7.538456    0.272157    1.615054
     57          6           0       -8.815733    0.045184    2.453290
     58          6           0      -10.140851   -0.013859    1.698282
     59          6           0      -11.295356    0.929358    2.368266
     60          6           0      -12.115937    0.240826    3.472474
     61          6           0      -12.209422    1.493457    1.270191
     62          6           0      -11.426029    2.211750    0.127404
     63          6           0      -11.602166    1.446754   -1.207650
     64          6           0      -11.495557    2.351148   -2.407761
     65          6           0      -12.806856    2.758227   -3.108320
     66          6           0      -10.476491    1.844246   -3.391879
     67          1           0        1.840910    1.401062   -4.189536
     68          1           0        3.941003    5.658346    0.097309
     69          1           0        6.778867    0.998659    3.508037
     70          1           0        3.056118   -2.852489   -3.084027
     71          1           0        0.979518   -1.042532   -3.650311
     72          1           0        3.287888   -0.409459   -5.002487
     73          1           0        1.830753   -1.212931   -5.692147
     74          1           0        3.196561   -2.187231   -5.081309
     75          1           0        0.213320   -2.794692   -2.429213
     76          1           0        0.849355   -2.669060   -0.870070
     77          1           0        2.129919   -4.929766   -1.593016
     78          1           0        0.788561   -4.889166   -2.822309
     79          1           0        0.482970    4.369713   -4.369488
     80          1           0        1.669062    3.297048   -5.205422
     81          1           0        2.159091    4.773107   -5.093812
     82          1           0        2.091750    6.621714   -0.040070
     83          1           0        1.646174    8.028687   -0.960451
     84          1           0        3.329591    7.552539   -1.128745
     85          1           0        4.585155    5.050649    2.702461
     86          1           0        7.360339    3.748829    3.011079
     87          1           0        6.717610    6.423070    2.750491
     88          1           0        6.111455    6.593457    1.091730
     89          1           0        7.334611    5.398244    1.450311
     90          1           0        5.398846    2.399047    4.734342
     91          1           0        5.125549    4.209015    4.749518
     92          1           0        6.663725    4.444654    6.071533
     93          1           0        7.876293    3.701549    5.061066
     94          1           0        6.960438    2.664412    6.247882
     95          1           0        7.487436   -0.932460    4.174957
     96          1           0        7.765024   -2.530940    3.439253
     97          1           0        6.275092   -2.234169    4.296785
     98          1           0        3.432625   -4.100899    0.092843
     99          1           0        6.046839   -6.044631   -3.069998
    100          1           0        5.074722   -7.281374   -2.270367
    101          1           0        6.413593   -6.466993   -1.328406
    102          1           0       -1.744763   -5.229278    1.146803
    103          1           0       -2.481121   -6.010585   -0.177243
    104          1           0       -3.162443   -3.188907   -0.462011
    105          1           0       -3.921235   -6.226363    1.983534
    106          1           0       -5.526950   -5.964869    1.407622
    107          1           0       -4.966654   -5.170079    2.939306
    108          1           0       -6.541594   -3.718404    0.796386
    109          1           0       -5.468049   -2.718299   -0.165936
    110          1           0       -4.742074   -2.641654    2.689667
    111          1           0       -6.482811   -2.445604    2.622690
    112          1           0       -5.132801   -0.644375    0.685429
    113          1           0       -4.264555   -0.769194    2.276012
    114          1           0       -6.448254   -0.316673    3.415035
    115          1           0       -5.374805    1.567579    3.776716
    116          1           0       -6.185539    2.232213    2.440285
    117          1           0       -4.621980    1.503859    2.105041
    118          1           0       -7.636644   -0.429669    0.786266
    119          1           0       -7.666568    1.286700    1.238802
    120          1           0       -8.884026    0.814855    3.222360
    121          1           0       -8.739796   -0.890432    3.007312
    122          1           0      -10.432362   -1.044985    1.896282
    123          1           0       -9.982677    0.069689    0.623493
    124          1           0      -10.862840    1.830789    2.802614
    125          1           0      -11.646962   -0.722243    3.669904
    126          1           0      -13.084273    0.025503    3.019990
    127          1           0      -12.234632    0.679531    4.463148
    128          1           0      -12.818926    2.227337    1.797759
    129          1           0      -12.937969    0.821222    0.816942
    130          1           0      -10.350097    2.187023    0.297964
    131          1           0      -11.785767    3.233178    0.248685
    132          1           0      -12.544433    0.908041   -1.309841
    133          1           0      -10.835475    0.672879   -1.245930
    134          1           0      -11.221290    3.350584   -2.069070
    135          1           0      -13.110866    3.761180   -2.810059
    136          1           0      -13.672081    2.114997   -2.951994
    137          1           0      -12.731402    2.677633   -4.192052
    138          1           0      -10.136971    2.786972   -3.821823
    139          1           0      -10.908907    1.171016   -4.131705
    140          1           0       -9.661237    1.401198   -2.820065
 ---------------------------------------------------------------------

 SCF Done:  E(RZINDO/S) =  -474.247346769     A.U. after   20 cycles

 Excitation energies and oscillator strengths:

 Excited State   1:      Singlet-A      1.3439 eV  922.54 nm  f=0.5628  <S**2>=0.000
     175 ->178         0.19673
     176 ->177         0.66213
 This state for optimization and/or second-order correction.
 Total Energy, E(CIS/TDA) =  -474.197957840
 Copying the excited state density for this state as the 1-particle RhoCI density.

 Excited State   2:      Singlet-A      1.9009 eV  652.24 nm  f=0.0449  <S**2>=0.000
     175 ->177         0.54937
     176 ->178        -0.41410

 Excited State   3:      Singlet-A      2.9245 eV  423.95 nm  f=0.0339  <S**2>=0.000
     170 ->177         0.34047
     170 ->178        -0.10550
     170 ->179        -0.28046
     170 ->181         0.31042
     170 ->184        -0.10010
     170 ->185         0.12963
     170 ->188         0.14818
     170 ->204        -0.12988
     171 ->177         0.13421
     171 ->181         0.11275
     176 ->178         0.11028

 Excited State   4:      Singlet-A      2.9798 eV  416.08 nm  f=0.1032  <S**2>=0.000
     167 ->179         0.10428
     168 ->177         0.23671
     168 ->179         0.33269
     168 ->181         0.22643
     168 ->184        -0.11181
     168 ->185        -0.21022
     169 ->177         0.14299
     169 ->179         0.18034
     169 ->181         0.13083
     169 ->185        -0.11013
     175 ->177        -0.12287
     176 ->178        -0.17414

 Excited State   5:      Singlet-A      2.9901 eV  414.64 nm  f=0.8302  <S**2>=0.000
     168 ->177         0.10374
     168 ->179         0.13139
     175 ->177         0.34048
     176 ->178         0.47135
     176 ->179         0.15987
     176 ->180         0.12262

 The electronic state is 1-A.
 Alpha  occ. eigenvalues --   -1.84789  -1.80246  -1.79312  -1.73314  -1.72347
 Alpha  occ. eigenvalues --   -1.70674  -1.65794  -1.62434  -1.60215  -1.59224
 Alpha  occ. eigenvalues --   -1.55450  -1.50110  -1.48910  -1.48358  -1.45720
 Alpha  occ. eigenvalues --   -1.44778  -1.43154  -1.40655  -1.39467  -1.38908
 Alpha  occ. eigenvalues --   -1.37063  -1.32881  -1.32359  -1.30837  -1.29301
 Alpha  occ. eigenvalues --   -1.28818  -1.27804  -1.23112  -1.19673  -1.18352
 Alpha  occ. eigenvalues --   -1.17065  -1.16186  -1.14607  -1.14009  -1.12506
 Alpha  occ. eigenvalues --   -1.12147  -1.11400  -1.09446  -1.05320  -1.03077
 Alpha  occ. eigenvalues --   -1.01564  -1.01175  -0.98045  -0.97588  -0.95849
 Alpha  occ. eigenvalues --   -0.94724  -0.94308  -0.93676  -0.93396  -0.92112
 Alpha  occ. eigenvalues --   -0.90989  -0.90847  -0.90275  -0.88023  -0.87139
 Alpha  occ. eigenvalues --   -0.86317  -0.85492  -0.83511  -0.82099  -0.80683
 Alpha  occ. eigenvalues --   -0.79328  -0.78786  -0.76901  -0.76743  -0.76085
 Alpha  occ. eigenvalues --   -0.76019  -0.75660  -0.74756  -0.73831  -0.73445
 Alpha  occ. eigenvalues --   -0.73402  -0.72292  -0.72166  -0.70967  -0.70726
 Alpha  occ. eigenvalues --   -0.70536  -0.69880  -0.69444  -0.68897  -0.68681
 Alpha  occ. eigenvalues --   -0.67998  -0.67588  -0.66927  -0.66509  -0.65899
 Alpha  occ. eigenvalues --   -0.65536  -0.64966  -0.64702  -0.64325  -0.64085
 Alpha  occ. eigenvalues --   -0.63614  -0.63087  -0.62911  -0.62246  -0.62161
 Alpha  occ. eigenvalues --   -0.61847  -0.61305  -0.60830  -0.60382  -0.59964
 Alpha  occ. eigenvalues --   -0.59809  -0.59203  -0.59038  -0.58714  -0.58636
 Alpha  occ. eigenvalues --   -0.57532  -0.57436  -0.56947  -0.56408  -0.56195
 Alpha  occ. eigenvalues --   -0.55539  -0.55199  -0.54761  -0.54330  -0.54235
 Alpha  occ. eigenvalues --   -0.53652  -0.53544  -0.53410  -0.52935  -0.52624
 Alpha  occ. eigenvalues --   -0.52489  -0.52418  -0.52332  -0.51929  -0.51901
 Alpha  occ. eigenvalues --   -0.51486  -0.50715  -0.50389  -0.50283  -0.50016
 Alpha  occ. eigenvalues --   -0.49884  -0.49796  -0.49615  -0.49245  -0.49059
 Alpha  occ. eigenvalues --   -0.49027  -0.48929  -0.48511  -0.47983  -0.47780
 Alpha  occ. eigenvalues --   -0.47638  -0.46990  -0.46884  -0.46707  -0.46482
 Alpha  occ. eigenvalues --   -0.46340  -0.46041  -0.45633  -0.45413  -0.45119
 Alpha  occ. eigenvalues --   -0.45025  -0.44687  -0.44634  -0.44354  -0.44139
 Alpha  occ. eigenvalues --   -0.43629  -0.43215  -0.42808  -0.42492  -0.42249
 Alpha  occ. eigenvalues --   -0.42153  -0.42124  -0.41058  -0.39097  -0.38865
 Alpha  occ. eigenvalues --   -0.38127  -0.37171  -0.35555  -0.35417  -0.33616
 Alpha  occ. eigenvalues --   -0.33460  -0.32115  -0.31977  -0.31026  -0.26388
 Alpha  occ. eigenvalues --   -0.22119
 Alpha virt. eigenvalues --   -0.08329  -0.02511  -0.00494   0.00874   0.01338
 Alpha virt. eigenvalues --    0.01450   0.02874   0.03363   0.04622   0.04631
 Alpha virt. eigenvalues --    0.06019   0.06646   0.06952   0.07419   0.08020

 Mulliken charges:
               1
     1  Mg   0.434630
     2  C   -0.044103
     3  C   -0.065456
     4  C   -0.115106
     5  C   -0.043163
     6  N   -0.239678
     7  C    0.130251
     8  C   -0.019687
     9  C   -0.004611
    10  C    0.124976
    11  C   -0.052909
    12  C   -0.019691
    13  C    0.012008
    14  C    0.465337
    15  O   -0.518556
    16  O   -0.255576
    17  N   -0.344274
    18  C    0.122203
    19  C    0.067644
    20  C   -0.053109
    21  C    0.140635
    22  C   -0.040332
    23  C    0.331870
    24  O   -0.535578
    25  C   -0.022304
    26  N   -0.277682
    27  C    0.183926
    28  C    0.009227
    29  C   -0.008733
    30  C    0.075099
    31  C   -0.051573
    32  C   -0.032647
    33  C   -0.066015
    34  N   -0.331920
    35  C    0.072745
    36  C    0.009566
    37  C   -0.058694
    38  C    0.124379
    39  C   -0.035654
    40  C    0.331909
    41  O   -0.545074
    42  C    0.052037
    43  C    0.500835
    44  O   -0.536963
    45  O   -0.273719
    46  C    0.074436
    47  C    0.096656
    48  C   -0.102119
    49  C   -0.011576
    50  C   -0.051649
    51  C   -0.020057
    52  C   -0.033621
    53  C   -0.028836
    54  C   -0.011511
    55  C   -0.065241
    56  C   -0.030291
    57  C   -0.039123
    58  C   -0.044920
    59  C   -0.007192
    60  C   -0.061003
    61  C   -0.042296
    62  C   -0.043212
    63  C   -0.026472
    64  C   -0.011224
    65  C   -0.060455
    66  C   -0.055473
    67  H    0.031909
    68  H    0.011204
    69  H    0.016792
    70  H    0.042447
    71  H    0.028123
    72  H    0.027695
    73  H    0.025069
    74  H    0.028920
    75  H    0.019580
    76  H    0.027143
    77  H    0.049196
    78  H    0.043160
    79  H    0.056054
    80  H    0.016067
    81  H    0.037980
    82  H    0.042985
    83  H    0.033332
    84  H    0.050301
    85  H    0.037867
    86  H    0.043852
    87  H    0.018740
    88  H    0.021786
    89  H    0.020430
    90  H    0.034503
    91  H    0.018216
    92  H    0.014988
    93  H    0.021311
    94  H    0.028147
    95  H    0.026471
    96  H    0.034220
    97  H    0.031560
    98  H    0.056819
    99  H    0.050509
   100  H    0.026714
   101  H    0.052721
   102  H    0.058993
   103  H    0.046006
   104  H    0.034284
   105  H    0.026138
   106  H    0.024760
   107  H    0.035960
   108  H    0.018711
   109  H    0.025357
   110  H    0.017294
   111  H    0.024481
   112  H    0.028935
   113  H    0.017354
   114  H    0.021582
   115  H    0.019558
   116  H    0.009466
   117  H    0.022317
   118  H    0.016127
   119  H    0.023552
   120  H    0.013818
   121  H    0.011525
   122  H    0.012890
   123  H    0.033127
   124  H    0.021332
   125  H    0.010816
   126  H    0.018258
   127  H    0.028008
   128  H    0.004273
   129  H    0.023475
   130  H    0.020788
   131  H    0.026698
   132  H    0.018346
   133  H    0.017901
   134  H    0.013885
   135  H    0.018046
   136  H    0.012772
   137  H    0.014492
   138  H    0.015139
   139  H    0.028749
   140  H    0.016688
 Sum of Mulliken charges =  -0.00000

 Dipole moment (field-independent basis, Debye):
    X=             -3.5262    Y=              6.2969    Z=             -0.5720  Tot=              7.2397
 N-N= 4.364856007964D+03 E-N= 0.000000000000D+00  KE=-9.403851918960D+03
 Leave Link  601 at Sat Apr 30 23:55:53 2022, MaxMem=  6710886400 cpu:               0.9 elap:               0.1
 (Enter /sw/apps/gaussian-16.0/g16/l9999.exe)
 1\1\GINC-BP1-COMPUTE161\SP\RZINDO CIS\STO-3G\C55H74Mg1N4O6\OF15641\30-
 Apr-2022\0\\#p ZINDO=(nstates=5)\\step_951_chromophore_17 ZINDO\\0,1\M
 g,0,29.774,59.14,41.173\C,0,26.845,57.652,39.871\C,0,31.49,56.384,39.8
 07\C,0,32.525,60.898,41.377\C,0,27.857,62.005,41.763\N,0,29.116,57.292
 ,39.855\C,0,27.988,56.919,39.471\C,0,27.967,55.518,38.736\C,0,29.449,5
 5.032,38.964\C,0,30.054,56.3,39.583\C,0,29.709,53.757,39.856\C,0,27.44
 ,55.518,37.168\C,0,26.112,54.902,36.857\C,0,25.477,55.306,35.495\O,0,2

 Normal termination of Gaussian 16 at Sat Apr 30 23:55:53 2022.
