 Gaussian 16, Revision A.03,
 Gaussian 16:  ES64L-G16RevA.03 25-Dec-2016

 ------------------------------
 #p blyp/Def2SVP td=(nstates=5)
 ------------------------------

 --------------------------------------------------
 step_1651_chromophore_3 TDDFT with blyp functional
 --------------------------------------------------
 Symbolic Z-matrix:
 Charge =  0 Multiplicity = 1

                         Standard orientation:
 ---------------------------------------------------------------------
 Center     Atomic      Atomic             Coordinates (Angstroms)
 Number     Number       Type             X           Y           Z
 ---------------------------------------------------------------------
      1         12           0        5.179395    0.938948    0.207680
      2          6           0        4.096498   -2.409620   -0.102065
      3          6           0        1.832017    1.897138    0.103640
      4          6           0        6.120957    4.085595    0.161877
      5          6           0        8.427018   -0.104096   -0.027116
      6          7           0        3.205129   -0.165583   -0.085429
      7          6           0        2.974054   -1.523455   -0.037457
      8          6           0        1.467976   -1.886633   -0.009587
      9          6           0        0.740329   -0.525615   -0.076434
     10          6           0        2.013282    0.487905   -0.055846
     11          6           0       -0.119810   -0.178750   -1.329415
     12          6           0        1.119498   -2.779236    1.227940
     13          6           0        0.315313   -4.023663    0.944757
     14          6           0       -0.950791   -3.812172    0.040483
     15          8           0       -0.946972   -3.945641   -1.178391
     16          8           0       -2.051859   -3.454699    0.778924
     17          7           0        4.136466    2.760933    0.037408
     18          6           0        2.752876    2.934691    0.056016
     19          6           0        2.423743    4.351594    0.081200
     20          6           0        3.706453    5.006314    0.123689
     21          6           0        4.756979    3.993277    0.164821
     22          6           0        0.970583    4.881509    0.311310
     23          6           0        4.038035    6.533963    0.359148
     24          8           0        5.175065    6.961244    0.548856
     25          6           0        2.912447    7.484330    0.336017
     26          7           0        6.964546    1.839410   -0.150119
     27          6           0        7.143465    3.141553    0.049632
     28          6           0        8.658878    3.569915    0.042639
     29          6           0        9.339431    2.213959    0.029283
     30          6           0        8.191629    1.234957   -0.036056
     31          6           0        8.999299    4.480641   -1.182056
     32          6           0       10.415961    1.879749    1.159217
     33          6           0       11.772979    1.494787    0.492184
     34          7           0        6.158588   -0.892124    0.168877
     35          6           0        7.489375   -1.207246    0.054452
     36          6           0        7.627478   -2.701288    0.084901
     37          6           0        6.287480   -3.205687   -0.025605
     38          6           0        5.457504   -2.065834    0.010233
     39          6           0        8.962400   -3.451878    0.010389
     40          6           0        5.455923   -4.464569   -0.180715
     41          8           0        5.782055   -5.614067   -0.359599
     42          6           0        4.004176   -3.927162   -0.161828
     43          6           0        3.267159   -4.528997   -1.323243
     44          8           0        3.084447   -4.020102   -2.424144
     45          8           0        2.856475   -5.828391   -1.023852
     46          6           0        1.860357   -6.421871   -1.888190
     47          6           0       -3.273342   -3.430967   -0.004228
     48          6           0       -4.556039   -3.360724    0.917122
     49          6           0       -5.670191   -4.083448    1.080482
     50          6           0       -6.079013   -5.192982    0.130733
     51          6           0       -6.763177   -3.747373    2.117704
     52          6           0       -7.831828   -2.838715    1.496734
     53          6           0       -7.967551   -1.574633    2.362310
     54          6           0       -9.355249   -0.884106    2.259863
     55          6           0       -9.553400    0.368514    3.280347
     56          6           0       -9.475249   -0.376274    0.738096
     57          6           0      -10.736442   -1.088853    0.146499
     58          6           0      -11.061839   -0.599667   -1.288057
     59          6           0      -12.150844    0.496512   -1.349900
     60          6           0      -13.033168    0.195388   -2.651545
     61          6           0      -11.594549    1.899133   -1.513347
     62          6           0      -12.033106    2.800281   -0.366949
     63          6           0      -11.895723    4.311098   -0.694431
     64          6           0      -10.468134    4.856999   -0.541719
     65          6           0      -10.403410    6.026660    0.517369
     66          6           0      -10.059705    5.485772   -1.960021
     67          1           0        0.769810    2.147632    0.119570
     68          1           0        6.624178    5.054234    0.173098
     69          1           0        9.454432   -0.469069    0.024547
     70          1           0        1.356090   -2.465284   -0.927203
     71          1           0        0.235267   -0.350341    0.873887
     72          1           0       -0.423221   -1.110101   -1.808139
     73          1           0        0.564776    0.376671   -1.971346
     74          1           0       -1.007490    0.400021   -1.074637
     75          1           0        0.434245   -2.231750    1.875403
     76          1           0        1.950121   -3.115285    1.848835
     77          1           0        0.092869   -4.416160    1.936655
     78          1           0        0.866385   -4.779240    0.384895
     79          1           0        0.857207    5.031670    1.385451
     80          1           0        0.240282    4.241719   -0.183252
     81          1           0        0.918377    5.809653   -0.258216
     82          1           0        2.446986    7.569493   -0.645797
     83          1           0        3.233645    8.451201    0.723374
     84          1           0        2.198835    7.152642    1.090753
     85          1           0        8.777124    4.127049    0.972194
     86          1           0        9.847247    2.094281   -0.927924
     87          1           0        8.931325    5.559154   -1.045927
     88          1           0        8.594624    4.225819   -2.162219
     89          1           0       10.063841    4.416814   -1.406147
     90          1           0       10.079783    1.102666    1.845736
     91          1           0       10.595403    2.843781    1.634820
     92          1           0       12.245407    0.790900    1.176931
     93          1           0       12.400559    2.386194    0.532987
     94          1           0       11.570874    1.154036   -0.523023
     95          1           0        8.849313   -4.308341   -0.654963
     96          1           0        9.073601   -3.804506    1.035766
     97          1           0        9.722342   -2.740192   -0.311153
     98          1           0        3.476640   -4.387791    0.673483
     99          1           0        2.021656   -6.216604   -2.946995
    100          1           0        0.847683   -6.090719   -1.660729
    101          1           0        1.891583   -7.506687   -1.789033
    102          1           0       -3.144549   -4.461241   -0.336760
    103          1           0       -3.246783   -2.695577   -0.808495
    104          1           0       -4.452268   -2.618823    1.708964
    105          1           0       -5.836655   -6.180246    0.524402
    106          1           0       -5.624902   -5.048084   -0.849037
    107          1           0       -7.155315   -5.103704   -0.024231
    108          1           0       -6.298924   -3.301295    2.996551
    109          1           0       -7.213186   -4.691822    2.424856
    110          1           0       -8.771264   -3.385211    1.406112
    111          1           0       -7.516111   -2.474427    0.519306
    112          1           0       -7.173577   -0.877822    2.090392
    113          1           0       -7.879861   -1.897072    3.399257
    114          1           0      -10.231219   -1.482052    2.508066
    115          1           0       -8.901410    1.172109    2.936799
    116          1           0       -9.339291   -0.032286    4.271208
    117          1           0      -10.549283    0.809689    3.327193
    118          1           0       -8.549765   -0.407466    0.161774
    119          1           0       -9.858528    0.632585    0.886849
    120          1           0      -11.562163   -1.244122    0.841195
    121          1           0      -10.432281   -2.120166   -0.034244
    122          1           0      -11.350712   -1.433089   -1.928458
    123          1           0      -10.198892   -0.189712   -1.811513
    124          1           0      -12.701268    0.294901   -0.431165
    125          1           0      -13.635708    1.057251   -2.937614
    126          1           0      -13.638484   -0.704116   -2.542321
    127          1           0      -12.365653   -0.107944   -3.458115
    128          1           0      -11.961513    2.341458   -2.439064
    129          1           0      -10.516332    1.918347   -1.668684
    130          1           0      -11.370869    2.534341    0.456941
    131          1           0      -13.041530    2.644115    0.015810
    132          1           0      -12.638345    4.844912   -0.102021
    133          1           0      -12.174692    4.466817   -1.736886
    134          1           0       -9.693245    4.148964   -0.247795
    135          1           0      -11.340910    6.577450    0.580491
    136          1           0       -9.539776    6.665330    0.329452
    137          1           0      -10.070844    5.528478    1.427666
    138          1           0      -10.218277    4.690592   -2.689282
    139          1           0       -8.989359    5.660147   -2.077354
    140          1           0      -10.631550    6.372330   -2.235275
 ---------------------------------------------------------------------

 SCF Done:  E(RB-LYP) =  -3007.39108924     A.U. after   20 cycles

 Excitation energies and oscillator strengths:

 Excited State   1:      Singlet-A      1.8193 eV  681.48 nm  f=0.3245  <S**2>=0.000
     245 -> 248        0.19743
     246 -> 247        0.69129
     246 <- 247       -0.15151
 This state for optimization and/or second-order correction.
 Total Energy, E(TD-HF/TD-DFT) =  -3007.32422960
 Copying the excited state density for this state as the 1-particle RhoCI density.

 Excited State   2:      Singlet-A      2.0201 eV  613.75 nm  f=0.0547  <S**2>=0.000
     244 -> 247        0.21242
     245 -> 247        0.62086
     246 -> 248       -0.24159

 Excited State   3:      Singlet-A      2.0821 eV  595.48 nm  f=0.0081  <S**2>=0.000
     244 -> 247        0.67338
     245 -> 247       -0.18697

 Excited State   4:      Singlet-A      2.2669 eV  546.92 nm  f=0.0004  <S**2>=0.000
     243 -> 247        0.70513

 Excited State   5:      Singlet-A      2.5627 eV  483.80 nm  f=0.0016  <S**2>=0.000
     242 -> 247        0.69395

 The electronic state is 1-A.
 Alpha  occ. eigenvalues --  -46.26611 -18.83055 -18.81207 -18.78152 -18.76428
 Alpha  occ. eigenvalues --  -18.76353 -18.75688 -14.03299 -14.02597 -14.00656
 Alpha  occ. eigenvalues --  -14.00384 -10.04991 -10.03691 -10.00434  -9.99868
 Alpha  occ. eigenvalues --   -9.98973  -9.96540  -9.96443  -9.96422  -9.95837
 Alpha  occ. eigenvalues --   -9.95719  -9.95679  -9.95211  -9.95189  -9.94447
 Alpha  occ. eigenvalues --   -9.94338  -9.94171  -9.94113  -9.94072  -9.94047
 Alpha  occ. eigenvalues --   -9.93950  -9.93865  -9.93850  -9.93763  -9.93733
 Alpha  occ. eigenvalues --   -9.93716  -9.93211  -9.92927  -9.92857  -9.92792
 Alpha  occ. eigenvalues --   -9.92755  -9.92587  -9.92485  -9.92461  -9.92403
 Alpha  occ. eigenvalues --   -9.92329  -9.92312  -9.92214  -9.92186  -9.92176
 Alpha  occ. eigenvalues --   -9.92047  -9.91993  -9.91749  -9.91701  -9.91681
 Alpha  occ. eigenvalues --   -9.91599  -9.91578  -9.91424  -9.91077  -9.90997
 Alpha  occ. eigenvalues --   -9.90916  -9.90884  -9.90849  -9.90825  -9.90801
 Alpha  occ. eigenvalues --   -9.90727  -2.91306  -1.71718  -1.71208  -1.71009
 Alpha  occ. eigenvalues --   -0.99033  -0.96634  -0.92385  -0.91158  -0.91016
 Alpha  occ. eigenvalues --   -0.88988  -0.86720  -0.85319  -0.84524  -0.83739
 Alpha  occ. eigenvalues --   -0.75255  -0.74107  -0.73224  -0.73051  -0.72515
 Alpha  occ. eigenvalues --   -0.71693  -0.71411  -0.70559  -0.70181  -0.69455
 Alpha  occ. eigenvalues --   -0.69015  -0.68598  -0.68048  -0.67259  -0.66937
 Alpha  occ. eigenvalues --   -0.66332  -0.65789  -0.65333  -0.64884  -0.64129
 Alpha  occ. eigenvalues --   -0.63886  -0.61965  -0.61946  -0.61666  -0.60609
 Alpha  occ. eigenvalues --   -0.60471  -0.59723  -0.59643  -0.59181  -0.59060
 Alpha  occ. eigenvalues --   -0.58638  -0.57064  -0.56197  -0.55577  -0.54275
 Alpha  occ. eigenvalues --   -0.53715  -0.53526  -0.52885  -0.52104  -0.51729
 Alpha  occ. eigenvalues --   -0.51588  -0.50789  -0.50239  -0.50081  -0.50044
 Alpha  occ. eigenvalues --   -0.49774  -0.49222  -0.49084  -0.47763  -0.46789
 Alpha  occ. eigenvalues --   -0.46243  -0.45460  -0.45381  -0.44855  -0.44294
 Alpha  occ. eigenvalues --   -0.44063  -0.43677  -0.42860  -0.42601  -0.42274
 Alpha  occ. eigenvalues --   -0.41848  -0.41733  -0.41151  -0.40972  -0.40902
 Alpha  occ. eigenvalues --   -0.40831  -0.40402  -0.40338  -0.40261  -0.40119
 Alpha  occ. eigenvalues --   -0.40009  -0.39577  -0.39536  -0.39256  -0.39192
 Alpha  occ. eigenvalues --   -0.39081  -0.38739  -0.38500  -0.38228  -0.38094
 Alpha  occ. eigenvalues --   -0.37928  -0.37645  -0.37619  -0.37378  -0.37279
 Alpha  occ. eigenvalues --   -0.36933  -0.36825  -0.36598  -0.36544  -0.36469
 Alpha  occ. eigenvalues --   -0.36119  -0.36046  -0.35796  -0.35726  -0.35593
 Alpha  occ. eigenvalues --   -0.35366  -0.35105  -0.34969  -0.34917  -0.34754
 Alpha  occ. eigenvalues --   -0.34469  -0.34240  -0.34036  -0.33941  -0.33736
 Alpha  occ. eigenvalues --   -0.33564  -0.33488  -0.33421  -0.33190  -0.32924
 Alpha  occ. eigenvalues --   -0.32835  -0.32791  -0.32637  -0.32549  -0.32312
 Alpha  occ. eigenvalues --   -0.32234  -0.32181  -0.31901  -0.31707  -0.31508
 Alpha  occ. eigenvalues --   -0.31188  -0.31094  -0.30925  -0.30755  -0.30625
 Alpha  occ. eigenvalues --   -0.30494  -0.30210  -0.30076  -0.29991  -0.29785
 Alpha  occ. eigenvalues --   -0.29775  -0.29524  -0.29469  -0.29417  -0.29136
 Alpha  occ. eigenvalues --   -0.29068  -0.28958  -0.28782  -0.28238  -0.28181
 Alpha  occ. eigenvalues --   -0.27803  -0.27506  -0.27426  -0.27140  -0.26309
 Alpha  occ. eigenvalues --   -0.26090  -0.25973  -0.25828  -0.25525  -0.25471
 Alpha  occ. eigenvalues --   -0.25063  -0.24102  -0.23983  -0.23838  -0.23504
 Alpha  occ. eigenvalues --   -0.23394  -0.22971  -0.21798  -0.21404  -0.21286
 Alpha  occ. eigenvalues --   -0.20253  -0.19939  -0.19293  -0.18597  -0.16935
 Alpha  occ. eigenvalues --   -0.15344
 Alpha virt. eigenvalues --   -0.11062  -0.06410  -0.05985  -0.04562  -0.03883
 Alpha virt. eigenvalues --   -0.02656  -0.02129  -0.02053  -0.01288   0.00261
 Alpha virt. eigenvalues --    0.01243   0.02261   0.02306   0.02684   0.02994

 Mulliken charges:
               1
     1  Mg   0.688948
     2  C    0.040522
     3  C   -0.052924
     4  C   -0.021870
     5  C   -0.097068
     6  N   -0.186201
     7  C   -0.116494
     8  C    0.071298
     9  C   -0.024550
    10  C   -0.041486
    11  C    0.130377
    12  C    0.101301
    13  C    0.133309
    14  C    0.082216
    15  O   -0.205211
    16  O   -0.270418
    17  N   -0.309793
    18  C    0.172899
    19  C   -0.169148
    20  C   -0.001372
    21  C    0.158337
    22  C    0.175522
    23  C   -0.063292
    24  O   -0.160896
    25  C    0.141184
    26  N   -0.240581
    27  C   -0.044709
    28  C    0.049795
    29  C    0.058923
    30  C    0.072736
    31  C    0.114892
    32  C    0.082719
    33  C    0.052181
    34  N   -0.278988
    35  C    0.080464
    36  C   -0.204621
    37  C    0.012689
    38  C    0.125805
    39  C    0.174882
    40  C   -0.005302
    41  O   -0.095171
    42  C    0.026064
    43  C    0.093487
    44  O   -0.171864
    45  O   -0.279236
    46  C    0.214191
    47  C    0.306239
    48  C   -0.084112
    49  C   -0.188289
    50  C    0.134262
    51  C    0.160230
    52  C    0.074860
    53  C    0.076187
    54  C   -0.076136
    55  C    0.073543
    56  C    0.110732
    57  C    0.045006
    58  C    0.107973
    59  C   -0.055291
    60  C    0.087441
    61  C    0.144768
    62  C    0.038692
    63  C    0.144709
    64  C   -0.096470
    65  C    0.105108
    66  C    0.068776
    67  H   -0.075222
    68  H   -0.057280
    69  H   -0.074275
    70  H    0.007374
    71  H   -0.022901
    72  H    0.009437
    73  H    0.007503
    74  H   -0.004498
    75  H   -0.020807
    76  H   -0.003024
    77  H   -0.013667
    78  H   -0.000892
    79  H    0.030479
    80  H   -0.001704
    81  H   -0.010405
    82  H    0.028841
    83  H   -0.015750
    84  H   -0.006234
    85  H   -0.019986
    86  H   -0.026007
    87  H   -0.000431
    88  H   -0.004082
    89  H   -0.029088
    90  H   -0.002575
    91  H   -0.022988
    92  H   -0.009716
    93  H   -0.006284
    94  H    0.013475
    95  H    0.016325
    96  H    0.008369
    97  H   -0.001521
    98  H    0.001666
    99  H    0.012369
   100  H    0.010665
   101  H    0.006181
   102  H   -0.012132
   103  H    0.021911
   104  H   -0.041183
   105  H    0.008626
   106  H   -0.006994
   107  H   -0.012928
   108  H   -0.020175
   109  H   -0.032538
   110  H   -0.013702
   111  H   -0.013479
   112  H   -0.019016
   113  H   -0.033892
   114  H   -0.033727
   115  H   -0.010939
   116  H   -0.011597
   117  H   -0.012705
   118  H   -0.012538
   119  H   -0.039384
   120  H   -0.021021
   121  H   -0.047086
   122  H   -0.050720
   123  H   -0.050442
   124  H   -0.037577
   125  H   -0.007694
   126  H   -0.024556
   127  H   -0.018737
   128  H   -0.047400
   129  H   -0.035655
   130  H   -0.029752
   131  H   -0.033788
   132  H   -0.041966
   133  H   -0.038765
   134  H   -0.028337
   135  H   -0.000725
   136  H   -0.026912
   137  H   -0.025574
   138  H   -0.023801
   139  H   -0.025040
   140  H   -0.003177
 Sum of Mulliken charges =  -0.00000

 Dipole moment (field-independent basis, Debye):
    X=             -4.2732    Y=              1.3715    Z=              3.5990  Tot=              5.7528
 Quadrupole moment (field-independent basis, Debye-Ang):
   XX=           -372.2319   YY=           -429.3725   ZZ=           -411.3433
   XY=             25.6109   XZ=              5.0790   YZ=            -12.4782

 Normal termination of Gaussian 16 at Wed May  4 12:06:37 2022.
