 Gaussian 16, Revision A.03,
 Gaussian 16:  ES64L-G16RevA.03 25-Dec-2016

 -----------------------------------
 #p cam-b3lyp/Def2SVP td=(nstates=5)
 -----------------------------------

 -------------------------------------------------------
 step_1651_chromophore_3 TDDFT with cam-b3lyp functional
 -------------------------------------------------------
 Symbolic Z-matrix:
 Charge =  0 Multiplicity = 1

                         Standard orientation:
 ---------------------------------------------------------------------
 Center     Atomic      Atomic             Coordinates (Angstroms)
 Number     Number       Type             X           Y           Z
 ---------------------------------------------------------------------
      1         12           0        5.179395    0.938948    0.207680
      2          6           0        4.096498   -2.409620   -0.102065
      3          6           0        1.832017    1.897138    0.103640
      4          6           0        6.120957    4.085595    0.161877
      5          6           0        8.427018   -0.104096   -0.027116
      6          7           0        3.205129   -0.165583   -0.085429
      7          6           0        2.974054   -1.523455   -0.037457
      8          6           0        1.467976   -1.886633   -0.009587
      9          6           0        0.740329   -0.525615   -0.076434
     10          6           0        2.013282    0.487905   -0.055846
     11          6           0       -0.119810   -0.178750   -1.329415
     12          6           0        1.119498   -2.779236    1.227940
     13          6           0        0.315313   -4.023663    0.944757
     14          6           0       -0.950791   -3.812172    0.040483
     15          8           0       -0.946972   -3.945641   -1.178391
     16          8           0       -2.051859   -3.454699    0.778924
     17          7           0        4.136466    2.760933    0.037408
     18          6           0        2.752876    2.934691    0.056016
     19          6           0        2.423743    4.351594    0.081200
     20          6           0        3.706453    5.006314    0.123689
     21          6           0        4.756979    3.993277    0.164821
     22          6           0        0.970583    4.881509    0.311310
     23          6           0        4.038035    6.533963    0.359148
     24          8           0        5.175065    6.961244    0.548856
     25          6           0        2.912447    7.484330    0.336017
     26          7           0        6.964546    1.839410   -0.150119
     27          6           0        7.143465    3.141553    0.049632
     28          6           0        8.658878    3.569915    0.042639
     29          6           0        9.339431    2.213959    0.029283
     30          6           0        8.191629    1.234957   -0.036056
     31          6           0        8.999299    4.480641   -1.182056
     32          6           0       10.415961    1.879749    1.159217
     33          6           0       11.772979    1.494787    0.492184
     34          7           0        6.158588   -0.892124    0.168877
     35          6           0        7.489375   -1.207246    0.054452
     36          6           0        7.627478   -2.701288    0.084901
     37          6           0        6.287480   -3.205687   -0.025605
     38          6           0        5.457504   -2.065834    0.010233
     39          6           0        8.962400   -3.451878    0.010389
     40          6           0        5.455923   -4.464569   -0.180715
     41          8           0        5.782055   -5.614067   -0.359599
     42          6           0        4.004176   -3.927162   -0.161828
     43          6           0        3.267159   -4.528997   -1.323243
     44          8           0        3.084447   -4.020102   -2.424144
     45          8           0        2.856475   -5.828391   -1.023852
     46          6           0        1.860357   -6.421871   -1.888190
     47          6           0       -3.273342   -3.430967   -0.004228
     48          6           0       -4.556039   -3.360724    0.917122
     49          6           0       -5.670191   -4.083448    1.080482
     50          6           0       -6.079013   -5.192982    0.130733
     51          6           0       -6.763177   -3.747373    2.117704
     52          6           0       -7.831828   -2.838715    1.496734
     53          6           0       -7.967551   -1.574633    2.362310
     54          6           0       -9.355249   -0.884106    2.259863
     55          6           0       -9.553400    0.368514    3.280347
     56          6           0       -9.475249   -0.376274    0.738096
     57          6           0      -10.736442   -1.088853    0.146499
     58          6           0      -11.061839   -0.599667   -1.288057
     59          6           0      -12.150844    0.496512   -1.349900
     60          6           0      -13.033168    0.195388   -2.651545
     61          6           0      -11.594549    1.899133   -1.513347
     62          6           0      -12.033106    2.800281   -0.366949
     63          6           0      -11.895723    4.311098   -0.694431
     64          6           0      -10.468134    4.856999   -0.541719
     65          6           0      -10.403410    6.026660    0.517369
     66          6           0      -10.059705    5.485772   -1.960021
     67          1           0        0.769810    2.147632    0.119570
     68          1           0        6.624178    5.054234    0.173098
     69          1           0        9.454432   -0.469069    0.024547
     70          1           0        1.356090   -2.465284   -0.927203
     71          1           0        0.235267   -0.350341    0.873887
     72          1           0       -0.423221   -1.110101   -1.808139
     73          1           0        0.564776    0.376671   -1.971346
     74          1           0       -1.007490    0.400021   -1.074637
     75          1           0        0.434245   -2.231750    1.875403
     76          1           0        1.950121   -3.115285    1.848835
     77          1           0        0.092869   -4.416160    1.936655
     78          1           0        0.866385   -4.779240    0.384895
     79          1           0        0.857207    5.031670    1.385451
     80          1           0        0.240282    4.241719   -0.183252
     81          1           0        0.918377    5.809653   -0.258216
     82          1           0        2.446986    7.569493   -0.645797
     83          1           0        3.233645    8.451201    0.723374
     84          1           0        2.198835    7.152642    1.090753
     85          1           0        8.777124    4.127049    0.972194
     86          1           0        9.847247    2.094281   -0.927924
     87          1           0        8.931325    5.559154   -1.045927
     88          1           0        8.594624    4.225819   -2.162219
     89          1           0       10.063841    4.416814   -1.406147
     90          1           0       10.079783    1.102666    1.845736
     91          1           0       10.595403    2.843781    1.634820
     92          1           0       12.245407    0.790900    1.176931
     93          1           0       12.400559    2.386194    0.532987
     94          1           0       11.570874    1.154036   -0.523023
     95          1           0        8.849313   -4.308341   -0.654963
     96          1           0        9.073601   -3.804506    1.035766
     97          1           0        9.722342   -2.740192   -0.311153
     98          1           0        3.476640   -4.387791    0.673483
     99          1           0        2.021656   -6.216604   -2.946995
    100          1           0        0.847683   -6.090719   -1.660729
    101          1           0        1.891583   -7.506687   -1.789033
    102          1           0       -3.144549   -4.461241   -0.336760
    103          1           0       -3.246783   -2.695577   -0.808495
    104          1           0       -4.452268   -2.618823    1.708964
    105          1           0       -5.836655   -6.180246    0.524402
    106          1           0       -5.624902   -5.048084   -0.849037
    107          1           0       -7.155315   -5.103704   -0.024231
    108          1           0       -6.298924   -3.301295    2.996551
    109          1           0       -7.213186   -4.691822    2.424856
    110          1           0       -8.771264   -3.385211    1.406112
    111          1           0       -7.516111   -2.474427    0.519306
    112          1           0       -7.173577   -0.877822    2.090392
    113          1           0       -7.879861   -1.897072    3.399257
    114          1           0      -10.231219   -1.482052    2.508066
    115          1           0       -8.901410    1.172109    2.936799
    116          1           0       -9.339291   -0.032286    4.271208
    117          1           0      -10.549283    0.809689    3.327193
    118          1           0       -8.549765   -0.407466    0.161774
    119          1           0       -9.858528    0.632585    0.886849
    120          1           0      -11.562163   -1.244122    0.841195
    121          1           0      -10.432281   -2.120166   -0.034244
    122          1           0      -11.350712   -1.433089   -1.928458
    123          1           0      -10.198892   -0.189712   -1.811513
    124          1           0      -12.701268    0.294901   -0.431165
    125          1           0      -13.635708    1.057251   -2.937614
    126          1           0      -13.638484   -0.704116   -2.542321
    127          1           0      -12.365653   -0.107944   -3.458115
    128          1           0      -11.961513    2.341458   -2.439064
    129          1           0      -10.516332    1.918347   -1.668684
    130          1           0      -11.370869    2.534341    0.456941
    131          1           0      -13.041530    2.644115    0.015810
    132          1           0      -12.638345    4.844912   -0.102021
    133          1           0      -12.174692    4.466817   -1.736886
    134          1           0       -9.693245    4.148964   -0.247795
    135          1           0      -11.340910    6.577450    0.580491
    136          1           0       -9.539776    6.665330    0.329452
    137          1           0      -10.070844    5.528478    1.427666
    138          1           0      -10.218277    4.690592   -2.689282
    139          1           0       -8.989359    5.660147   -2.077354
    140          1           0      -10.631550    6.372330   -2.235275
 ---------------------------------------------------------------------

 SCF Done:  E(RCAM-B3LYP) =  -3007.17707667     A.U. after   16 cycles

 Excitation energies and oscillator strengths:

 Excited State   1:      Singlet-A      1.7247 eV  718.88 nm  f=0.3939  <S**2>=0.000
     245 -> 248       -0.18295
     246 -> 247        0.68536
     245 <- 248       -0.10781
 This state for optimization and/or second-order correction.
 Total Energy, E(TD-HF/TD-DFT) =  -3007.11369592
 Copying the excited state density for this state as the 1-particle RhoCI density.

 Excited State   2:      Singlet-A      2.2694 eV  546.33 nm  f=0.0916  <S**2>=0.000
     245 -> 247        0.63110
     246 -> 248        0.30584

 Excited State   3:      Singlet-A      3.4123 eV  363.34 nm  f=0.1250  <S**2>=0.000
     243 -> 247        0.49926
     244 -> 247       -0.33159
     245 -> 247        0.11681
     246 -> 248       -0.32620

 Excited State   4:      Singlet-A      3.5053 eV  353.70 nm  f=0.2242  <S**2>=0.000
     244 -> 247        0.53465
     245 -> 247        0.16443
     246 -> 248       -0.40787

 Excited State   5:      Singlet-A      3.6670 eV  338.11 nm  f=0.5727  <S**2>=0.000
     242 -> 247       -0.11861
     243 -> 247        0.44594
     244 -> 247        0.28125
     245 -> 247       -0.25037
     246 -> 248        0.35285

 The electronic state is 1-A.
 Alpha  occ. eigenvalues --  -46.88079 -19.25919 -19.24089 -19.21193 -19.19541
 Alpha  occ. eigenvalues --  -19.19470 -19.19181 -14.42342 -14.41279 -14.38915
 Alpha  occ. eigenvalues --  -14.38903 -10.40391 -10.39184 -10.35672 -10.35363
 Alpha  occ. eigenvalues --  -10.33104 -10.31180 -10.30839 -10.30533 -10.30329
 Alpha  occ. eigenvalues --  -10.29935 -10.29837 -10.29818 -10.29604 -10.29304
 Alpha  occ. eigenvalues --  -10.28517 -10.28419 -10.28397 -10.28111 -10.28055
 Alpha  occ. eigenvalues --  -10.28022 -10.28013 -10.27978 -10.27936 -10.27928
 Alpha  occ. eigenvalues --  -10.27774 -10.27766 -10.26980 -10.26948 -10.26656
 Alpha  occ. eigenvalues --  -10.26513 -10.26493 -10.26492 -10.26259 -10.26059
 Alpha  occ. eigenvalues --  -10.25987 -10.25974 -10.25967 -10.25962 -10.25906
 Alpha  occ. eigenvalues --  -10.25747 -10.25735 -10.25539 -10.25441 -10.25411
 Alpha  occ. eigenvalues --  -10.25347 -10.25295 -10.25270 -10.24834 -10.24732
 Alpha  occ. eigenvalues --  -10.24640 -10.24575 -10.24525 -10.24486 -10.24462
 Alpha  occ. eigenvalues --  -10.24384  -3.16683  -1.91571  -1.91161  -1.90974
 Alpha  occ. eigenvalues --   -1.17514  -1.15133  -1.10722  -1.09817  -1.08920
 Alpha  occ. eigenvalues --   -1.06879  -1.04372  -1.02989  -1.01935  -1.01361
 Alpha  occ. eigenvalues --   -0.92299  -0.90997  -0.90058  -0.89873  -0.89158
 Alpha  occ. eigenvalues --   -0.88380  -0.88159  -0.87136  -0.86736  -0.86265
 Alpha  occ. eigenvalues --   -0.85520  -0.84795  -0.84286  -0.83342  -0.83066
 Alpha  occ. eigenvalues --   -0.82377  -0.82168  -0.81255  -0.80646  -0.80005
 Alpha  occ. eigenvalues --   -0.79681  -0.77877  -0.77518  -0.77084  -0.75950
 Alpha  occ. eigenvalues --   -0.75778  -0.75081  -0.74908  -0.74382  -0.74312
 Alpha  occ. eigenvalues --   -0.73781  -0.71939  -0.71074  -0.70423  -0.68766
 Alpha  occ. eigenvalues --   -0.68249  -0.68023  -0.67298  -0.66613  -0.66027
 Alpha  occ. eigenvalues --   -0.65619  -0.65071  -0.64359  -0.64125  -0.63922
 Alpha  occ. eigenvalues --   -0.63645  -0.63187  -0.63031  -0.61349  -0.60409
 Alpha  occ. eigenvalues --   -0.60016  -0.58981  -0.58865  -0.58175  -0.57727
 Alpha  occ. eigenvalues --   -0.57372  -0.57120  -0.56102  -0.55847  -0.55714
 Alpha  occ. eigenvalues --   -0.54978  -0.54580  -0.54159  -0.53919  -0.53843
 Alpha  occ. eigenvalues --   -0.53560  -0.53187  -0.53029  -0.52959  -0.52864
 Alpha  occ. eigenvalues --   -0.52627  -0.52379  -0.52143  -0.51992  -0.51902
 Alpha  occ. eigenvalues --   -0.51560  -0.51294  -0.51078  -0.50773  -0.50651
 Alpha  occ. eigenvalues --   -0.50333  -0.50088  -0.49975  -0.49818  -0.49539
 Alpha  occ. eigenvalues --   -0.49502  -0.49280  -0.49178  -0.48679  -0.48650
 Alpha  occ. eigenvalues --   -0.48510  -0.48317  -0.48245  -0.48124  -0.47602
 Alpha  occ. eigenvalues --   -0.47474  -0.47383  -0.47267  -0.46734  -0.46549
 Alpha  occ. eigenvalues --   -0.46389  -0.46043  -0.45926  -0.45709  -0.45547
 Alpha  occ. eigenvalues --   -0.45421  -0.45180  -0.45078  -0.45045  -0.44494
 Alpha  occ. eigenvalues --   -0.44454  -0.44296  -0.44221  -0.44173  -0.44157
 Alpha  occ. eigenvalues --   -0.43859  -0.43608  -0.43461  -0.43375  -0.43045
 Alpha  occ. eigenvalues --   -0.42834  -0.42528  -0.42380  -0.42291  -0.41923
 Alpha  occ. eigenvalues --   -0.41889  -0.41695  -0.41348  -0.41241  -0.41166
 Alpha  occ. eigenvalues --   -0.40919  -0.40804  -0.40608  -0.40571  -0.40505
 Alpha  occ. eigenvalues --   -0.40339  -0.40191  -0.40067  -0.39338  -0.39076
 Alpha  occ. eigenvalues --   -0.38725  -0.38389  -0.38263  -0.37992  -0.37479
 Alpha  occ. eigenvalues --   -0.37348  -0.36938  -0.36517  -0.36414  -0.36101
 Alpha  occ. eigenvalues --   -0.35659  -0.35610  -0.35022  -0.34459  -0.34428
 Alpha  occ. eigenvalues --   -0.33907  -0.33661  -0.32940  -0.31196  -0.31129
 Alpha  occ. eigenvalues --   -0.31028  -0.30920  -0.29704  -0.29026  -0.23758
 Alpha  occ. eigenvalues --   -0.20587
 Alpha virt. eigenvalues --   -0.08059  -0.01278   0.00651   0.02371   0.02937
 Alpha virt. eigenvalues --    0.03936   0.05119   0.05470   0.05899   0.07237
 Alpha virt. eigenvalues --    0.08145   0.08308   0.08746   0.09055   0.09303

 Mulliken charges:
               1
     1  Mg   0.821416
     2  C    0.019751
     3  C   -0.068664
     4  C   -0.050052
     5  C   -0.102398
     6  N   -0.250166
     7  C   -0.072992
     8  C    0.012892
     9  C   -0.071232
    10  C   -0.022075
    11  C    0.072457
    12  C    0.048545
    13  C    0.076489
    14  C    0.153390
    15  O   -0.245035
    16  O   -0.332395
    17  N   -0.398054
    18  C    0.181448
    19  C   -0.170807
    20  C   -0.060495
    21  C    0.180181
    22  C    0.120969
    23  C    0.019572
    24  O   -0.199169
    25  C    0.052269
    26  N   -0.317246
    27  C   -0.011941
    28  C   -0.009637
    29  C    0.000672
    30  C    0.091548
    31  C    0.054255
    32  C    0.025024
    33  C   -0.007526
    34  N   -0.364075
    35  C    0.078887
    36  C   -0.200228
    37  C   -0.063938
    38  C    0.151786
    39  C    0.125001
    40  C    0.098979
    41  O   -0.133130
    42  C   -0.054151
    43  C    0.181371
    44  O   -0.207349
    45  O   -0.342415
    46  C    0.175636
    47  C    0.277356
    48  C   -0.106483
    49  C   -0.208448
    50  C    0.071832
    51  C    0.098604
    52  C    0.021471
    53  C    0.024634
    54  C   -0.127377
    55  C    0.022636
    56  C    0.054344
    57  C   -0.009376
    58  C    0.057248
    59  C   -0.114447
    60  C    0.031334
    61  C    0.088562
    62  C   -0.010000
    63  C    0.084836
    64  C   -0.156218
    65  C    0.047392
    66  C    0.012498
    67  H   -0.039433
    68  H   -0.017881
    69  H   -0.041618
    70  H    0.041866
    71  H    0.011863
    72  H    0.033586
    73  H    0.033757
    74  H    0.018728
    75  H    0.009932
    76  H    0.027584
    77  H    0.022396
    78  H    0.023837
    79  H    0.057329
    80  H    0.026424
    81  H    0.017092
    82  H    0.056015
    83  H    0.021672
    84  H    0.021788
    85  H    0.015943
    86  H    0.010102
    87  H    0.024744
    88  H    0.022730
    89  H   -0.002985
    90  H    0.026952
    91  H    0.005266
    92  H    0.015096
    93  H    0.016686
    94  H    0.032825
    95  H    0.040387
    96  H    0.032258
    97  H    0.019496
    98  H    0.041963
    99  H    0.039015
   100  H    0.028827
   101  H    0.029701
   102  H    0.017482
   103  H    0.047926
   104  H   -0.010163
   105  H    0.033933
   106  H    0.017163
   107  H    0.010885
   108  H    0.010466
   109  H   -0.000501
   110  H    0.013100
   111  H    0.012817
   112  H    0.007519
   113  H   -0.006166
   114  H   -0.002638
   115  H    0.010457
   116  H    0.011514
   117  H    0.010818
   118  H    0.014819
   119  H   -0.015453
   120  H    0.007134
   121  H   -0.018782
   122  H   -0.018293
   123  H   -0.021247
   124  H   -0.006185
   125  H    0.015747
   126  H    0.000909
   127  H    0.004144
   128  H   -0.018673
   129  H   -0.008555
   130  H   -0.007116
   131  H   -0.003707
   132  H   -0.010753
   133  H   -0.008368
   134  H    0.001716
   135  H    0.021318
   136  H   -0.001802
   137  H   -0.001214
   138  H   -0.001957
   139  H    0.000121
   140  H    0.019874
 Sum of Mulliken charges =  -0.00000

 Dipole moment (field-independent basis, Debye):
    X=             -4.9926    Y=              2.3068    Z=              3.7640  Tot=              6.6644
 Quadrupole moment (field-independent basis, Debye-Ang):
   XX=           -376.6585   YY=           -423.8948   ZZ=           -411.5463
   XY=             29.1929   XZ=              5.8219   YZ=            -12.6491

 Normal termination of Gaussian 16 at Wed May  4 10:58:43 2022.
