 Gaussian 16, Revision A.03,
 Gaussian 16:  ES64L-G16RevA.03 25-Dec-2016

 ---------------------------------
 #p PBE1PBE/Def2SVP td=(nstates=5)
 ---------------------------------

 -----------------------------------------------------
 step_1651_chromophore_3 TDDFT with PBE1PBE functional
 -----------------------------------------------------
 Symbolic Z-matrix:
 Charge =  0 Multiplicity = 1

                         Standard orientation:
 ---------------------------------------------------------------------
 Center     Atomic      Atomic             Coordinates (Angstroms)
 Number     Number       Type             X           Y           Z
 ---------------------------------------------------------------------
      1         12           0        5.179395    0.938948    0.207680
      2          6           0        4.096498   -2.409620   -0.102065
      3          6           0        1.832017    1.897138    0.103640
      4          6           0        6.120957    4.085595    0.161877
      5          6           0        8.427018   -0.104096   -0.027116
      6          7           0        3.205129   -0.165583   -0.085429
      7          6           0        2.974054   -1.523455   -0.037457
      8          6           0        1.467976   -1.886633   -0.009587
      9          6           0        0.740329   -0.525615   -0.076434
     10          6           0        2.013282    0.487905   -0.055846
     11          6           0       -0.119810   -0.178750   -1.329415
     12          6           0        1.119498   -2.779236    1.227940
     13          6           0        0.315313   -4.023663    0.944757
     14          6           0       -0.950791   -3.812172    0.040483
     15          8           0       -0.946972   -3.945641   -1.178391
     16          8           0       -2.051859   -3.454699    0.778924
     17          7           0        4.136466    2.760933    0.037408
     18          6           0        2.752876    2.934691    0.056016
     19          6           0        2.423743    4.351594    0.081200
     20          6           0        3.706453    5.006314    0.123689
     21          6           0        4.756979    3.993277    0.164821
     22          6           0        0.970583    4.881509    0.311310
     23          6           0        4.038035    6.533963    0.359148
     24          8           0        5.175065    6.961244    0.548856
     25          6           0        2.912447    7.484330    0.336017
     26          7           0        6.964546    1.839410   -0.150119
     27          6           0        7.143465    3.141553    0.049632
     28          6           0        8.658878    3.569915    0.042639
     29          6           0        9.339431    2.213959    0.029283
     30          6           0        8.191629    1.234957   -0.036056
     31          6           0        8.999299    4.480641   -1.182056
     32          6           0       10.415961    1.879749    1.159217
     33          6           0       11.772979    1.494787    0.492184
     34          7           0        6.158588   -0.892124    0.168877
     35          6           0        7.489375   -1.207246    0.054452
     36          6           0        7.627478   -2.701288    0.084901
     37          6           0        6.287480   -3.205687   -0.025605
     38          6           0        5.457504   -2.065834    0.010233
     39          6           0        8.962400   -3.451878    0.010389
     40          6           0        5.455923   -4.464569   -0.180715
     41          8           0        5.782055   -5.614067   -0.359599
     42          6           0        4.004176   -3.927162   -0.161828
     43          6           0        3.267159   -4.528997   -1.323243
     44          8           0        3.084447   -4.020102   -2.424144
     45          8           0        2.856475   -5.828391   -1.023852
     46          6           0        1.860357   -6.421871   -1.888190
     47          6           0       -3.273342   -3.430967   -0.004228
     48          6           0       -4.556039   -3.360724    0.917122
     49          6           0       -5.670191   -4.083448    1.080482
     50          6           0       -6.079013   -5.192982    0.130733
     51          6           0       -6.763177   -3.747373    2.117704
     52          6           0       -7.831828   -2.838715    1.496734
     53          6           0       -7.967551   -1.574633    2.362310
     54          6           0       -9.355249   -0.884106    2.259863
     55          6           0       -9.553400    0.368514    3.280347
     56          6           0       -9.475249   -0.376274    0.738096
     57          6           0      -10.736442   -1.088853    0.146499
     58          6           0      -11.061839   -0.599667   -1.288057
     59          6           0      -12.150844    0.496512   -1.349900
     60          6           0      -13.033168    0.195388   -2.651545
     61          6           0      -11.594549    1.899133   -1.513347
     62          6           0      -12.033106    2.800281   -0.366949
     63          6           0      -11.895723    4.311098   -0.694431
     64          6           0      -10.468134    4.856999   -0.541719
     65          6           0      -10.403410    6.026660    0.517369
     66          6           0      -10.059705    5.485772   -1.960021
     67          1           0        0.769810    2.147632    0.119570
     68          1           0        6.624178    5.054234    0.173098
     69          1           0        9.454432   -0.469069    0.024547
     70          1           0        1.356090   -2.465284   -0.927203
     71          1           0        0.235267   -0.350341    0.873887
     72          1           0       -0.423221   -1.110101   -1.808139
     73          1           0        0.564776    0.376671   -1.971346
     74          1           0       -1.007490    0.400021   -1.074637
     75          1           0        0.434245   -2.231750    1.875403
     76          1           0        1.950121   -3.115285    1.848835
     77          1           0        0.092869   -4.416160    1.936655
     78          1           0        0.866385   -4.779240    0.384895
     79          1           0        0.857207    5.031670    1.385451
     80          1           0        0.240282    4.241719   -0.183252
     81          1           0        0.918377    5.809653   -0.258216
     82          1           0        2.446986    7.569493   -0.645797
     83          1           0        3.233645    8.451201    0.723374
     84          1           0        2.198835    7.152642    1.090753
     85          1           0        8.777124    4.127049    0.972194
     86          1           0        9.847247    2.094281   -0.927924
     87          1           0        8.931325    5.559154   -1.045927
     88          1           0        8.594624    4.225819   -2.162219
     89          1           0       10.063841    4.416814   -1.406147
     90          1           0       10.079783    1.102666    1.845736
     91          1           0       10.595403    2.843781    1.634820
     92          1           0       12.245407    0.790900    1.176931
     93          1           0       12.400559    2.386194    0.532987
     94          1           0       11.570874    1.154036   -0.523023
     95          1           0        8.849313   -4.308341   -0.654963
     96          1           0        9.073601   -3.804506    1.035766
     97          1           0        9.722342   -2.740192   -0.311153
     98          1           0        3.476640   -4.387791    0.673483
     99          1           0        2.021656   -6.216604   -2.946995
    100          1           0        0.847683   -6.090719   -1.660729
    101          1           0        1.891583   -7.506687   -1.789033
    102          1           0       -3.144549   -4.461241   -0.336760
    103          1           0       -3.246783   -2.695577   -0.808495
    104          1           0       -4.452268   -2.618823    1.708964
    105          1           0       -5.836655   -6.180246    0.524402
    106          1           0       -5.624902   -5.048084   -0.849037
    107          1           0       -7.155315   -5.103704   -0.024231
    108          1           0       -6.298924   -3.301295    2.996551
    109          1           0       -7.213186   -4.691822    2.424856
    110          1           0       -8.771264   -3.385211    1.406112
    111          1           0       -7.516111   -2.474427    0.519306
    112          1           0       -7.173577   -0.877822    2.090392
    113          1           0       -7.879861   -1.897072    3.399257
    114          1           0      -10.231219   -1.482052    2.508066
    115          1           0       -8.901410    1.172109    2.936799
    116          1           0       -9.339291   -0.032286    4.271208
    117          1           0      -10.549283    0.809689    3.327193
    118          1           0       -8.549765   -0.407466    0.161774
    119          1           0       -9.858528    0.632585    0.886849
    120          1           0      -11.562163   -1.244122    0.841195
    121          1           0      -10.432281   -2.120166   -0.034244
    122          1           0      -11.350712   -1.433089   -1.928458
    123          1           0      -10.198892   -0.189712   -1.811513
    124          1           0      -12.701268    0.294901   -0.431165
    125          1           0      -13.635708    1.057251   -2.937614
    126          1           0      -13.638484   -0.704116   -2.542321
    127          1           0      -12.365653   -0.107944   -3.458115
    128          1           0      -11.961513    2.341458   -2.439064
    129          1           0      -10.516332    1.918347   -1.668684
    130          1           0      -11.370869    2.534341    0.456941
    131          1           0      -13.041530    2.644115    0.015810
    132          1           0      -12.638345    4.844912   -0.102021
    133          1           0      -12.174692    4.466817   -1.736886
    134          1           0       -9.693245    4.148964   -0.247795
    135          1           0      -11.340910    6.577450    0.580491
    136          1           0       -9.539776    6.665330    0.329452
    137          1           0      -10.070844    5.528478    1.427666
    138          1           0      -10.218277    4.690592   -2.689282
    139          1           0       -8.989359    5.660147   -2.077354
    140          1           0      -10.631550    6.372330   -2.235275
 ---------------------------------------------------------------------

 SCF Done:  E(RPBE1PBE) =  -3005.36393380     A.U. after   16 cycles

 Excitation energies and oscillator strengths:

 Excited State   1:      Singlet-A      1.8683 eV  663.61 nm  f=0.3858  <S**2>=0.000
     245 -> 248       -0.17755
     246 -> 247        0.69281
     246 <- 247       -0.10741
 This state for optimization and/or second-order correction.
 Total Energy, E(TD-HF/TD-DFT) =  -3005.29527435
 Copying the excited state density for this state as the 1-particle RhoCI density.

 Excited State   2:      Singlet-A      2.2597 eV  548.68 nm  f=0.0902  <S**2>=0.000
     245 -> 247        0.64497
     246 -> 248        0.27885

 Excited State   3:      Singlet-A      3.0943 eV  400.69 nm  f=0.0015  <S**2>=0.000
     243 -> 247       -0.24830
     244 -> 247        0.65148

 Excited State   4:      Singlet-A      3.1852 eV  389.25 nm  f=0.0015  <S**2>=0.000
     242 -> 247        0.58185
     242 -> 249       -0.14116
     242 -> 250        0.10914
     243 -> 247        0.27655
     244 -> 247        0.17773

 Excited State   5:      Singlet-A      3.2139 eV  385.77 nm  f=0.0155  <S**2>=0.000
     242 -> 247       -0.33264
     243 -> 247        0.52025
     244 -> 247        0.17705
     246 -> 248       -0.26386

 The electronic state is 1-A.
 Alpha  occ. eigenvalues --  -46.91511 -19.26612 -19.24795 -19.21482 -19.19808
 Alpha  occ. eigenvalues --  -19.19798 -19.19211 -14.41769 -14.40860 -14.38717
 Alpha  occ. eigenvalues --  -14.38525 -10.37467 -10.36252 -10.32964 -10.32322
 Alpha  occ. eigenvalues --  -10.30492 -10.28826 -10.28808 -10.28079 -10.27703
 Alpha  occ. eigenvalues --  -10.27655 -10.27606 -10.27346 -10.27290 -10.26686
 Alpha  occ. eigenvalues --  -10.26367 -10.26273 -10.26123 -10.26070 -10.25961
 Alpha  occ. eigenvalues --  -10.25866 -10.25808 -10.25595 -10.25439 -10.25425
 Alpha  occ. eigenvalues --  -10.25258 -10.25242 -10.24893 -10.24430 -10.24413
 Alpha  occ. eigenvalues --  -10.24246 -10.24063 -10.24055 -10.23930 -10.23776
 Alpha  occ. eigenvalues --  -10.23535 -10.23418 -10.23391 -10.23384 -10.23382
 Alpha  occ. eigenvalues --  -10.23339 -10.23308 -10.23110 -10.23110 -10.23057
 Alpha  occ. eigenvalues --  -10.23039 -10.22862 -10.22697 -10.22496 -10.22247
 Alpha  occ. eigenvalues --  -10.22117 -10.22059 -10.22046 -10.21926 -10.21907
 Alpha  occ. eigenvalues --  -10.21841  -3.13692  -1.86521  -1.86090  -1.85907
 Alpha  occ. eigenvalues --   -1.12336  -1.09930  -1.05604  -1.04367  -1.03796
 Alpha  occ. eigenvalues --   -1.01744  -0.99026  -0.97603  -0.96696  -0.95935
 Alpha  occ. eigenvalues --   -0.86746  -0.85108  -0.84266  -0.83955  -0.83491
 Alpha  occ. eigenvalues --   -0.82470  -0.82417  -0.81231  -0.81046  -0.80345
 Alpha  occ. eigenvalues --   -0.79729  -0.79290  -0.78454  -0.77716  -0.77330
 Alpha  occ. eigenvalues --   -0.76549  -0.76221  -0.75515  -0.74976  -0.74320
 Alpha  occ. eigenvalues --   -0.73828  -0.72024  -0.71830  -0.71441  -0.70193
 Alpha  occ. eigenvalues --   -0.70071  -0.69273  -0.69139  -0.68588  -0.68452
 Alpha  occ. eigenvalues --   -0.68001  -0.66464  -0.65525  -0.64730  -0.63156
 Alpha  occ. eigenvalues --   -0.62621  -0.62446  -0.61497  -0.60962  -0.60190
 Alpha  occ. eigenvalues --   -0.60057  -0.59498  -0.58902  -0.58539  -0.58255
 Alpha  occ. eigenvalues --   -0.58158  -0.57333  -0.57196  -0.56004  -0.54789
 Alpha  occ. eigenvalues --   -0.54458  -0.53552  -0.53431  -0.52824  -0.52279
 Alpha  occ. eigenvalues --   -0.51766  -0.51633  -0.50698  -0.50363  -0.50190
 Alpha  occ. eigenvalues --   -0.49560  -0.49027  -0.48728  -0.48483  -0.48326
 Alpha  occ. eigenvalues --   -0.48115  -0.47756  -0.47432  -0.47306  -0.47295
 Alpha  occ. eigenvalues --   -0.47213  -0.47000  -0.46769  -0.46544  -0.46429
 Alpha  occ. eigenvalues --   -0.46046  -0.45776  -0.45544  -0.45377  -0.45220
 Alpha  occ. eigenvalues --   -0.44953  -0.44650  -0.44591  -0.44389  -0.44150
 Alpha  occ. eigenvalues --   -0.44039  -0.43948  -0.43753  -0.43299  -0.43213
 Alpha  occ. eigenvalues --   -0.43080  -0.42957  -0.42862  -0.42602  -0.42199
 Alpha  occ. eigenvalues --   -0.42123  -0.42044  -0.41782  -0.41301  -0.41173
 Alpha  occ. eigenvalues --   -0.41111  -0.40686  -0.40593  -0.40400  -0.40350
 Alpha  occ. eigenvalues --   -0.40136  -0.39983  -0.39853  -0.39736  -0.39318
 Alpha  occ. eigenvalues --   -0.39295  -0.39022  -0.38982  -0.38934  -0.38784
 Alpha  occ. eigenvalues --   -0.38728  -0.38353  -0.38251  -0.38189  -0.37847
 Alpha  occ. eigenvalues --   -0.37600  -0.37248  -0.37215  -0.37073  -0.36791
 Alpha  occ. eigenvalues --   -0.36686  -0.36482  -0.36181  -0.36058  -0.35962
 Alpha  occ. eigenvalues --   -0.35684  -0.35650  -0.35529  -0.35474  -0.35233
 Alpha  occ. eigenvalues --   -0.35180  -0.35083  -0.34818  -0.34327  -0.33843
 Alpha  occ. eigenvalues --   -0.33759  -0.33210  -0.32997  -0.32873  -0.32438
 Alpha  occ. eigenvalues --   -0.32338  -0.31995  -0.31495  -0.31386  -0.30967
 Alpha  occ. eigenvalues --   -0.30602  -0.30500  -0.29937  -0.29635  -0.29343
 Alpha  occ. eigenvalues --   -0.29049  -0.28678  -0.28273  -0.26608  -0.26449
 Alpha  occ. eigenvalues --   -0.26084  -0.25662  -0.25213  -0.24837  -0.20648
 Alpha  occ. eigenvalues --   -0.18238
 Alpha virt. eigenvalues --   -0.10595  -0.04775  -0.03623  -0.01969  -0.00691
 Alpha virt. eigenvalues --    0.00152   0.00460   0.00925   0.01536   0.03282
 Alpha virt. eigenvalues --    0.04235   0.05060   0.05126   0.05578   0.05947

 Mulliken charges:
               1
     1  Mg   0.972581
     2  C    0.010961
     3  C   -0.061769
     4  C   -0.048711
     5  C   -0.098404
     6  N   -0.351195
     7  C    0.006784
     8  C   -0.057310
     9  C   -0.143413
    10  C    0.015381
    11  C    0.012865
    12  C   -0.003107
    13  C   -0.004267
    14  C    0.215688
    15  O   -0.276132
    16  O   -0.361938
    17  N   -0.506441
    18  C    0.197274
    19  C   -0.191935
    20  C   -0.100561
    21  C    0.205948
    22  C    0.054693
    23  C    0.070947
    24  O   -0.238016
    25  C   -0.023546
    26  N   -0.423229
    27  C    0.024530
    28  C   -0.093122
    29  C   -0.067463
    30  C    0.119189
    31  C   -0.002060
    32  C   -0.038843
    33  C   -0.080828
    34  N   -0.485077
    35  C    0.107033
    36  C   -0.214444
    37  C   -0.105191
    38  C    0.185912
    39  C    0.066892
    40  C    0.196268
    41  O   -0.179217
    42  C   -0.157440
    43  C    0.266133
    44  O   -0.242736
    45  O   -0.373684
    46  C    0.119728
    47  C    0.236568
    48  C   -0.111178
    49  C   -0.260217
    50  C    0.010572
    51  C    0.034938
    52  C   -0.037209
    53  C   -0.036243
    54  C   -0.203357
    55  C   -0.041162
    56  C   -0.012976
    57  C   -0.076409
    58  C    0.011900
    59  C   -0.201350
    60  C   -0.033254
    61  C    0.040418
    62  C   -0.080875
    63  C    0.031086
    64  C   -0.245783
    65  C   -0.012309
    66  C   -0.053959
    67  H   -0.007299
    68  H    0.015872
    69  H   -0.005240
    70  H    0.082353
    71  H    0.048112
    72  H    0.061517
    73  H    0.062536
    74  H    0.045534
    75  H    0.043411
    76  H    0.058794
    77  H    0.054541
    78  H    0.063408
    79  H    0.083419
    80  H    0.052041
    81  H    0.045438
    82  H    0.081157
    83  H    0.048911
    84  H    0.049977
    85  H    0.052252
    86  H    0.048837
    87  H    0.051492
    88  H    0.049870
    89  H    0.025636
    90  H    0.058106
    91  H    0.040534
    92  H    0.043513
    93  H    0.045415
    94  H    0.057971
    95  H    0.068983
    96  H    0.062344
    97  H    0.047434
    98  H    0.079932
    99  H    0.060769
   100  H    0.051978
   101  H    0.052094
   102  H    0.045542
   103  H    0.073013
   104  H    0.020004
   105  H    0.061610
   106  H    0.044350
   107  H    0.039020
   108  H    0.041125
   109  H    0.033472
   110  H    0.044078
   111  H    0.046166
   112  H    0.040485
   113  H    0.027553
   114  H    0.034067
   115  H    0.037981
   116  H    0.039592
   117  H    0.039080
   118  H    0.044051
   119  H    0.029926
   120  H    0.036625
   121  H    0.017913
   122  H    0.014049
   123  H    0.011351
   124  H    0.030908
   125  H    0.043677
   126  H    0.029932
   127  H    0.032318
   128  H    0.013140
   129  H    0.022206
   130  H    0.030665
   131  H    0.028517
   132  H    0.021080
   133  H    0.024893
   134  H    0.036905
   135  H    0.047122
   136  H    0.026519
   137  H    0.027535
   138  H    0.027905
   139  H    0.028666
   140  H    0.047388
 Sum of Mulliken charges =  -0.00000

 Dipole moment (field-independent basis, Debye):
    X=             -4.6487    Y=              1.8723    Z=              3.7599  Tot=              6.2652
 Quadrupole moment (field-independent basis, Debye-Ang):
   XX=           -367.4886   YY=           -422.1627   ZZ=           -409.1108
   XY=             27.9542   XZ=              5.9123   YZ=            -12.5734

 Normal termination of Gaussian 16 at Wed May  4 11:18:23 2022.
