 Gaussian 16, Revision A.03,
 Gaussian 16:  ES64L-G16RevA.03 25-Dec-2016

 --------------------------------
 #p wB97XD/Def2SVP td=(nstates=5)
 --------------------------------

 ----------------------------------------------------
 step_1651_chromophore_3 TDDFT with wB97XD functional
 ----------------------------------------------------
 Symbolic Z-matrix:
 Charge =  0 Multiplicity = 1

                         Standard orientation:
 ---------------------------------------------------------------------
 Center     Atomic      Atomic             Coordinates (Angstroms)
 Number     Number       Type             X           Y           Z
 ---------------------------------------------------------------------
      1         12           0        5.179395    0.938948    0.207680
      2          6           0        4.096498   -2.409620   -0.102065
      3          6           0        1.832017    1.897138    0.103640
      4          6           0        6.120957    4.085595    0.161877
      5          6           0        8.427018   -0.104096   -0.027116
      6          7           0        3.205129   -0.165583   -0.085429
      7          6           0        2.974054   -1.523455   -0.037457
      8          6           0        1.467976   -1.886633   -0.009587
      9          6           0        0.740329   -0.525615   -0.076434
     10          6           0        2.013282    0.487905   -0.055846
     11          6           0       -0.119810   -0.178750   -1.329415
     12          6           0        1.119498   -2.779236    1.227940
     13          6           0        0.315313   -4.023663    0.944757
     14          6           0       -0.950791   -3.812172    0.040483
     15          8           0       -0.946972   -3.945641   -1.178391
     16          8           0       -2.051859   -3.454699    0.778924
     17          7           0        4.136466    2.760933    0.037408
     18          6           0        2.752876    2.934691    0.056016
     19          6           0        2.423743    4.351594    0.081200
     20          6           0        3.706453    5.006314    0.123689
     21          6           0        4.756979    3.993277    0.164821
     22          6           0        0.970583    4.881509    0.311310
     23          6           0        4.038035    6.533963    0.359148
     24          8           0        5.175065    6.961244    0.548856
     25          6           0        2.912447    7.484330    0.336017
     26          7           0        6.964546    1.839410   -0.150119
     27          6           0        7.143465    3.141553    0.049632
     28          6           0        8.658878    3.569915    0.042639
     29          6           0        9.339431    2.213959    0.029283
     30          6           0        8.191629    1.234957   -0.036056
     31          6           0        8.999299    4.480641   -1.182056
     32          6           0       10.415961    1.879749    1.159217
     33          6           0       11.772979    1.494787    0.492184
     34          7           0        6.158588   -0.892124    0.168877
     35          6           0        7.489375   -1.207246    0.054452
     36          6           0        7.627478   -2.701288    0.084901
     37          6           0        6.287480   -3.205687   -0.025605
     38          6           0        5.457504   -2.065834    0.010233
     39          6           0        8.962400   -3.451878    0.010389
     40          6           0        5.455923   -4.464569   -0.180715
     41          8           0        5.782055   -5.614067   -0.359599
     42          6           0        4.004176   -3.927162   -0.161828
     43          6           0        3.267159   -4.528997   -1.323243
     44          8           0        3.084447   -4.020102   -2.424144
     45          8           0        2.856475   -5.828391   -1.023852
     46          6           0        1.860357   -6.421871   -1.888190
     47          6           0       -3.273342   -3.430967   -0.004228
     48          6           0       -4.556039   -3.360724    0.917122
     49          6           0       -5.670191   -4.083448    1.080482
     50          6           0       -6.079013   -5.192982    0.130733
     51          6           0       -6.763177   -3.747373    2.117704
     52          6           0       -7.831828   -2.838715    1.496734
     53          6           0       -7.967551   -1.574633    2.362310
     54          6           0       -9.355249   -0.884106    2.259863
     55          6           0       -9.553400    0.368514    3.280347
     56          6           0       -9.475249   -0.376274    0.738096
     57          6           0      -10.736442   -1.088853    0.146499
     58          6           0      -11.061839   -0.599667   -1.288057
     59          6           0      -12.150844    0.496512   -1.349900
     60          6           0      -13.033168    0.195388   -2.651545
     61          6           0      -11.594549    1.899133   -1.513347
     62          6           0      -12.033106    2.800281   -0.366949
     63          6           0      -11.895723    4.311098   -0.694431
     64          6           0      -10.468134    4.856999   -0.541719
     65          6           0      -10.403410    6.026660    0.517369
     66          6           0      -10.059705    5.485772   -1.960021
     67          1           0        0.769810    2.147632    0.119570
     68          1           0        6.624178    5.054234    0.173098
     69          1           0        9.454432   -0.469069    0.024547
     70          1           0        1.356090   -2.465284   -0.927203
     71          1           0        0.235267   -0.350341    0.873887
     72          1           0       -0.423221   -1.110101   -1.808139
     73          1           0        0.564776    0.376671   -1.971346
     74          1           0       -1.007490    0.400021   -1.074637
     75          1           0        0.434245   -2.231750    1.875403
     76          1           0        1.950121   -3.115285    1.848835
     77          1           0        0.092869   -4.416160    1.936655
     78          1           0        0.866385   -4.779240    0.384895
     79          1           0        0.857207    5.031670    1.385451
     80          1           0        0.240282    4.241719   -0.183252
     81          1           0        0.918377    5.809653   -0.258216
     82          1           0        2.446986    7.569493   -0.645797
     83          1           0        3.233645    8.451201    0.723374
     84          1           0        2.198835    7.152642    1.090753
     85          1           0        8.777124    4.127049    0.972194
     86          1           0        9.847247    2.094281   -0.927924
     87          1           0        8.931325    5.559154   -1.045927
     88          1           0        8.594624    4.225819   -2.162219
     89          1           0       10.063841    4.416814   -1.406147
     90          1           0       10.079783    1.102666    1.845736
     91          1           0       10.595403    2.843781    1.634820
     92          1           0       12.245407    0.790900    1.176931
     93          1           0       12.400559    2.386194    0.532987
     94          1           0       11.570874    1.154036   -0.523023
     95          1           0        8.849313   -4.308341   -0.654963
     96          1           0        9.073601   -3.804506    1.035766
     97          1           0        9.722342   -2.740192   -0.311153
     98          1           0        3.476640   -4.387791    0.673483
     99          1           0        2.021656   -6.216604   -2.946995
    100          1           0        0.847683   -6.090719   -1.660729
    101          1           0        1.891583   -7.506687   -1.789033
    102          1           0       -3.144549   -4.461241   -0.336760
    103          1           0       -3.246783   -2.695577   -0.808495
    104          1           0       -4.452268   -2.618823    1.708964
    105          1           0       -5.836655   -6.180246    0.524402
    106          1           0       -5.624902   -5.048084   -0.849037
    107          1           0       -7.155315   -5.103704   -0.024231
    108          1           0       -6.298924   -3.301295    2.996551
    109          1           0       -7.213186   -4.691822    2.424856
    110          1           0       -8.771264   -3.385211    1.406112
    111          1           0       -7.516111   -2.474427    0.519306
    112          1           0       -7.173577   -0.877822    2.090392
    113          1           0       -7.879861   -1.897072    3.399257
    114          1           0      -10.231219   -1.482052    2.508066
    115          1           0       -8.901410    1.172109    2.936799
    116          1           0       -9.339291   -0.032286    4.271208
    117          1           0      -10.549283    0.809689    3.327193
    118          1           0       -8.549765   -0.407466    0.161774
    119          1           0       -9.858528    0.632585    0.886849
    120          1           0      -11.562163   -1.244122    0.841195
    121          1           0      -10.432281   -2.120166   -0.034244
    122          1           0      -11.350712   -1.433089   -1.928458
    123          1           0      -10.198892   -0.189712   -1.811513
    124          1           0      -12.701268    0.294901   -0.431165
    125          1           0      -13.635708    1.057251   -2.937614
    126          1           0      -13.638484   -0.704116   -2.542321
    127          1           0      -12.365653   -0.107944   -3.458115
    128          1           0      -11.961513    2.341458   -2.439064
    129          1           0      -10.516332    1.918347   -1.668684
    130          1           0      -11.370869    2.534341    0.456941
    131          1           0      -13.041530    2.644115    0.015810
    132          1           0      -12.638345    4.844912   -0.102021
    133          1           0      -12.174692    4.466817   -1.736886
    134          1           0       -9.693245    4.148964   -0.247795
    135          1           0      -11.340910    6.577450    0.580491
    136          1           0       -9.539776    6.665330    0.329452
    137          1           0      -10.070844    5.528478    1.427666
    138          1           0      -10.218277    4.690592   -2.689282
    139          1           0       -8.989359    5.660147   -2.077354
    140          1           0      -10.631550    6.372330   -2.235275
 ---------------------------------------------------------------------

 SCF Done:  E(RwB97XD) =  -3007.87745567     A.U. after   17 cycles

 Excitation energies and oscillator strengths:

 Excited State   1:      Singlet-A      1.6740 eV  740.65 nm  f=0.3924  <S**2>=0.000
     245 -> 248       -0.18751
     246 -> 247        0.68307
     245 <- 248       -0.11616
 This state for optimization and/or second-order correction.
 Total Energy, E(TD-HF/TD-DFT) =  -3007.81593748
 Copying the excited state density for this state as the 1-particle RhoCI density.

 Excited State   2:      Singlet-A      2.2161 eV  559.48 nm  f=0.0898  <S**2>=0.000
     245 -> 247        0.62937
     246 -> 248        0.30584

 Excited State   3:      Singlet-A      3.4142 eV  363.15 nm  f=0.1473  <S**2>=0.000
     243 -> 247        0.51234
     244 -> 247       -0.26282
     245 -> 247        0.12049
     246 -> 248       -0.35722

 Excited State   4:      Singlet-A      3.5327 eV  350.96 nm  f=0.2448  <S**2>=0.000
     244 -> 247        0.53432
     245 -> 247        0.17039
     246 -> 248       -0.40256

 Excited State   5:      Singlet-A      3.7020 eV  334.91 nm  f=0.0639  <S**2>=0.000
     239 -> 247        0.11741
     239 -> 249       -0.10006
     241 -> 247        0.38218
     241 -> 249       -0.22624
     241 -> 250        0.15585
     242 -> 247       -0.34148
     242 -> 249        0.18718
     242 -> 250       -0.14580
     243 -> 247       -0.11366
     246 -> 248       -0.11361

 The electronic state is 1-A.
 Alpha  occ. eigenvalues --  -46.94440 -19.31151 -19.29314 -19.26109 -19.24487
 Alpha  occ. eigenvalues --  -19.24465 -19.24252 -14.46965 -14.45855 -14.43550
 Alpha  occ. eigenvalues --  -14.43503 -10.44213 -10.43041 -10.39674 -10.39378
 Alpha  occ. eigenvalues --  -10.36991 -10.35267 -10.34844 -10.34592 -10.34076
 Alpha  occ. eigenvalues --  -10.34039 -10.33941 -10.33787 -10.33592 -10.33550
 Alpha  occ. eigenvalues --  -10.32583 -10.32465 -10.32358 -10.32196 -10.32179
 Alpha  occ. eigenvalues --  -10.32073 -10.32064 -10.32016 -10.31950 -10.31938
 Alpha  occ. eigenvalues --  -10.31845 -10.31742 -10.31057 -10.31015 -10.30681
 Alpha  occ. eigenvalues --  -10.30454 -10.30451 -10.30445 -10.30221 -10.29953
 Alpha  occ. eigenvalues --  -10.29922 -10.29882 -10.29882 -10.29838 -10.29788
 Alpha  occ. eigenvalues --  -10.29684 -10.29572 -10.29398 -10.29396 -10.29386
 Alpha  occ. eigenvalues --  -10.29363 -10.29239 -10.29127 -10.28867 -10.28638
 Alpha  occ. eigenvalues --  -10.28495 -10.28493 -10.28416 -10.28370 -10.28305
 Alpha  occ. eigenvalues --  -10.28283  -3.20472  -1.94051  -1.93620  -1.93438
 Alpha  occ. eigenvalues --   -1.19684  -1.17287  -1.12943  -1.12075  -1.11109
 Alpha  occ. eigenvalues --   -1.09067  -1.06372  -1.04991  -1.03966  -1.03425
 Alpha  occ. eigenvalues --   -0.94259  -0.92797  -0.91891  -0.91637  -0.91035
 Alpha  occ. eigenvalues --   -0.90161  -0.90105  -0.88914  -0.88661  -0.88239
 Alpha  occ. eigenvalues --   -0.87425  -0.86697  -0.86121  -0.85266  -0.84952
 Alpha  occ. eigenvalues --   -0.84225  -0.84109  -0.83152  -0.82575  -0.81954
 Alpha  occ. eigenvalues --   -0.81516  -0.79890  -0.79413  -0.78991  -0.77809
 Alpha  occ. eigenvalues --   -0.77691  -0.76871  -0.76866  -0.76246  -0.76145
 Alpha  occ. eigenvalues --   -0.75656  -0.73915  -0.73061  -0.72349  -0.70675
 Alpha  occ. eigenvalues --   -0.70144  -0.70011  -0.69161  -0.68618  -0.67861
 Alpha  occ. eigenvalues --   -0.67523  -0.67065  -0.66383  -0.65938  -0.65930
 Alpha  occ. eigenvalues --   -0.65634  -0.65013  -0.64864  -0.63339  -0.62313
 Alpha  occ. eigenvalues --   -0.62033  -0.60954  -0.60850  -0.60162  -0.59671
 Alpha  occ. eigenvalues --   -0.59234  -0.59091  -0.58068  -0.57846  -0.57665
 Alpha  occ. eigenvalues --   -0.56919  -0.56462  -0.56126  -0.55824  -0.55750
 Alpha  occ. eigenvalues --   -0.55486  -0.55140  -0.54978  -0.54840  -0.54725
 Alpha  occ. eigenvalues --   -0.54517  -0.54304  -0.54062  -0.53902  -0.53833
 Alpha  occ. eigenvalues --   -0.53445  -0.53187  -0.53063  -0.52707  -0.52582
 Alpha  occ. eigenvalues --   -0.52242  -0.51971  -0.51878  -0.51791  -0.51454
 Alpha  occ. eigenvalues --   -0.51408  -0.51204  -0.51100  -0.50586  -0.50539
 Alpha  occ. eigenvalues --   -0.50384  -0.50228  -0.50143  -0.50086  -0.49488
 Alpha  occ. eigenvalues --   -0.49427  -0.49305  -0.49252  -0.48579  -0.48409
 Alpha  occ. eigenvalues --   -0.48297  -0.47908  -0.47851  -0.47625  -0.47458
 Alpha  occ. eigenvalues --   -0.47349  -0.47099  -0.46976  -0.46945  -0.46442
 Alpha  occ. eigenvalues --   -0.46374  -0.46178  -0.46138  -0.46119  -0.46007
 Alpha  occ. eigenvalues --   -0.45797  -0.45484  -0.45383  -0.45328  -0.44961
 Alpha  occ. eigenvalues --   -0.44790  -0.44483  -0.44271  -0.44196  -0.43890
 Alpha  occ. eigenvalues --   -0.43825  -0.43612  -0.43261  -0.43102  -0.43059
 Alpha  occ. eigenvalues --   -0.42766  -0.42737  -0.42496  -0.42462  -0.42350
 Alpha  occ. eigenvalues --   -0.42214  -0.42065  -0.41931  -0.41237  -0.40916
 Alpha  occ. eigenvalues --   -0.40625  -0.40240  -0.40092  -0.39879  -0.39444
 Alpha  occ. eigenvalues --   -0.39303  -0.39005  -0.38439  -0.38369  -0.37948
 Alpha  occ. eigenvalues --   -0.37635  -0.37462  -0.36941  -0.36453  -0.36263
 Alpha  occ. eigenvalues --   -0.35931  -0.35504  -0.35105  -0.33270  -0.33220
 Alpha  occ. eigenvalues --   -0.33000  -0.32993  -0.31932  -0.31168  -0.25703
 Alpha  occ. eigenvalues --   -0.22404
 Alpha virt. eigenvalues --   -0.06409   0.00636   0.02700   0.04525   0.05939
 Alpha virt. eigenvalues --    0.06237   0.07268   0.07656   0.08279   0.09882
 Alpha virt. eigenvalues --    0.10801   0.11637   0.11724   0.12278   0.12680

 Mulliken charges:
               1
     1  Mg   0.961542
     2  C    0.011367
     3  C   -0.078373
     4  C   -0.066539
     5  C   -0.111270
     6  N   -0.316435
     7  C   -0.028344
     8  C   -0.031896
     9  C   -0.120354
    10  C    0.004074
    11  C    0.024882
    12  C    0.007841
    13  C    0.026138
    14  C    0.199957
    15  O   -0.271936
    16  O   -0.361737
    17  N   -0.478350
    18  C    0.194634
    19  C   -0.184165
    20  C   -0.098138
    21  C    0.203037
    22  C    0.071356
    23  C    0.068811
    24  O   -0.230334
    25  C   -0.013656
    26  N   -0.393076
    27  C    0.015662
    28  C   -0.066025
    29  C   -0.043370
    30  C    0.113483
    31  C    0.005408
    32  C   -0.023890
    33  C   -0.063498
    34  N   -0.449297
    35  C    0.093108
    36  C   -0.213686
    37  C   -0.103612
    38  C    0.173101
    39  C    0.080636
    40  C    0.177272
    41  O   -0.170487
    42  C   -0.119208
    43  C    0.243081
    44  O   -0.235902
    45  O   -0.371806
    46  C    0.137234
    47  C    0.254083
    48  C   -0.127581
    49  C   -0.237456
    50  C    0.020572
    51  C    0.052923
    52  C   -0.023979
    53  C   -0.014662
    54  C   -0.180362
    55  C   -0.024532
    56  C    0.012374
    57  C   -0.055543
    58  C    0.024089
    59  C   -0.174446
    60  C   -0.015929
    61  C    0.052130
    62  C   -0.055361
    63  C    0.045761
    64  C   -0.222252
    65  C   -0.000320
    66  C   -0.036194
    67  H   -0.014698
    68  H    0.008990
    69  H   -0.016788
    70  H    0.065103
    71  H    0.037878
    72  H    0.056412
    73  H    0.055330
    74  H    0.040577
    75  H    0.034503
    76  H    0.051486
    77  H    0.050756
    78  H    0.043492
    79  H    0.080650
    80  H    0.049142
    81  H    0.039567
    82  H    0.078059
    83  H    0.048675
    84  H    0.043234
    85  H    0.043547
    86  H    0.033856
    87  H    0.046977
    88  H    0.045252
    89  H    0.018958
    90  H    0.050722
    91  H    0.030907
    92  H    0.038255
    93  H    0.039159
    94  H    0.051436
    95  H    0.063597
    96  H    0.055243
    97  H    0.040644
    98  H    0.069611
    99  H    0.056851
   100  H    0.045390
   101  H    0.048617
   102  H    0.037787
   103  H    0.069512
   104  H    0.015724
   105  H    0.057274
   106  H    0.038969
   107  H    0.032719
   108  H    0.032845
   109  H    0.026767
   110  H    0.035694
   111  H    0.033423
   112  H    0.031055
   113  H    0.016903
   114  H    0.022276
   115  H    0.030461
   116  H    0.033465
   117  H    0.032991
   118  H    0.037316
   119  H    0.005454
   120  H    0.029204
   121  H    0.005465
   122  H    0.006371
   123  H    0.001068
   124  H    0.017738
   125  H    0.037453
   126  H    0.023931
   127  H    0.024411
   128  H    0.001317
   129  H    0.012817
   130  H    0.015301
   131  H    0.021651
   132  H    0.014433
   133  H    0.013399
   134  H    0.027495
   135  H    0.041537
   136  H    0.020194
   137  H    0.021153
   138  H    0.018231
   139  H    0.022987
   140  H    0.041268
 Sum of Mulliken charges =  -0.00000

 Dipole moment (field-independent basis, Debye):
    X=             -5.1141    Y=              2.4876    Z=              3.8067  Tot=              6.8435
 Quadrupole moment (field-independent basis, Debye-Ang):
   XX=           -372.3159   YY=           -419.1505   ZZ=           -408.8137
   XY=             29.8684   XZ=              6.0904   YZ=            -12.4843

 Normal termination of Gaussian 16 at Wed May  4 11:54:36 2022.
