 Gaussian 16, Revision A.03,
 Gaussian 16:  ES64L-G16RevA.03 25-Dec-2016

 --------------------
 #p ZINDO=(nstates=5)
 --------------------

 -----------------------------
 step_1651_chromophore_3 ZINDO
 -----------------------------
 Symbolic Z-matrix:
 Charge =  0 Multiplicity = 1

                         Standard orientation:
 ---------------------------------------------------------------------
 Center     Atomic      Atomic             Coordinates (Angstroms)
 Number     Number       Type             X           Y           Z
 ---------------------------------------------------------------------
      1         12           0        5.179395    0.938948    0.207680
      2          6           0        4.096498   -2.409620   -0.102065
      3          6           0        1.832017    1.897138    0.103640
      4          6           0        6.120957    4.085595    0.161877
      5          6           0        8.427018   -0.104096   -0.027116
      6          7           0        3.205129   -0.165583   -0.085429
      7          6           0        2.974054   -1.523455   -0.037457
      8          6           0        1.467976   -1.886633   -0.009587
      9          6           0        0.740329   -0.525615   -0.076434
     10          6           0        2.013282    0.487905   -0.055846
     11          6           0       -0.119810   -0.178750   -1.329415
     12          6           0        1.119498   -2.779236    1.227940
     13          6           0        0.315313   -4.023663    0.944757
     14          6           0       -0.950791   -3.812172    0.040483
     15          8           0       -0.946972   -3.945641   -1.178391
     16          8           0       -2.051859   -3.454699    0.778924
     17          7           0        4.136466    2.760933    0.037408
     18          6           0        2.752876    2.934691    0.056016
     19          6           0        2.423743    4.351594    0.081200
     20          6           0        3.706453    5.006314    0.123689
     21          6           0        4.756979    3.993277    0.164821
     22          6           0        0.970583    4.881509    0.311310
     23          6           0        4.038035    6.533963    0.359148
     24          8           0        5.175065    6.961244    0.548856
     25          6           0        2.912447    7.484330    0.336017
     26          7           0        6.964546    1.839410   -0.150119
     27          6           0        7.143465    3.141553    0.049632
     28          6           0        8.658878    3.569915    0.042639
     29          6           0        9.339431    2.213959    0.029283
     30          6           0        8.191629    1.234957   -0.036056
     31          6           0        8.999299    4.480641   -1.182056
     32          6           0       10.415961    1.879749    1.159217
     33          6           0       11.772979    1.494787    0.492184
     34          7           0        6.158588   -0.892124    0.168877
     35          6           0        7.489375   -1.207246    0.054452
     36          6           0        7.627478   -2.701288    0.084901
     37          6           0        6.287480   -3.205687   -0.025605
     38          6           0        5.457504   -2.065834    0.010233
     39          6           0        8.962400   -3.451878    0.010389
     40          6           0        5.455923   -4.464569   -0.180715
     41          8           0        5.782055   -5.614067   -0.359599
     42          6           0        4.004176   -3.927162   -0.161828
     43          6           0        3.267159   -4.528997   -1.323243
     44          8           0        3.084447   -4.020102   -2.424144
     45          8           0        2.856475   -5.828391   -1.023852
     46          6           0        1.860357   -6.421871   -1.888190
     47          6           0       -3.273342   -3.430967   -0.004228
     48          6           0       -4.556039   -3.360724    0.917122
     49          6           0       -5.670191   -4.083448    1.080482
     50          6           0       -6.079013   -5.192982    0.130733
     51          6           0       -6.763177   -3.747373    2.117704
     52          6           0       -7.831828   -2.838715    1.496734
     53          6           0       -7.967551   -1.574633    2.362310
     54          6           0       -9.355249   -0.884106    2.259863
     55          6           0       -9.553400    0.368514    3.280347
     56          6           0       -9.475249   -0.376274    0.738096
     57          6           0      -10.736442   -1.088853    0.146499
     58          6           0      -11.061839   -0.599667   -1.288057
     59          6           0      -12.150844    0.496512   -1.349900
     60          6           0      -13.033168    0.195388   -2.651545
     61          6           0      -11.594549    1.899133   -1.513347
     62          6           0      -12.033106    2.800281   -0.366949
     63          6           0      -11.895723    4.311098   -0.694431
     64          6           0      -10.468134    4.856999   -0.541719
     65          6           0      -10.403410    6.026660    0.517369
     66          6           0      -10.059705    5.485772   -1.960021
     67          1           0        0.769810    2.147632    0.119570
     68          1           0        6.624178    5.054234    0.173098
     69          1           0        9.454432   -0.469069    0.024547
     70          1           0        1.356090   -2.465284   -0.927203
     71          1           0        0.235267   -0.350341    0.873887
     72          1           0       -0.423221   -1.110101   -1.808139
     73          1           0        0.564776    0.376671   -1.971346
     74          1           0       -1.007490    0.400021   -1.074637
     75          1           0        0.434245   -2.231750    1.875403
     76          1           0        1.950121   -3.115285    1.848835
     77          1           0        0.092869   -4.416160    1.936655
     78          1           0        0.866385   -4.779240    0.384895
     79          1           0        0.857207    5.031670    1.385451
     80          1           0        0.240282    4.241719   -0.183252
     81          1           0        0.918377    5.809653   -0.258216
     82          1           0        2.446986    7.569493   -0.645797
     83          1           0        3.233645    8.451201    0.723374
     84          1           0        2.198835    7.152642    1.090753
     85          1           0        8.777124    4.127049    0.972194
     86          1           0        9.847247    2.094281   -0.927924
     87          1           0        8.931325    5.559154   -1.045927
     88          1           0        8.594624    4.225819   -2.162219
     89          1           0       10.063841    4.416814   -1.406147
     90          1           0       10.079783    1.102666    1.845736
     91          1           0       10.595403    2.843781    1.634820
     92          1           0       12.245407    0.790900    1.176931
     93          1           0       12.400559    2.386194    0.532987
     94          1           0       11.570874    1.154036   -0.523023
     95          1           0        8.849313   -4.308341   -0.654963
     96          1           0        9.073601   -3.804506    1.035766
     97          1           0        9.722342   -2.740192   -0.311153
     98          1           0        3.476640   -4.387791    0.673483
     99          1           0        2.021656   -6.216604   -2.946995
    100          1           0        0.847683   -6.090719   -1.660729
    101          1           0        1.891583   -7.506687   -1.789033
    102          1           0       -3.144549   -4.461241   -0.336760
    103          1           0       -3.246783   -2.695577   -0.808495
    104          1           0       -4.452268   -2.618823    1.708964
    105          1           0       -5.836655   -6.180246    0.524402
    106          1           0       -5.624902   -5.048084   -0.849037
    107          1           0       -7.155315   -5.103704   -0.024231
    108          1           0       -6.298924   -3.301295    2.996551
    109          1           0       -7.213186   -4.691822    2.424856
    110          1           0       -8.771264   -3.385211    1.406112
    111          1           0       -7.516111   -2.474427    0.519306
    112          1           0       -7.173577   -0.877822    2.090392
    113          1           0       -7.879861   -1.897072    3.399257
    114          1           0      -10.231219   -1.482052    2.508066
    115          1           0       -8.901410    1.172109    2.936799
    116          1           0       -9.339291   -0.032286    4.271208
    117          1           0      -10.549283    0.809689    3.327193
    118          1           0       -8.549765   -0.407466    0.161774
    119          1           0       -9.858528    0.632585    0.886849
    120          1           0      -11.562163   -1.244122    0.841195
    121          1           0      -10.432281   -2.120166   -0.034244
    122          1           0      -11.350712   -1.433089   -1.928458
    123          1           0      -10.198892   -0.189712   -1.811513
    124          1           0      -12.701268    0.294901   -0.431165
    125          1           0      -13.635708    1.057251   -2.937614
    126          1           0      -13.638484   -0.704116   -2.542321
    127          1           0      -12.365653   -0.107944   -3.458115
    128          1           0      -11.961513    2.341458   -2.439064
    129          1           0      -10.516332    1.918347   -1.668684
    130          1           0      -11.370869    2.534341    0.456941
    131          1           0      -13.041530    2.644115    0.015810
    132          1           0      -12.638345    4.844912   -0.102021
    133          1           0      -12.174692    4.466817   -1.736886
    134          1           0       -9.693245    4.148964   -0.247795
    135          1           0      -11.340910    6.577450    0.580491
    136          1           0       -9.539776    6.665330    0.329452
    137          1           0      -10.070844    5.528478    1.427666
    138          1           0      -10.218277    4.690592   -2.689282
    139          1           0       -8.989359    5.660147   -2.077354
    140          1           0      -10.631550    6.372330   -2.235275
 ---------------------------------------------------------------------

 SCF Done:  E(RZINDO/S) =  -473.966273395     A.U. after   20 cycles

 Excitation energies and oscillator strengths:

 Excited State   1:      Singlet-A      1.2614 eV  982.90 nm  f=0.5781  <S**2>=0.000
     175 ->178        -0.18427
     176 ->177         0.66520
 This state for optimization and/or second-order correction.
 Total Energy, E(CIS/TDA) =  -473.919917348
 Copying the excited state density for this state as the 1-particle RhoCI density.

 Excited State   2:      Singlet-A      1.9298 eV  642.49 nm  f=0.0205  <S**2>=0.000
     175 ->177         0.52656
     176 ->178         0.44468

 Excited State   3:      Singlet-A      2.9341 eV  422.57 nm  f=0.7375  <S**2>=0.000
     175 ->177        -0.33491
     176 ->178         0.43653
     176 ->179         0.33668
     176 ->180         0.17713

 Excited State   4:      Singlet-A      3.0434 eV  407.39 nm  f=0.0033  <S**2>=0.000
     168 ->177         0.29938
     168 ->179        -0.41661
     168 ->180         0.24804
     168 ->184         0.14070
     168 ->186        -0.26777

 Excited State   5:      Singlet-A      3.0921 eV  400.97 nm  f=0.5381  <S**2>=0.000
     171 ->177         0.13307
     175 ->177         0.24493
     176 ->178        -0.27453
     176 ->179         0.51975
     176 ->180         0.11873

 The electronic state is 1-A.
 Alpha  occ. eigenvalues --   -1.82959  -1.80075  -1.78199  -1.74477  -1.70882
 Alpha  occ. eigenvalues --   -1.68800  -1.65598  -1.61160  -1.58571  -1.57352
 Alpha  occ. eigenvalues --   -1.54831  -1.51156  -1.49224  -1.48130  -1.47845
 Alpha  occ. eigenvalues --   -1.43908  -1.42767  -1.39756  -1.38429  -1.37109
 Alpha  occ. eigenvalues --   -1.35871  -1.32734  -1.32104  -1.31177  -1.28408
 Alpha  occ. eigenvalues --   -1.27327  -1.24680  -1.22397  -1.19752  -1.17409
 Alpha  occ. eigenvalues --   -1.16098  -1.15216  -1.14769  -1.13584  -1.12455
 Alpha  occ. eigenvalues --   -1.11802  -1.10171  -1.09522  -1.05016  -1.03373
 Alpha  occ. eigenvalues --   -1.02773  -1.00890  -0.97559  -0.96772  -0.96346
 Alpha  occ. eigenvalues --   -0.95384  -0.94767  -0.94052  -0.93167  -0.92435
 Alpha  occ. eigenvalues --   -0.91563  -0.90687  -0.89321  -0.88240  -0.87538
 Alpha  occ. eigenvalues --   -0.85316  -0.83327  -0.82971  -0.81747  -0.80676
 Alpha  occ. eigenvalues --   -0.79923  -0.79073  -0.76364  -0.76064  -0.75983
 Alpha  occ. eigenvalues --   -0.75081  -0.74418  -0.74008  -0.73682  -0.73169
 Alpha  occ. eigenvalues --   -0.71880  -0.71652  -0.71358  -0.71043  -0.70310
 Alpha  occ. eigenvalues --   -0.70010  -0.69202  -0.68502  -0.68159  -0.67889
 Alpha  occ. eigenvalues --   -0.67466  -0.67150  -0.66497  -0.65961  -0.65184
 Alpha  occ. eigenvalues --   -0.64816  -0.64581  -0.64404  -0.64158  -0.63580
 Alpha  occ. eigenvalues --   -0.63165  -0.62921  -0.62670  -0.62298  -0.61643
 Alpha  occ. eigenvalues --   -0.61165  -0.60755  -0.60717  -0.60559  -0.60267
 Alpha  occ. eigenvalues --   -0.60198  -0.59547  -0.59107  -0.59075  -0.58262
 Alpha  occ. eigenvalues --   -0.57959  -0.57759  -0.57204  -0.56726  -0.56391
 Alpha  occ. eigenvalues --   -0.56273  -0.55833  -0.55345  -0.55065  -0.54802
 Alpha  occ. eigenvalues --   -0.54498  -0.54382  -0.54065  -0.53002  -0.52924
 Alpha  occ. eigenvalues --   -0.52597  -0.52410  -0.52119  -0.51839  -0.51395
 Alpha  occ. eigenvalues --   -0.50855  -0.50764  -0.50681  -0.50364  -0.49945
 Alpha  occ. eigenvalues --   -0.49748  -0.49572  -0.49444  -0.49357  -0.49078
 Alpha  occ. eigenvalues --   -0.49031  -0.48760  -0.48749  -0.47360  -0.47339
 Alpha  occ. eigenvalues --   -0.47272  -0.47112  -0.47024  -0.46746  -0.46569
 Alpha  occ. eigenvalues --   -0.46420  -0.46290  -0.46006  -0.45756  -0.45365
 Alpha  occ. eigenvalues --   -0.45178  -0.45052  -0.44826  -0.44782  -0.43881
 Alpha  occ. eigenvalues --   -0.43517  -0.43473  -0.43023  -0.42494  -0.41922
 Alpha  occ. eigenvalues --   -0.41882  -0.41437  -0.40890  -0.39172  -0.38761
 Alpha  occ. eigenvalues --   -0.37847  -0.37418  -0.35745  -0.34986  -0.34540
 Alpha  occ. eigenvalues --   -0.33661  -0.33197  -0.32122  -0.31282  -0.26417
 Alpha  occ. eigenvalues --   -0.21265
 Alpha virt. eigenvalues --   -0.07953  -0.01806  -0.00153   0.01470   0.01562
 Alpha virt. eigenvalues --    0.02741   0.03095   0.03265   0.04673   0.04722
 Alpha virt. eigenvalues --    0.06069   0.06954   0.07349   0.07904   0.08325

 Mulliken charges:
               1
     1  Mg   0.428092
     2  C   -0.032309
     3  C   -0.077421
     4  C   -0.075867
     5  C   -0.071778
     6  N   -0.265462
     7  C    0.084920
     8  C    0.014086
     9  C    0.002678
    10  C    0.134488
    11  C   -0.047504
    12  C   -0.018389
    13  C    0.003817
    14  C    0.462577
    15  O   -0.514146
    16  O   -0.268830
    17  N   -0.355854
    18  C    0.126906
    19  C    0.011568
    20  C   -0.046339
    21  C    0.162220
    22  C   -0.040899
    23  C    0.328369
    24  O   -0.516105
    25  C   -0.027394
    26  N   -0.263135
    27  C    0.168976
    28  C    0.014962
    29  C   -0.001052
    30  C    0.112795
    31  C   -0.053754
    32  C   -0.039031
    33  C   -0.063977
    34  N   -0.318699
    35  C    0.075303
    36  C   -0.008739
    37  C   -0.064727
    38  C    0.092726
    39  C   -0.042516
    40  C    0.341835
    41  O   -0.500268
    42  C    0.057910
    43  C    0.484796
    44  O   -0.516981
    45  O   -0.273233
    46  C    0.076979
    47  C    0.100520
    48  C   -0.103324
    49  C    0.006052
    50  C   -0.045654
    51  C   -0.017263
    52  C   -0.026413
    53  C   -0.026904
    54  C   -0.033535
    55  C   -0.070040
    56  C   -0.047122
    57  C   -0.040711
    58  C   -0.039711
    59  C   -0.017511
    60  C   -0.064416
    61  C   -0.023030
    62  C   -0.035988
    63  C   -0.032136
    64  C   -0.015481
    65  C   -0.065703
    66  C   -0.065123
    67  H    0.019947
    68  H    0.031798
    69  H    0.017419
    70  H    0.053129
    71  H    0.030823
    72  H    0.032842
    73  H    0.031557
    74  H    0.023289
    75  H    0.019036
    76  H    0.029946
    77  H    0.032582
    78  H    0.040821
    79  H    0.046141
    80  H    0.033579
    81  H    0.024517
    82  H    0.046217
    83  H    0.033970
    84  H    0.030382
    85  H    0.037732
    86  H    0.032750
    87  H    0.027052
    88  H    0.030497
    89  H    0.005737
    90  H    0.035714
    91  H    0.018372
    92  H    0.020172
    93  H    0.018977
    94  H    0.034725
    95  H    0.038022
    96  H    0.034197
    97  H    0.029400
    98  H    0.054816
    99  H    0.047815
   100  H    0.039383
   101  H    0.029138
   102  H    0.046693
   103  H    0.063479
   104  H    0.012411
   105  H    0.034987
   106  H    0.021663
   107  H    0.020122
   108  H    0.024624
   109  H    0.020421
   110  H    0.025570
   111  H    0.023864
   112  H    0.027551
   113  H    0.010963
   114  H    0.029352
   115  H    0.020101
   116  H    0.017183
   117  H    0.020565
   118  H    0.043442
   119  H    0.015377
   120  H    0.037459
   121  H   -0.000786
   122  H    0.012767
   123  H    0.016589
   124  H    0.028696
   125  H    0.021278
   126  H    0.012128
   127  H    0.018282
   128  H    0.014159
   129  H    0.022399
   130  H    0.012983
   131  H    0.020046
   132  H    0.016919
   133  H    0.018766
   134  H    0.030491
   135  H    0.033104
   136  H    0.014724
   137  H    0.012688
   138  H    0.007471
   139  H    0.012595
   140  H    0.028290
 Sum of Mulliken charges =  -0.00000

 Dipole moment (field-independent basis, Debye):
    X=             -7.2817    Y=              4.7042    Z=              5.7873  Tot=             10.4233
 N-N= 4.312099554609D+03 E-N= 0.000000000000D+00  KE=-9.298501534226D+03
 Leave Link  601 at Wed May  4 12:06:44 2022, MaxMem=  6710886400 cpu:               0.8 elap:               0.0
 (Enter /sw/apps/gaussian-16.0/g16/l9999.exe)
 1\1\GINC-BP1-COMPUTE067\SP\RZINDO CIS\STO-3G\C55H74Mg1N4O6\OF15641\04-
 May-2022\0\\#p ZINDO=(nstates=5)\\step_1651_chromophore_3 ZINDO\\0,1\M
 g,0,1.174,8.014,26.205\C,0,1.977,9.982,29.027\C,0,1.237,5.225,28.291\C
 ,0,0.755,6.087,23.578\C,0,1.461,10.778,24.213\N,0,1.673,7.669,28.404\C
 ,0,1.821,8.609,29.401\C,0,1.886,7.99,30.82\C,0,1.783,6.467,30.583\C,0,
 1.586,6.435,28.968\C,0,2.999,5.555,30.929\C,0,0.795,8.603,31.76\C,0,1.
 271,9.076,33.111\C,0,2.172,8.059,33.898\O,0,3.397,8.052,33.845\O,0,1.4

 Normal termination of Gaussian 16 at Wed May  4 12:06:44 2022.
