 Gaussian 16, Revision A.03,
 Gaussian 16:  ES64L-G16RevA.03 25-Dec-2016

 ------------------------------
 #p blyp/Def2SVP td=(nstates=5)
 ------------------------------

 --------------------------------------------------
 step_301_chromophore_10 TDDFT with blyp functional
 --------------------------------------------------
 Symbolic Z-matrix:
 Charge =  0 Multiplicity = 1

                         Standard orientation:
 ---------------------------------------------------------------------
 Center     Atomic      Atomic             Coordinates (Angstroms)
 Number     Number       Type             X           Y           Z
 ---------------------------------------------------------------------
      1         12           0        5.958791    0.480183    0.026217
      2          6           0        3.622312   -2.106572    0.042046
      3          6           0        3.442015    2.642956   -1.048210
      4          6           0        8.278048    2.926791   -0.288805
      5          6           0        8.408009   -1.876011    0.769542
      6          7           0        3.781191    0.243871   -0.580126
      7          6           0        3.001524   -0.923425   -0.376721
      8          6           0        1.558811   -0.675267   -0.675309
      9          6           0        1.493239    0.830700   -1.079353
     10          6           0        2.995602    1.253219   -0.979576
     11          6           0        0.809740    1.148828   -2.459525
     12          6           0        0.599629   -1.224663    0.433144
     13          6           0       -0.855065   -0.772273    0.425187
     14          6           0       -1.854133   -1.850677   -0.197370
     15          8           0       -1.573882   -2.584911   -1.086186
     16          8           0       -3.007622   -1.883664    0.493920
     17          7           0        5.868489    2.535963   -0.463059
     18          6           0        4.705251    3.233914   -0.851209
     19          6           0        5.109540    4.600641   -1.080855
     20          6           0        6.513590    4.771253   -0.775475
     21          6           0        6.990216    3.359938   -0.579280
     22          6           0        4.212797    5.670286   -1.529358
     23          6           0        7.349064    6.013100   -0.508160
     24          8           0        8.444212    6.000630   -0.067007
     25          6           0        6.702686    7.389739   -0.603004
     26          7           0        8.029874    0.510123    0.212298
     27          6           0        8.780113    1.606608   -0.043736
     28          6           0       10.299522    1.354108    0.218303
     29          6           0       10.248514   -0.124009    0.806668
     30          6           0        8.792467   -0.521645    0.701534
     31          6           0       11.160109    1.582401   -1.022016
     32          6           0       10.683581   -0.198631    2.306073
     33          6           0       10.193832    0.872596    3.317189
     34          7           0        6.093878   -1.578784    0.294851
     35          6           0        7.101409   -2.388771    0.619453
     36          6           0        6.690489   -3.710750    0.785133
     37          6           0        5.322652   -3.593148    0.649576
     38          6           0        5.002980   -2.325103    0.303772
     39          6           0        7.611271   -4.781294    1.381674
     40          6           0        4.104655   -4.316395    0.849713
     41          8           0        4.004274   -5.434887    1.415253
     42          6           0        2.940423   -3.352804    0.411310
     43          6           0        2.246203   -3.947532   -0.827528
     44          8           0        2.423099   -3.791244   -2.026471
     45          8           0        1.189911   -4.745857   -0.349569
     46          6           0        0.525299   -5.565685   -1.345138
     47          6           0       -3.854061   -3.081579    0.325027
     48          6           0       -5.319070   -2.678584    0.369365
     49          6           0       -6.385104   -3.374553   -0.158106
     50          6           0       -6.219540   -4.681180   -0.901407
     51          6           0       -7.868701   -2.839385   -0.012249
     52          6           0       -8.338279   -1.936973   -1.162735
     53          6           0       -7.910625   -0.411843   -0.966292
     54          6           0       -9.169559    0.401709   -0.719750
     55          6           0       -9.820782    0.869185   -2.025804
     56          6           0       -8.998636    1.685454    0.203736
     57          6           0      -10.333605    2.322088    0.577056
     58          6           0      -10.652364    2.354346    2.095759
     59          6           0      -11.958314    3.281394    2.362553
     60          6           0      -11.764698    4.069676    3.678522
     61          6           0      -13.332306    2.547286    2.283204
     62          6           0      -13.921985    2.659919    0.893345
     63          6           0      -14.687443    1.358558    0.572824
     64          6           0      -14.005274    0.773864   -0.732411
     65          6           0      -14.836288    0.931476   -2.077557
     66          6           0      -13.607158   -0.661380   -0.492290
     67          1           0        2.579575    3.275177   -1.268519
     68          1           0        9.038699    3.710017   -0.277068
     69          1           0        9.142730   -2.522695    1.254488
     70          1           0        1.501963   -1.287584   -1.574648
     71          1           0        0.997684    1.342277   -0.254426
     72          1           0        1.448948    1.733167   -3.120622
     73          1           0        0.062821    1.891781   -2.179818
     74          1           0        0.267565    0.322720   -2.920590
     75          1           0        1.043912   -1.158516    1.426232
     76          1           0        0.570860   -2.286856    0.187008
     77          1           0       -0.979536    0.022417   -0.310075
     78          1           0       -1.186020   -0.477192    1.421014
     79          1           0        3.182306    5.393135   -1.754158
     80          1           0        4.698286    6.204855   -2.345769
     81          1           0        4.218297    6.444704   -0.763431
     82          1           0        6.074221    7.514980   -1.484711
     83          1           0        7.473720    8.153439   -0.494381
     84          1           0        5.953523    7.594304    0.161384
     85          1           0       10.507510    2.149567    0.933824
     86          1           0       10.856346   -0.826635    0.238102
     87          1           0       10.443659    1.545464   -1.842405
     88          1           0       11.788559    0.695615   -1.107396
     89          1           0       11.587778    2.576202   -0.894485
     90          1           0       11.770521   -0.128175    2.316829
     91          1           0       10.324618   -1.176421    2.629247
     92          1           0        9.678453    0.251312    4.048647
     93          1           0        9.444328    1.561041    2.926962
     94          1           0       10.984574    1.433377    3.816428
     95          1           0        7.124431   -5.757103    1.406668
     96          1           0        7.688772   -4.378091    2.391003
     97          1           0        8.636408   -4.960682    1.057701
     98          1           0        2.189271   -3.318556    1.200130
     99          1           0       -0.434800   -5.066618   -1.474990
    100          1           0        0.295659   -6.595949   -1.072924
    101          1           0        0.928767   -5.622398   -2.355401
    102          1           0       -3.748187   -3.807475    1.130932
    103          1           0       -3.769031   -3.660136   -0.594810
    104          1           0       -5.483951   -1.636877    0.645398
    105          1           0       -5.720052   -5.376976   -0.226450
    106          1           0       -5.624408   -4.403564   -1.770349
    107          1           0       -7.195680   -5.087117   -1.169360
    108          1           0       -7.793479   -2.246905    0.899495
    109          1           0       -8.513963   -3.703984    0.144862
    110          1           0       -9.415248   -2.093564   -1.100038
    111          1           0       -7.992421   -2.266800   -2.142204
    112          1           0       -7.516339   -0.185704   -1.957168
    113          1           0       -7.095077   -0.131766   -0.299376
    114          1           0       -9.839493   -0.263066   -0.175052
    115          1           0       -9.204231    0.947825   -2.922197
    116          1           0      -10.351476    1.820653   -2.054827
    117          1           0      -10.649936    0.170089   -2.130765
    118          1           0       -8.318085    2.403280   -0.254204
    119          1           0       -8.485236    1.441365    1.133873
    120          1           0      -11.145833    1.688427    0.219943
    121          1           0      -10.431584    3.381676    0.343982
    122          1           0       -9.788055    2.783092    2.602265
    123          1           0      -10.926900    1.383632    2.508415
    124          1           0      -11.998083    4.089194    1.632745
    125          1           0      -10.724281    4.278716    3.926825
    126          1           0      -12.198337    3.473678    4.481291
    127          1           0      -12.401710    4.945237    3.550577
    128          1           0      -13.954276    3.092394    2.993020
    129          1           0      -13.101139    1.533076    2.608645
    130          1           0      -13.160430    3.001214    0.192491
    131          1           0      -14.717366    3.402062    0.827589
    132          1           0      -15.751017    1.463635    0.356722
    133          1           0      -14.537373    0.616413    1.357012
    134          1           0      -13.097300    1.317709   -0.990596
    135          1           0      -15.787267    1.451086   -1.965017
    136          1           0      -15.083444   -0.059211   -2.457813
    137          1           0      -14.267302    1.456348   -2.845812
    138          1           0      -14.131044   -1.118126    0.346149
    139          1           0      -12.531937   -0.755215   -0.336644
    140          1           0      -14.028503   -1.368755   -1.206149
 ---------------------------------------------------------------------

 SCF Done:  E(RB-LYP) =  -3007.33324587     A.U. after   21 cycles

 Excitation energies and oscillator strengths:

 Excited State   1:      Singlet-A      1.7911 eV  692.21 nm  f=0.2843  <S**2>=0.000
     245 -> 248       -0.19250
     246 -> 247        0.68610
     246 <- 247       -0.14083
 This state for optimization and/or second-order correction.
 Total Energy, E(TD-HF/TD-DFT) =  -3007.26742329
 Copying the excited state density for this state as the 1-particle RhoCI density.

 Excited State   2:      Singlet-A      1.8444 eV  672.23 nm  f=0.0001  <S**2>=0.000
     244 -> 247        0.70649

 Excited State   3:      Singlet-A      1.9908 eV  622.77 nm  f=0.0672  <S**2>=0.000
     245 -> 247        0.64616
     246 -> 248        0.25113

 Excited State   4:      Singlet-A      2.1455 eV  577.89 nm  f=0.0005  <S**2>=0.000
     243 -> 247        0.70555

 Excited State   5:      Singlet-A      2.2137 eV  560.08 nm  f=0.0000  <S**2>=0.000
     242 -> 247        0.70707

 The electronic state is 1-A.
 Alpha  occ. eigenvalues --  -46.26886 -18.83129 -18.81085 -18.77702 -18.77059
 Alpha  occ. eigenvalues --  -18.75899 -18.75085 -14.03404 -14.02935 -14.00909
 Alpha  occ. eigenvalues --  -14.00025 -10.04686 -10.03960 -10.00052  -9.99035
 Alpha  occ. eigenvalues --   -9.98593  -9.97188  -9.96519  -9.96376  -9.96180
 Alpha  occ. eigenvalues --   -9.95975  -9.95874  -9.95832  -9.94709  -9.94371
 Alpha  occ. eigenvalues --   -9.94236  -9.94156  -9.93957  -9.93749  -9.93573
 Alpha  occ. eigenvalues --   -9.93563  -9.93512  -9.93324  -9.93322  -9.93252
 Alpha  occ. eigenvalues --   -9.93148  -9.92997  -9.92938  -9.92810  -9.92579
 Alpha  occ. eigenvalues --   -9.92535  -9.92465  -9.92404  -9.92393  -9.92357
 Alpha  occ. eigenvalues --   -9.92274  -9.92209  -9.92110  -9.91949  -9.91770
 Alpha  occ. eigenvalues --   -9.91753  -9.91691  -9.91678  -9.91588  -9.91468
 Alpha  occ. eigenvalues --   -9.91239  -9.91074  -9.91058  -9.91042  -9.91038
 Alpha  occ. eigenvalues --   -9.90835  -9.90830  -9.90780  -9.90546  -9.90482
 Alpha  occ. eigenvalues --   -9.89871  -2.91473  -1.71913  -1.71344  -1.71183
 Alpha  occ. eigenvalues --   -0.99749  -0.96575  -0.94197  -0.91929  -0.89248
 Alpha  occ. eigenvalues --   -0.89101  -0.87885  -0.85487  -0.85321  -0.83448
 Alpha  occ. eigenvalues --   -0.76393  -0.73464  -0.72976  -0.72762  -0.71982
 Alpha  occ. eigenvalues --   -0.71963  -0.71433  -0.70586  -0.70541  -0.70431
 Alpha  occ. eigenvalues --   -0.69683  -0.69080  -0.68213  -0.67515  -0.67140
 Alpha  occ. eigenvalues --   -0.66483  -0.65672  -0.65316  -0.64748  -0.64372
 Alpha  occ. eigenvalues --   -0.64108  -0.62617  -0.62217  -0.61713  -0.60317
 Alpha  occ. eigenvalues --   -0.60222  -0.60040  -0.59564  -0.59196  -0.58893
 Alpha  occ. eigenvalues --   -0.58519  -0.57896  -0.56776  -0.55911  -0.54709
 Alpha  occ. eigenvalues --   -0.54040  -0.53484  -0.52610  -0.52262  -0.51441
 Alpha  occ. eigenvalues --   -0.50733  -0.50705  -0.50435  -0.50169  -0.50071
 Alpha  occ. eigenvalues --   -0.49835  -0.49602  -0.48490  -0.47835  -0.46139
 Alpha  occ. eigenvalues --   -0.45868  -0.45666  -0.45571  -0.45112  -0.44372
 Alpha  occ. eigenvalues --   -0.44157  -0.44032  -0.43009  -0.42714  -0.42182
 Alpha  occ. eigenvalues --   -0.41986  -0.41934  -0.41806  -0.41554  -0.41273
 Alpha  occ. eigenvalues --   -0.41066  -0.40785  -0.40500  -0.40049  -0.39738
 Alpha  occ. eigenvalues --   -0.39575  -0.39385  -0.39281  -0.39214  -0.39060
 Alpha  occ. eigenvalues --   -0.38884  -0.38665  -0.38618  -0.38479  -0.38266
 Alpha  occ. eigenvalues --   -0.38065  -0.37959  -0.37781  -0.37550  -0.37444
 Alpha  occ. eigenvalues --   -0.37304  -0.37018  -0.36640  -0.36629  -0.36586
 Alpha  occ. eigenvalues --   -0.36412  -0.36137  -0.35923  -0.35795  -0.35540
 Alpha  occ. eigenvalues --   -0.35504  -0.35343  -0.35037  -0.34804  -0.34759
 Alpha  occ. eigenvalues --   -0.34658  -0.34511  -0.34369  -0.34151  -0.33989
 Alpha  occ. eigenvalues --   -0.33700  -0.33582  -0.33542  -0.33354  -0.33136
 Alpha  occ. eigenvalues --   -0.33075  -0.32812  -0.32715  -0.32535  -0.32312
 Alpha  occ. eigenvalues --   -0.32088  -0.32014  -0.31838  -0.31794  -0.31632
 Alpha  occ. eigenvalues --   -0.31423  -0.31219  -0.31056  -0.30930  -0.30759
 Alpha  occ. eigenvalues --   -0.30594  -0.30264  -0.30105  -0.30045  -0.29940
 Alpha  occ. eigenvalues --   -0.29821  -0.29328  -0.29049  -0.28933  -0.28846
 Alpha  occ. eigenvalues --   -0.28485  -0.28279  -0.28092  -0.28065  -0.27643
 Alpha  occ. eigenvalues --   -0.27306  -0.27205  -0.26841  -0.26360  -0.26257
 Alpha  occ. eigenvalues --   -0.26123  -0.26004  -0.25907  -0.25553  -0.25505
 Alpha  occ. eigenvalues --   -0.25189  -0.24132  -0.23884  -0.23602  -0.23314
 Alpha  occ. eigenvalues --   -0.23158  -0.22770  -0.22225  -0.21502  -0.20388
 Alpha  occ. eigenvalues --   -0.19864  -0.19549  -0.19198  -0.18100  -0.17088
 Alpha  occ. eigenvalues --   -0.15754
 Alpha virt. eigenvalues --   -0.11414  -0.07078  -0.06022  -0.04632  -0.02544
 Alpha virt. eigenvalues --   -0.02214  -0.02164  -0.02008  -0.01277   0.00166
 Alpha virt. eigenvalues --    0.01332   0.01373   0.01591   0.02631   0.02824

 Mulliken charges:
               1
     1  Mg   0.687947
     2  C    0.038060
     3  C   -0.066099
     4  C   -0.039231
     5  C   -0.086515
     6  N   -0.203627
     7  C   -0.136648
     8  C    0.083122
     9  C   -0.024031
    10  C   -0.021855
    11  C    0.134316
    12  C    0.082859
    13  C    0.168436
    14  C    0.029407
    15  O   -0.147624
    16  O   -0.247703
    17  N   -0.324709
    18  C    0.197143
    19  C   -0.136584
    20  C    0.012845
    21  C    0.107116
    22  C    0.182916
    23  C   -0.053277
    24  O   -0.120345
    25  C    0.098518
    26  N   -0.235018
    27  C    0.004338
    28  C   -0.033743
    29  C    0.046755
    30  C    0.032088
    31  C    0.177532
    32  C    0.067404
    33  C    0.060518
    34  N   -0.202845
    35  C    0.089039
    36  C   -0.183513
    37  C    0.140054
    38  C    0.078787
    39  C    0.147639
    40  C   -0.057065
    41  O   -0.165007
    42  C   -0.010033
    43  C    0.137064
    44  O   -0.162830
    45  O   -0.285737
    46  C    0.206831
    47  C    0.320771
    48  C   -0.125483
    49  C   -0.218752
    50  C    0.145656
    51  C    0.127598
    52  C    0.075083
    53  C    0.138965
    54  C   -0.105409
    55  C    0.098101
    56  C    0.143310
    57  C    0.049985
    58  C    0.073605
    59  C   -0.139496
    60  C    0.104633
    61  C    0.143269
    62  C    0.072085
    63  C    0.120813
    64  C   -0.134948
    65  C    0.094750
    66  C    0.099661
    67  H   -0.069716
    68  H   -0.046176
    69  H   -0.051434
    70  H   -0.003990
    71  H   -0.013618
    72  H   -0.002093
    73  H   -0.020918
    74  H    0.019291
    75  H   -0.021936
    76  H    0.011607
    77  H   -0.008561
    78  H   -0.003420
    79  H   -0.008850
    80  H    0.006441
    81  H   -0.010472
    82  H   -0.023076
    83  H   -0.003621
    84  H    0.008891
    85  H   -0.015866
    86  H   -0.029843
    87  H   -0.009992
    88  H   -0.011137
    89  H    0.008941
    90  H   -0.020856
    91  H   -0.027013
    92  H   -0.014230
    93  H    0.007007
    94  H    0.000290
    95  H    0.007877
    96  H    0.003636
    97  H   -0.002763
    98  H    0.007887
    99  H    0.003696
   100  H    0.008197
   101  H    0.013735
   102  H    0.009498
   103  H    0.002803
   104  H   -0.027186
   105  H    0.007794
   106  H    0.024338
   107  H   -0.015163
   108  H   -0.023320
   109  H   -0.029139
   110  H   -0.015916
   111  H   -0.027955
   112  H   -0.044250
   113  H   -0.024918
   114  H   -0.021122
   115  H   -0.014754
   116  H   -0.012620
   117  H   -0.016445
   118  H   -0.042049
   119  H   -0.052615
   120  H   -0.014826
   121  H   -0.027472
   122  H   -0.035056
   123  H   -0.030820
   124  H   -0.042283
   125  H   -0.014343
   126  H   -0.024463
   127  H   -0.016480
   128  H   -0.039860
   129  H   -0.027378
   130  H   -0.008826
   131  H   -0.040047
   132  H   -0.029648
   133  H   -0.026147
   134  H   -0.012900
   135  H   -0.021329
   136  H   -0.024226
   137  H   -0.013185
   138  H   -0.034509
   139  H    0.001381
   140  H   -0.033375
 Sum of Mulliken charges =  -0.00000

 Dipole moment (field-independent basis, Debye):
    X=             -3.7802    Y=              3.0559    Z=              0.5967  Tot=              4.8974
 Quadrupole moment (field-independent basis, Debye-Ang):
   XX=           -379.9728   YY=           -419.6893   ZZ=           -412.1126
   XY=              5.1759   XZ=             10.9841   YZ=             -2.6747

 Normal termination of Gaussian 16 at Wed May  4 18:57:06 2022.
