 Gaussian 16, Revision A.03,
 Gaussian 16:  ES64L-G16RevA.03 25-Dec-2016

 -----------------------------------
 #p cam-b3lyp/Def2SVP td=(nstates=5)
 -----------------------------------

 -------------------------------------------------------
 step_301_chromophore_10 TDDFT with cam-b3lyp functional
 -------------------------------------------------------
 Symbolic Z-matrix:
 Charge =  0 Multiplicity = 1

                         Standard orientation:
 ---------------------------------------------------------------------
 Center     Atomic      Atomic             Coordinates (Angstroms)
 Number     Number       Type             X           Y           Z
 ---------------------------------------------------------------------
      1         12           0        5.958791    0.480183    0.026217
      2          6           0        3.622312   -2.106572    0.042046
      3          6           0        3.442015    2.642956   -1.048210
      4          6           0        8.278048    2.926791   -0.288805
      5          6           0        8.408009   -1.876011    0.769542
      6          7           0        3.781191    0.243871   -0.580126
      7          6           0        3.001524   -0.923425   -0.376721
      8          6           0        1.558811   -0.675267   -0.675309
      9          6           0        1.493239    0.830700   -1.079353
     10          6           0        2.995602    1.253219   -0.979576
     11          6           0        0.809740    1.148828   -2.459525
     12          6           0        0.599629   -1.224663    0.433144
     13          6           0       -0.855065   -0.772273    0.425187
     14          6           0       -1.854133   -1.850677   -0.197370
     15          8           0       -1.573882   -2.584911   -1.086186
     16          8           0       -3.007622   -1.883664    0.493920
     17          7           0        5.868489    2.535963   -0.463059
     18          6           0        4.705251    3.233914   -0.851209
     19          6           0        5.109540    4.600641   -1.080855
     20          6           0        6.513590    4.771253   -0.775475
     21          6           0        6.990216    3.359938   -0.579280
     22          6           0        4.212797    5.670286   -1.529358
     23          6           0        7.349064    6.013100   -0.508160
     24          8           0        8.444212    6.000630   -0.067007
     25          6           0        6.702686    7.389739   -0.603004
     26          7           0        8.029874    0.510123    0.212298
     27          6           0        8.780113    1.606608   -0.043736
     28          6           0       10.299522    1.354108    0.218303
     29          6           0       10.248514   -0.124009    0.806668
     30          6           0        8.792467   -0.521645    0.701534
     31          6           0       11.160109    1.582401   -1.022016
     32          6           0       10.683581   -0.198631    2.306073
     33          6           0       10.193832    0.872596    3.317189
     34          7           0        6.093878   -1.578784    0.294851
     35          6           0        7.101409   -2.388771    0.619453
     36          6           0        6.690489   -3.710750    0.785133
     37          6           0        5.322652   -3.593148    0.649576
     38          6           0        5.002980   -2.325103    0.303772
     39          6           0        7.611271   -4.781294    1.381674
     40          6           0        4.104655   -4.316395    0.849713
     41          8           0        4.004274   -5.434887    1.415253
     42          6           0        2.940423   -3.352804    0.411310
     43          6           0        2.246203   -3.947532   -0.827528
     44          8           0        2.423099   -3.791244   -2.026471
     45          8           0        1.189911   -4.745857   -0.349569
     46          6           0        0.525299   -5.565685   -1.345138
     47          6           0       -3.854061   -3.081579    0.325027
     48          6           0       -5.319070   -2.678584    0.369365
     49          6           0       -6.385104   -3.374553   -0.158106
     50          6           0       -6.219540   -4.681180   -0.901407
     51          6           0       -7.868701   -2.839385   -0.012249
     52          6           0       -8.338279   -1.936973   -1.162735
     53          6           0       -7.910625   -0.411843   -0.966292
     54          6           0       -9.169559    0.401709   -0.719750
     55          6           0       -9.820782    0.869185   -2.025804
     56          6           0       -8.998636    1.685454    0.203736
     57          6           0      -10.333605    2.322088    0.577056
     58          6           0      -10.652364    2.354346    2.095759
     59          6           0      -11.958314    3.281394    2.362553
     60          6           0      -11.764698    4.069676    3.678522
     61          6           0      -13.332306    2.547286    2.283204
     62          6           0      -13.921985    2.659919    0.893345
     63          6           0      -14.687443    1.358558    0.572824
     64          6           0      -14.005274    0.773864   -0.732411
     65          6           0      -14.836288    0.931476   -2.077557
     66          6           0      -13.607158   -0.661380   -0.492290
     67          1           0        2.579575    3.275177   -1.268519
     68          1           0        9.038699    3.710017   -0.277068
     69          1           0        9.142730   -2.522695    1.254488
     70          1           0        1.501963   -1.287584   -1.574648
     71          1           0        0.997684    1.342277   -0.254426
     72          1           0        1.448948    1.733167   -3.120622
     73          1           0        0.062821    1.891781   -2.179818
     74          1           0        0.267565    0.322720   -2.920590
     75          1           0        1.043912   -1.158516    1.426232
     76          1           0        0.570860   -2.286856    0.187008
     77          1           0       -0.979536    0.022417   -0.310075
     78          1           0       -1.186020   -0.477192    1.421014
     79          1           0        3.182306    5.393135   -1.754158
     80          1           0        4.698286    6.204855   -2.345769
     81          1           0        4.218297    6.444704   -0.763431
     82          1           0        6.074221    7.514980   -1.484711
     83          1           0        7.473720    8.153439   -0.494381
     84          1           0        5.953523    7.594304    0.161384
     85          1           0       10.507510    2.149567    0.933824
     86          1           0       10.856346   -0.826635    0.238102
     87          1           0       10.443659    1.545464   -1.842405
     88          1           0       11.788559    0.695615   -1.107396
     89          1           0       11.587778    2.576202   -0.894485
     90          1           0       11.770521   -0.128175    2.316829
     91          1           0       10.324618   -1.176421    2.629247
     92          1           0        9.678453    0.251312    4.048647
     93          1           0        9.444328    1.561041    2.926962
     94          1           0       10.984574    1.433377    3.816428
     95          1           0        7.124431   -5.757103    1.406668
     96          1           0        7.688772   -4.378091    2.391003
     97          1           0        8.636408   -4.960682    1.057701
     98          1           0        2.189271   -3.318556    1.200130
     99          1           0       -0.434800   -5.066618   -1.474990
    100          1           0        0.295659   -6.595949   -1.072924
    101          1           0        0.928767   -5.622398   -2.355401
    102          1           0       -3.748187   -3.807475    1.130932
    103          1           0       -3.769031   -3.660136   -0.594810
    104          1           0       -5.483951   -1.636877    0.645398
    105          1           0       -5.720052   -5.376976   -0.226450
    106          1           0       -5.624408   -4.403564   -1.770349
    107          1           0       -7.195680   -5.087117   -1.169360
    108          1           0       -7.793479   -2.246905    0.899495
    109          1           0       -8.513963   -3.703984    0.144862
    110          1           0       -9.415248   -2.093564   -1.100038
    111          1           0       -7.992421   -2.266800   -2.142204
    112          1           0       -7.516339   -0.185704   -1.957168
    113          1           0       -7.095077   -0.131766   -0.299376
    114          1           0       -9.839493   -0.263066   -0.175052
    115          1           0       -9.204231    0.947825   -2.922197
    116          1           0      -10.351476    1.820653   -2.054827
    117          1           0      -10.649936    0.170089   -2.130765
    118          1           0       -8.318085    2.403280   -0.254204
    119          1           0       -8.485236    1.441365    1.133873
    120          1           0      -11.145833    1.688427    0.219943
    121          1           0      -10.431584    3.381676    0.343982
    122          1           0       -9.788055    2.783092    2.602265
    123          1           0      -10.926900    1.383632    2.508415
    124          1           0      -11.998083    4.089194    1.632745
    125          1           0      -10.724281    4.278716    3.926825
    126          1           0      -12.198337    3.473678    4.481291
    127          1           0      -12.401710    4.945237    3.550577
    128          1           0      -13.954276    3.092394    2.993020
    129          1           0      -13.101139    1.533076    2.608645
    130          1           0      -13.160430    3.001214    0.192491
    131          1           0      -14.717366    3.402062    0.827589
    132          1           0      -15.751017    1.463635    0.356722
    133          1           0      -14.537373    0.616413    1.357012
    134          1           0      -13.097300    1.317709   -0.990596
    135          1           0      -15.787267    1.451086   -1.965017
    136          1           0      -15.083444   -0.059211   -2.457813
    137          1           0      -14.267302    1.456348   -2.845812
    138          1           0      -14.131044   -1.118126    0.346149
    139          1           0      -12.531937   -0.755215   -0.336644
    140          1           0      -14.028503   -1.368755   -1.206149
 ---------------------------------------------------------------------

 SCF Done:  E(RCAM-B3LYP) =  -3007.12851297     A.U. after   17 cycles

 Excitation energies and oscillator strengths:

 Excited State   1:      Singlet-A      1.7706 eV  700.23 nm  f=0.3602  <S**2>=0.000
     245 -> 248       -0.17541
     246 -> 247        0.68532
     245 <- 248       -0.10050
 This state for optimization and/or second-order correction.
 Total Energy, E(TD-HF/TD-DFT) =  -3007.06344340
 Copying the excited state density for this state as the 1-particle RhoCI density.

 Excited State   2:      Singlet-A      2.2276 eV  556.59 nm  f=0.1015  <S**2>=0.000
     245 -> 247        0.63394
     246 -> 248        0.29051

 Excited State   3:      Singlet-A      3.2475 eV  381.78 nm  f=0.0217  <S**2>=0.000
     240 -> 247        0.10100
     241 -> 247        0.17903
     242 -> 247        0.53993
     244 -> 247       -0.29766
     246 -> 248       -0.24728

 Excited State   4:      Singlet-A      3.5075 eV  353.48 nm  f=0.0003  <S**2>=0.000
     241 -> 247        0.51325
     241 -> 249       -0.30304
     241 -> 250       -0.26233
     242 -> 247       -0.16882
     242 -> 249        0.10682

 Excited State   5:      Singlet-A      3.5163 eV  352.60 nm  f=0.5284  <S**2>=0.000
     244 -> 247       -0.38397
     245 -> 247       -0.24984
     246 -> 248        0.52590

 The electronic state is 1-A.
 Alpha  occ. eigenvalues --  -46.88409 -19.25936 -19.23820 -19.20587 -19.20118
 Alpha  occ. eigenvalues --  -19.19635 -19.17694 -14.42497 -14.41713 -14.39561
 Alpha  occ. eigenvalues --  -14.38021 -10.39834 -10.39448 -10.35715 -10.33962
 Alpha  occ. eigenvalues --  -10.32609 -10.32237 -10.31479 -10.31267 -10.31034
 Alpha  occ. eigenvalues --  -10.30528 -10.29839 -10.29803 -10.29574 -10.28942
 Alpha  occ. eigenvalues --  -10.28372 -10.28258 -10.28082 -10.28062 -10.27675
 Alpha  occ. eigenvalues --  -10.27381 -10.27364 -10.27356 -10.27336 -10.27283
 Alpha  occ. eigenvalues --  -10.27279 -10.27206 -10.27132 -10.26719 -10.26243
 Alpha  occ. eigenvalues --  -10.26161 -10.26159 -10.26155 -10.26145 -10.26081
 Alpha  occ. eigenvalues --  -10.26078 -10.26068 -10.25955 -10.25741 -10.25665
 Alpha  occ. eigenvalues --  -10.25505 -10.25411 -10.25272 -10.25258 -10.25170
 Alpha  occ. eigenvalues --  -10.24983 -10.24760 -10.24725 -10.24720 -10.24711
 Alpha  occ. eigenvalues --  -10.24460 -10.24452 -10.24360 -10.24160 -10.24070
 Alpha  occ. eigenvalues --  -10.23186  -3.16899  -1.91818  -1.91347  -1.91198
 Alpha  occ. eigenvalues --   -1.18202  -1.14986  -1.13225  -1.09745  -1.06992
 Alpha  occ. eigenvalues --   -1.06859  -1.05136  -1.03118  -1.03103  -1.01374
 Alpha  occ. eigenvalues --   -0.93330  -0.90308  -0.89766  -0.89541  -0.88869
 Alpha  occ. eigenvalues --   -0.88660  -0.88146  -0.87360  -0.87152  -0.86905
 Alpha  occ. eigenvalues --   -0.85968  -0.85397  -0.84521  -0.83599  -0.83240
 Alpha  occ. eigenvalues --   -0.82551  -0.81817  -0.81348  -0.80861  -0.80135
 Alpha  occ. eigenvalues --   -0.79889  -0.78387  -0.78069  -0.77093  -0.75607
 Alpha  occ. eigenvalues --   -0.75480  -0.75396  -0.74731  -0.74466  -0.74128
 Alpha  occ. eigenvalues --   -0.73581  -0.72871  -0.71711  -0.70774  -0.69269
 Alpha  occ. eigenvalues --   -0.68685  -0.67979  -0.67111  -0.66642  -0.65610
 Alpha  occ. eigenvalues --   -0.64850  -0.64763  -0.64313  -0.64199  -0.63973
 Alpha  occ. eigenvalues --   -0.63709  -0.63566  -0.62409  -0.61380  -0.60138
 Alpha  occ. eigenvalues --   -0.59351  -0.59160  -0.59023  -0.58391  -0.57791
 Alpha  occ. eigenvalues --   -0.57654  -0.57421  -0.56108  -0.56050  -0.55487
 Alpha  occ. eigenvalues --   -0.55164  -0.54829  -0.54766  -0.54732  -0.54139
 Alpha  occ. eigenvalues --   -0.53977  -0.53798  -0.53572  -0.53284  -0.52234
 Alpha  occ. eigenvalues --   -0.52205  -0.52154  -0.51888  -0.51711  -0.51603
 Alpha  occ. eigenvalues --   -0.51478  -0.51113  -0.50929  -0.50838  -0.50795
 Alpha  occ. eigenvalues --   -0.50549  -0.50324  -0.50235  -0.50202  -0.49908
 Alpha  occ. eigenvalues --   -0.49824  -0.49669  -0.49212  -0.49089  -0.48747
 Alpha  occ. eigenvalues --   -0.48650  -0.48200  -0.48118  -0.47745  -0.47669
 Alpha  occ. eigenvalues --   -0.47397  -0.47228  -0.47172  -0.46839  -0.46572
 Alpha  occ. eigenvalues --   -0.46472  -0.46421  -0.46192  -0.46106  -0.45749
 Alpha  occ. eigenvalues --   -0.45419  -0.45336  -0.45236  -0.45081  -0.44978
 Alpha  occ. eigenvalues --   -0.44816  -0.44560  -0.44517  -0.44149  -0.43876
 Alpha  occ. eigenvalues --   -0.43717  -0.43573  -0.43374  -0.43220  -0.43101
 Alpha  occ. eigenvalues --   -0.42967  -0.42861  -0.42756  -0.42527  -0.42279
 Alpha  occ. eigenvalues --   -0.41966  -0.41635  -0.41353  -0.41239  -0.41151
 Alpha  occ. eigenvalues --   -0.40987  -0.40947  -0.40429  -0.40218  -0.39876
 Alpha  occ. eigenvalues --   -0.39563  -0.39366  -0.39044  -0.39024  -0.38560
 Alpha  occ. eigenvalues --   -0.38244  -0.38144  -0.37728  -0.37495  -0.37293
 Alpha  occ. eigenvalues --   -0.37024  -0.36921  -0.36757  -0.36307  -0.36140
 Alpha  occ. eigenvalues --   -0.35787  -0.35195  -0.34541  -0.34462  -0.34330
 Alpha  occ. eigenvalues --   -0.34148  -0.33562  -0.33006  -0.31820  -0.30721
 Alpha  occ. eigenvalues --   -0.29735  -0.29675  -0.29134  -0.29115  -0.23943
 Alpha  occ. eigenvalues --   -0.21129
 Alpha virt. eigenvalues --   -0.08426  -0.01902   0.00357   0.02289   0.03117
 Alpha virt. eigenvalues --    0.05235   0.05297   0.05663   0.06011   0.06822
 Alpha virt. eigenvalues --    0.07525   0.07814   0.08723   0.09092   0.09292

 Mulliken charges:
               1
     1  Mg   0.820901
     2  C    0.016260
     3  C   -0.086208
     4  C   -0.068965
     5  C   -0.077191
     6  N   -0.269709
     7  C   -0.092632
     8  C    0.035851
     9  C   -0.083685
    10  C    0.013505
    11  C    0.073215
    12  C    0.024541
    13  C    0.096751
    14  C    0.115047
    15  O   -0.190372
    16  O   -0.314041
    17  N   -0.414051
    18  C    0.213252
    19  C   -0.139700
    20  C   -0.048538
    21  C    0.141527
    22  C    0.115691
    23  C    0.023491
    24  O   -0.157295
    25  C    0.019128
    26  N   -0.308452
    27  C    0.035288
    28  C   -0.089240
    29  C   -0.014540
    30  C    0.042126
    31  C    0.117410
    32  C    0.022145
    33  C   -0.003675
    34  N   -0.294288
    35  C    0.081722
    36  C   -0.175237
    37  C    0.057534
    38  C    0.103863
    39  C    0.093342
    40  C    0.038133
    41  O   -0.207790
    42  C   -0.089643
    43  C    0.225150
    44  O   -0.198876
    45  O   -0.348558
    46  C    0.169600
    47  C    0.290498
    48  C   -0.144931
    49  C   -0.234024
    50  C    0.077026
    51  C    0.071609
    52  C    0.023087
    53  C    0.080610
    54  C   -0.155368
    55  C    0.039410
    56  C    0.092773
    57  C   -0.004704
    58  C    0.030262
    59  C   -0.192790
    60  C    0.047940
    61  C    0.086842
    62  C    0.014474
    63  C    0.068363
    64  C   -0.193540
    65  C    0.043040
    66  C    0.044157
    67  H   -0.034858
    68  H   -0.006694
    69  H   -0.019713
    70  H    0.032292
    71  H    0.020727
    72  H    0.024691
    73  H    0.003036
    74  H    0.045867
    75  H    0.010945
    76  H    0.038299
    77  H    0.020482
    78  H    0.032630
    79  H    0.022922
    80  H    0.035652
    81  H    0.018750
    82  H    0.004878
    83  H    0.032945
    84  H    0.037702
    85  H    0.018690
    86  H    0.006726
    87  H    0.016340
    88  H    0.014716
    89  H    0.032107
    90  H    0.006242
    91  H    0.000540
    92  H    0.010997
    93  H    0.025710
    94  H    0.023871
    95  H    0.033993
    96  H    0.026345
    97  H    0.019956
    98  H    0.052993
    99  H    0.024182
   100  H    0.029663
   101  H    0.039290
   102  H    0.035613
   103  H    0.032118
   104  H    0.004941
   105  H    0.031969
   106  H    0.046732
   107  H    0.011494
   108  H    0.006276
   109  H    0.000911
   110  H    0.010370
   111  H    0.000767
   112  H   -0.013301
   113  H    0.001892
   114  H    0.004905
   115  H    0.010846
   116  H    0.011629
   117  H    0.004350
   118  H   -0.012564
   119  H   -0.022573
   120  H    0.003863
   121  H    0.001499
   122  H   -0.007386
   123  H   -0.005409
   124  H   -0.011320
   125  H    0.010225
   126  H   -0.000773
   127  H    0.007250
   128  H   -0.008010
   129  H   -0.001015
   130  H    0.016517
   131  H   -0.008723
   132  H   -0.000841
   133  H    0.002143
   134  H    0.012714
   135  H    0.001637
   136  H   -0.000932
   137  H    0.009943
   138  H   -0.009123
   139  H    0.018063
   140  H   -0.007138
 Sum of Mulliken charges =  -0.00000

 Dipole moment (field-independent basis, Debye):
    X=             -4.0085    Y=              4.9147    Z=              0.2268  Tot=              6.3461
 Quadrupole moment (field-independent basis, Debye-Ang):
   XX=           -379.6751   YY=           -413.5941   ZZ=           -412.4571
   XY=             15.6644   XZ=              9.1184   YZ=             -3.5070

 Normal termination of Gaussian 16 at Wed May  4 17:31:04 2022.
