 Gaussian 16, Revision A.03,
 Gaussian 16:  ES64L-G16RevA.03 25-Dec-2016

 ---------------------------------
 #p PBE1PBE/Def2SVP td=(nstates=5)
 ---------------------------------

 -----------------------------------------------------
 step_301_chromophore_10 TDDFT with PBE1PBE functional
 -----------------------------------------------------
 Symbolic Z-matrix:
 Charge =  0 Multiplicity = 1

                         Standard orientation:
 ---------------------------------------------------------------------
 Center     Atomic      Atomic             Coordinates (Angstroms)
 Number     Number       Type             X           Y           Z
 ---------------------------------------------------------------------
      1         12           0        5.958791    0.480183    0.026217
      2          6           0        3.622312   -2.106572    0.042046
      3          6           0        3.442015    2.642956   -1.048210
      4          6           0        8.278048    2.926791   -0.288805
      5          6           0        8.408009   -1.876011    0.769542
      6          7           0        3.781191    0.243871   -0.580126
      7          6           0        3.001524   -0.923425   -0.376721
      8          6           0        1.558811   -0.675267   -0.675309
      9          6           0        1.493239    0.830700   -1.079353
     10          6           0        2.995602    1.253219   -0.979576
     11          6           0        0.809740    1.148828   -2.459525
     12          6           0        0.599629   -1.224663    0.433144
     13          6           0       -0.855065   -0.772273    0.425187
     14          6           0       -1.854133   -1.850677   -0.197370
     15          8           0       -1.573882   -2.584911   -1.086186
     16          8           0       -3.007622   -1.883664    0.493920
     17          7           0        5.868489    2.535963   -0.463059
     18          6           0        4.705251    3.233914   -0.851209
     19          6           0        5.109540    4.600641   -1.080855
     20          6           0        6.513590    4.771253   -0.775475
     21          6           0        6.990216    3.359938   -0.579280
     22          6           0        4.212797    5.670286   -1.529358
     23          6           0        7.349064    6.013100   -0.508160
     24          8           0        8.444212    6.000630   -0.067007
     25          6           0        6.702686    7.389739   -0.603004
     26          7           0        8.029874    0.510123    0.212298
     27          6           0        8.780113    1.606608   -0.043736
     28          6           0       10.299522    1.354108    0.218303
     29          6           0       10.248514   -0.124009    0.806668
     30          6           0        8.792467   -0.521645    0.701534
     31          6           0       11.160109    1.582401   -1.022016
     32          6           0       10.683581   -0.198631    2.306073
     33          6           0       10.193832    0.872596    3.317189
     34          7           0        6.093878   -1.578784    0.294851
     35          6           0        7.101409   -2.388771    0.619453
     36          6           0        6.690489   -3.710750    0.785133
     37          6           0        5.322652   -3.593148    0.649576
     38          6           0        5.002980   -2.325103    0.303772
     39          6           0        7.611271   -4.781294    1.381674
     40          6           0        4.104655   -4.316395    0.849713
     41          8           0        4.004274   -5.434887    1.415253
     42          6           0        2.940423   -3.352804    0.411310
     43          6           0        2.246203   -3.947532   -0.827528
     44          8           0        2.423099   -3.791244   -2.026471
     45          8           0        1.189911   -4.745857   -0.349569
     46          6           0        0.525299   -5.565685   -1.345138
     47          6           0       -3.854061   -3.081579    0.325027
     48          6           0       -5.319070   -2.678584    0.369365
     49          6           0       -6.385104   -3.374553   -0.158106
     50          6           0       -6.219540   -4.681180   -0.901407
     51          6           0       -7.868701   -2.839385   -0.012249
     52          6           0       -8.338279   -1.936973   -1.162735
     53          6           0       -7.910625   -0.411843   -0.966292
     54          6           0       -9.169559    0.401709   -0.719750
     55          6           0       -9.820782    0.869185   -2.025804
     56          6           0       -8.998636    1.685454    0.203736
     57          6           0      -10.333605    2.322088    0.577056
     58          6           0      -10.652364    2.354346    2.095759
     59          6           0      -11.958314    3.281394    2.362553
     60          6           0      -11.764698    4.069676    3.678522
     61          6           0      -13.332306    2.547286    2.283204
     62          6           0      -13.921985    2.659919    0.893345
     63          6           0      -14.687443    1.358558    0.572824
     64          6           0      -14.005274    0.773864   -0.732411
     65          6           0      -14.836288    0.931476   -2.077557
     66          6           0      -13.607158   -0.661380   -0.492290
     67          1           0        2.579575    3.275177   -1.268519
     68          1           0        9.038699    3.710017   -0.277068
     69          1           0        9.142730   -2.522695    1.254488
     70          1           0        1.501963   -1.287584   -1.574648
     71          1           0        0.997684    1.342277   -0.254426
     72          1           0        1.448948    1.733167   -3.120622
     73          1           0        0.062821    1.891781   -2.179818
     74          1           0        0.267565    0.322720   -2.920590
     75          1           0        1.043912   -1.158516    1.426232
     76          1           0        0.570860   -2.286856    0.187008
     77          1           0       -0.979536    0.022417   -0.310075
     78          1           0       -1.186020   -0.477192    1.421014
     79          1           0        3.182306    5.393135   -1.754158
     80          1           0        4.698286    6.204855   -2.345769
     81          1           0        4.218297    6.444704   -0.763431
     82          1           0        6.074221    7.514980   -1.484711
     83          1           0        7.473720    8.153439   -0.494381
     84          1           0        5.953523    7.594304    0.161384
     85          1           0       10.507510    2.149567    0.933824
     86          1           0       10.856346   -0.826635    0.238102
     87          1           0       10.443659    1.545464   -1.842405
     88          1           0       11.788559    0.695615   -1.107396
     89          1           0       11.587778    2.576202   -0.894485
     90          1           0       11.770521   -0.128175    2.316829
     91          1           0       10.324618   -1.176421    2.629247
     92          1           0        9.678453    0.251312    4.048647
     93          1           0        9.444328    1.561041    2.926962
     94          1           0       10.984574    1.433377    3.816428
     95          1           0        7.124431   -5.757103    1.406668
     96          1           0        7.688772   -4.378091    2.391003
     97          1           0        8.636408   -4.960682    1.057701
     98          1           0        2.189271   -3.318556    1.200130
     99          1           0       -0.434800   -5.066618   -1.474990
    100          1           0        0.295659   -6.595949   -1.072924
    101          1           0        0.928767   -5.622398   -2.355401
    102          1           0       -3.748187   -3.807475    1.130932
    103          1           0       -3.769031   -3.660136   -0.594810
    104          1           0       -5.483951   -1.636877    0.645398
    105          1           0       -5.720052   -5.376976   -0.226450
    106          1           0       -5.624408   -4.403564   -1.770349
    107          1           0       -7.195680   -5.087117   -1.169360
    108          1           0       -7.793479   -2.246905    0.899495
    109          1           0       -8.513963   -3.703984    0.144862
    110          1           0       -9.415248   -2.093564   -1.100038
    111          1           0       -7.992421   -2.266800   -2.142204
    112          1           0       -7.516339   -0.185704   -1.957168
    113          1           0       -7.095077   -0.131766   -0.299376
    114          1           0       -9.839493   -0.263066   -0.175052
    115          1           0       -9.204231    0.947825   -2.922197
    116          1           0      -10.351476    1.820653   -2.054827
    117          1           0      -10.649936    0.170089   -2.130765
    118          1           0       -8.318085    2.403280   -0.254204
    119          1           0       -8.485236    1.441365    1.133873
    120          1           0      -11.145833    1.688427    0.219943
    121          1           0      -10.431584    3.381676    0.343982
    122          1           0       -9.788055    2.783092    2.602265
    123          1           0      -10.926900    1.383632    2.508415
    124          1           0      -11.998083    4.089194    1.632745
    125          1           0      -10.724281    4.278716    3.926825
    126          1           0      -12.198337    3.473678    4.481291
    127          1           0      -12.401710    4.945237    3.550577
    128          1           0      -13.954276    3.092394    2.993020
    129          1           0      -13.101139    1.533076    2.608645
    130          1           0      -13.160430    3.001214    0.192491
    131          1           0      -14.717366    3.402062    0.827589
    132          1           0      -15.751017    1.463635    0.356722
    133          1           0      -14.537373    0.616413    1.357012
    134          1           0      -13.097300    1.317709   -0.990596
    135          1           0      -15.787267    1.451086   -1.965017
    136          1           0      -15.083444   -0.059211   -2.457813
    137          1           0      -14.267302    1.456348   -2.845812
    138          1           0      -14.131044   -1.118126    0.346149
    139          1           0      -12.531937   -0.755215   -0.336644
    140          1           0      -14.028503   -1.368755   -1.206149
 ---------------------------------------------------------------------

 SCF Done:  E(RPBE1PBE) =  -3005.31696456     A.U. after   16 cycles

 Excitation energies and oscillator strengths:

 Excited State   1:      Singlet-A      1.8568 eV  667.72 nm  f=0.3471  <S**2>=0.000
     245 -> 248       -0.17485
     246 -> 247        0.69045
 This state for optimization and/or second-order correction.
 Total Energy, E(TD-HF/TD-DFT) =  -3005.24872757
 Copying the excited state density for this state as the 1-particle RhoCI density.

 Excited State   2:      Singlet-A      2.2149 eV  559.77 nm  f=0.0975  <S**2>=0.000
     245 -> 247        0.64635
     246 -> 248        0.26724

 Excited State   3:      Singlet-A      2.9361 eV  422.27 nm  f=0.0003  <S**2>=0.000
     242 -> 247        0.64514
     242 -> 249        0.17452
     243 -> 247       -0.19015

 Excited State   4:      Singlet-A      2.9718 eV  417.20 nm  f=0.0012  <S**2>=0.000
     241 -> 247        0.12159
     242 -> 247        0.18711
     243 -> 247        0.65372
     246 -> 248       -0.11918

 Excited State   5:      Singlet-A      3.1475 eV  393.92 nm  f=0.0014  <S**2>=0.000
     240 -> 247       -0.14640
     241 -> 247        0.63888
     243 -> 247       -0.14803
     246 -> 248       -0.18943

 The electronic state is 1-A.
 Alpha  occ. eigenvalues --  -46.91813 -19.26663 -19.24596 -19.20865 -19.20425
 Alpha  occ. eigenvalues --  -19.19490 -19.18328 -14.41909 -14.41287 -14.39137
 Alpha  occ. eigenvalues --  -14.37881 -10.36903 -10.36591 -10.32498 -10.31444
 Alpha  occ. eigenvalues --  -10.30063 -10.29645 -10.28937 -10.28552 -10.28478
 Alpha  occ. eigenvalues --  -10.28333 -10.27875 -10.26946 -10.26909 -10.26643
 Alpha  occ. eigenvalues --  -10.26159 -10.25794 -10.25544 -10.25525 -10.25479
 Alpha  occ. eigenvalues --  -10.25401 -10.25270 -10.25228 -10.25215 -10.25133
 Alpha  occ. eigenvalues --  -10.25071 -10.24908 -10.24418 -10.24194 -10.24099
 Alpha  occ. eigenvalues --  -10.23914 -10.23904 -10.23860 -10.23788 -10.23725
 Alpha  occ. eigenvalues --  -10.23672 -10.23560 -10.23334 -10.23219 -10.23211
 Alpha  occ. eigenvalues --  -10.23209 -10.23079 -10.23023 -10.22851 -10.22648
 Alpha  occ. eigenvalues --  -10.22572 -10.22318 -10.22315 -10.22272 -10.22261
 Alpha  occ. eigenvalues --  -10.22010 -10.21865 -10.21757 -10.21564 -10.21471
 Alpha  occ. eigenvalues --  -10.21324  -3.13886  -1.86745  -1.86252  -1.86108
 Alpha  occ. eigenvalues --   -1.13067  -1.09825  -1.07676  -1.04668  -1.02046
 Alpha  occ. eigenvalues --   -1.01784  -1.00252  -0.97725  -0.97636  -0.95717
 Alpha  occ. eigenvalues --   -0.87917  -0.84410  -0.83957  -0.83695  -0.83003
 Alpha  occ. eigenvalues --   -0.82801  -0.82388  -0.81509  -0.81303  -0.81265
 Alpha  occ. eigenvalues --   -0.80498  -0.79619  -0.78686  -0.77945  -0.77568
 Alpha  occ. eigenvalues --   -0.76781  -0.75954  -0.75468  -0.75055  -0.74341
 Alpha  occ. eigenvalues --   -0.74229  -0.72501  -0.72359  -0.71491  -0.69935
 Alpha  occ. eigenvalues --   -0.69736  -0.69490  -0.69140  -0.68602  -0.68312
 Alpha  occ. eigenvalues --   -0.67886  -0.67375  -0.66075  -0.65120  -0.63645
 Alpha  occ. eigenvalues --   -0.63150  -0.62254  -0.61547  -0.60888  -0.59995
 Alpha  occ. eigenvalues --   -0.59403  -0.59128  -0.58862  -0.58476  -0.58308
 Alpha  occ. eigenvalues --   -0.58243  -0.57737  -0.56596  -0.56071  -0.54452
 Alpha  occ. eigenvalues --   -0.53968  -0.53807  -0.53476  -0.53043  -0.52249
 Alpha  occ. eigenvalues --   -0.52184  -0.51940  -0.50698  -0.50545  -0.50043
 Alpha  occ. eigenvalues --   -0.49665  -0.49331  -0.49271  -0.49089  -0.48568
 Alpha  occ. eigenvalues --   -0.48509  -0.48243  -0.48069  -0.47927  -0.46968
 Alpha  occ. eigenvalues --   -0.46684  -0.46445  -0.46308  -0.46173  -0.46096
 Alpha  occ. eigenvalues --   -0.46078  -0.45710  -0.45576  -0.45470  -0.45319
 Alpha  occ. eigenvalues --   -0.45087  -0.44872  -0.44814  -0.44601  -0.44508
 Alpha  occ. eigenvalues --   -0.44408  -0.44244  -0.43664  -0.43512  -0.43443
 Alpha  occ. eigenvalues --   -0.43304  -0.42926  -0.42883  -0.42352  -0.42308
 Alpha  occ. eigenvalues --   -0.42032  -0.41972  -0.41774  -0.41460  -0.41277
 Alpha  occ. eigenvalues --   -0.41215  -0.41104  -0.40860  -0.40701  -0.40647
 Alpha  occ. eigenvalues --   -0.40221  -0.40088  -0.39977  -0.39852  -0.39629
 Alpha  occ. eigenvalues --   -0.39485  -0.39288  -0.39260  -0.39075  -0.38636
 Alpha  occ. eigenvalues --   -0.38524  -0.38299  -0.38258  -0.38062  -0.37919
 Alpha  occ. eigenvalues --   -0.37754  -0.37661  -0.37527  -0.37280  -0.37091
 Alpha  occ. eigenvalues --   -0.36779  -0.36523  -0.36275  -0.36125  -0.35968
 Alpha  occ. eigenvalues --   -0.35908  -0.35685  -0.35278  -0.35113  -0.34697
 Alpha  occ. eigenvalues --   -0.34335  -0.34281  -0.33969  -0.33801  -0.33365
 Alpha  occ. eigenvalues --   -0.33189  -0.33099  -0.32568  -0.32519  -0.32166
 Alpha  occ. eigenvalues --   -0.31918  -0.31813  -0.31617  -0.31410  -0.31062
 Alpha  occ. eigenvalues --   -0.30688  -0.30168  -0.29553  -0.29507  -0.29302
 Alpha  occ. eigenvalues --   -0.29263  -0.28611  -0.28500  -0.26513  -0.26205
 Alpha  occ. eigenvalues --   -0.25244  -0.24887  -0.24881  -0.24430  -0.20800
 Alpha  occ. eigenvalues --   -0.18706
 Alpha virt. eigenvalues --   -0.10982  -0.05433  -0.03781  -0.02090   0.00249
 Alpha virt. eigenvalues --    0.00638   0.00802   0.01222   0.01486   0.03150
 Alpha virt. eigenvalues --    0.04057   0.04167   0.04595   0.05500   0.05898

 Mulliken charges:
               1
     1  Mg   0.969597
     2  C    0.005353
     3  C   -0.081720
     4  C   -0.061553
     5  C   -0.057698
     6  N   -0.372801
     7  C   -0.011706
     8  C   -0.021143
     9  C   -0.169920
    10  C    0.064107
    11  C    0.016026
    12  C   -0.041493
    13  C    0.018051
    14  C    0.186561
    15  O   -0.224790
    16  O   -0.347362
    17  N   -0.518756
    18  C    0.231862
    19  C   -0.181893
    20  C   -0.088861
    21  C    0.168768
    22  C    0.055027
    23  C    0.070657
    24  O   -0.198010
    25  C   -0.053727
    26  N   -0.414447
    27  C    0.064790
    28  C   -0.157884
    29  C   -0.098530
    30  C    0.082311
    31  C    0.057822
    32  C   -0.037540
    33  C   -0.075941
    34  N   -0.431303
    35  C    0.096188
    36  C   -0.169826
    37  C   -0.004618
    38  C    0.155831
    39  C    0.035451
    40  C    0.138548
    41  O   -0.249573
    42  C   -0.198724
    43  C    0.307730
    44  O   -0.233461
    45  O   -0.378401
    46  C    0.114156
    47  C    0.249045
    48  C   -0.159687
    49  C   -0.265627
    50  C    0.009494
    51  C    0.004452
    52  C   -0.040467
    53  C    0.028768
    54  C   -0.254372
    55  C   -0.016482
    56  C    0.045939
    57  C   -0.087620
    58  C   -0.019650
    59  C   -0.273500
    60  C   -0.015345
    61  C    0.031611
    62  C   -0.050783
    63  C    0.014060
    64  C   -0.290889
    65  C   -0.012100
    66  C   -0.016762
    67  H   -0.001706
    68  H    0.025169
    69  H    0.009434
    70  H    0.072559
    71  H    0.058439
    72  H    0.052235
    73  H    0.029947
    74  H    0.070405
    75  H    0.044133
    76  H    0.081274
    77  H    0.057506
    78  H    0.063841
    79  H    0.048219
    80  H    0.062590
    81  H    0.046457
    82  H    0.031339
    83  H    0.059174
    84  H    0.063676
    85  H    0.055134
    86  H    0.042702
    87  H    0.045939
    88  H    0.042081
    89  H    0.058563
    90  H    0.040603
    91  H    0.034527
    92  H    0.038862
    93  H    0.055425
    94  H    0.051607
    95  H    0.063465
    96  H    0.056762
    97  H    0.048000
    98  H    0.087512
    99  H    0.049245
   100  H    0.052340
   101  H    0.060968
   102  H    0.063053
   103  H    0.058179
   104  H    0.036307
   105  H    0.059825
   106  H    0.073168
   107  H    0.038948
   108  H    0.039803
   109  H    0.032879
   110  H    0.041317
   111  H    0.033186
   112  H    0.020855
   113  H    0.032860
   114  H    0.046936
   115  H    0.037313
   116  H    0.038953
   117  H    0.033780
   118  H    0.020748
   119  H    0.009971
   120  H    0.049522
   121  H    0.034070
   122  H    0.024934
   123  H    0.026937
   124  H    0.027288
   125  H    0.037452
   126  H    0.028313
   127  H    0.035733
   128  H    0.025898
   129  H    0.030558
   130  H    0.046526
   131  H    0.025598
   132  H    0.030915
   133  H    0.033786
   134  H    0.052687
   135  H    0.028489
   136  H    0.025918
   137  H    0.036544
   138  H    0.017769
   139  H    0.048060
   140  H    0.019254
 Sum of Mulliken charges =  -0.00000

 Dipole moment (field-independent basis, Debye):
    X=             -3.9342    Y=              3.9950    Z=              0.5131  Tot=              5.6304
 Quadrupole moment (field-independent basis, Debye-Ang):
   XX=           -372.6603   YY=           -411.7295   ZZ=           -409.9697
   XY=              9.7836   XZ=             11.6318   YZ=             -3.4069

 Normal termination of Gaussian 16 at Wed May  4 17:57:22 2022.
