 Gaussian 16, Revision A.03,
 Gaussian 16:  ES64L-G16RevA.03 25-Dec-2016

 --------------------------------
 #p wB97XD/Def2SVP td=(nstates=5)
 --------------------------------

 ----------------------------------------------------
 step_301_chromophore_10 TDDFT with wB97XD functional
 ----------------------------------------------------
 Symbolic Z-matrix:
 Charge =  0 Multiplicity = 1

                         Standard orientation:
 ---------------------------------------------------------------------
 Center     Atomic      Atomic             Coordinates (Angstroms)
 Number     Number       Type             X           Y           Z
 ---------------------------------------------------------------------
      1         12           0        5.958791    0.480183    0.026217
      2          6           0        3.622312   -2.106572    0.042046
      3          6           0        3.442015    2.642956   -1.048210
      4          6           0        8.278048    2.926791   -0.288805
      5          6           0        8.408009   -1.876011    0.769542
      6          7           0        3.781191    0.243871   -0.580126
      7          6           0        3.001524   -0.923425   -0.376721
      8          6           0        1.558811   -0.675267   -0.675309
      9          6           0        1.493239    0.830700   -1.079353
     10          6           0        2.995602    1.253219   -0.979576
     11          6           0        0.809740    1.148828   -2.459525
     12          6           0        0.599629   -1.224663    0.433144
     13          6           0       -0.855065   -0.772273    0.425187
     14          6           0       -1.854133   -1.850677   -0.197370
     15          8           0       -1.573882   -2.584911   -1.086186
     16          8           0       -3.007622   -1.883664    0.493920
     17          7           0        5.868489    2.535963   -0.463059
     18          6           0        4.705251    3.233914   -0.851209
     19          6           0        5.109540    4.600641   -1.080855
     20          6           0        6.513590    4.771253   -0.775475
     21          6           0        6.990216    3.359938   -0.579280
     22          6           0        4.212797    5.670286   -1.529358
     23          6           0        7.349064    6.013100   -0.508160
     24          8           0        8.444212    6.000630   -0.067007
     25          6           0        6.702686    7.389739   -0.603004
     26          7           0        8.029874    0.510123    0.212298
     27          6           0        8.780113    1.606608   -0.043736
     28          6           0       10.299522    1.354108    0.218303
     29          6           0       10.248514   -0.124009    0.806668
     30          6           0        8.792467   -0.521645    0.701534
     31          6           0       11.160109    1.582401   -1.022016
     32          6           0       10.683581   -0.198631    2.306073
     33          6           0       10.193832    0.872596    3.317189
     34          7           0        6.093878   -1.578784    0.294851
     35          6           0        7.101409   -2.388771    0.619453
     36          6           0        6.690489   -3.710750    0.785133
     37          6           0        5.322652   -3.593148    0.649576
     38          6           0        5.002980   -2.325103    0.303772
     39          6           0        7.611271   -4.781294    1.381674
     40          6           0        4.104655   -4.316395    0.849713
     41          8           0        4.004274   -5.434887    1.415253
     42          6           0        2.940423   -3.352804    0.411310
     43          6           0        2.246203   -3.947532   -0.827528
     44          8           0        2.423099   -3.791244   -2.026471
     45          8           0        1.189911   -4.745857   -0.349569
     46          6           0        0.525299   -5.565685   -1.345138
     47          6           0       -3.854061   -3.081579    0.325027
     48          6           0       -5.319070   -2.678584    0.369365
     49          6           0       -6.385104   -3.374553   -0.158106
     50          6           0       -6.219540   -4.681180   -0.901407
     51          6           0       -7.868701   -2.839385   -0.012249
     52          6           0       -8.338279   -1.936973   -1.162735
     53          6           0       -7.910625   -0.411843   -0.966292
     54          6           0       -9.169559    0.401709   -0.719750
     55          6           0       -9.820782    0.869185   -2.025804
     56          6           0       -8.998636    1.685454    0.203736
     57          6           0      -10.333605    2.322088    0.577056
     58          6           0      -10.652364    2.354346    2.095759
     59          6           0      -11.958314    3.281394    2.362553
     60          6           0      -11.764698    4.069676    3.678522
     61          6           0      -13.332306    2.547286    2.283204
     62          6           0      -13.921985    2.659919    0.893345
     63          6           0      -14.687443    1.358558    0.572824
     64          6           0      -14.005274    0.773864   -0.732411
     65          6           0      -14.836288    0.931476   -2.077557
     66          6           0      -13.607158   -0.661380   -0.492290
     67          1           0        2.579575    3.275177   -1.268519
     68          1           0        9.038699    3.710017   -0.277068
     69          1           0        9.142730   -2.522695    1.254488
     70          1           0        1.501963   -1.287584   -1.574648
     71          1           0        0.997684    1.342277   -0.254426
     72          1           0        1.448948    1.733167   -3.120622
     73          1           0        0.062821    1.891781   -2.179818
     74          1           0        0.267565    0.322720   -2.920590
     75          1           0        1.043912   -1.158516    1.426232
     76          1           0        0.570860   -2.286856    0.187008
     77          1           0       -0.979536    0.022417   -0.310075
     78          1           0       -1.186020   -0.477192    1.421014
     79          1           0        3.182306    5.393135   -1.754158
     80          1           0        4.698286    6.204855   -2.345769
     81          1           0        4.218297    6.444704   -0.763431
     82          1           0        6.074221    7.514980   -1.484711
     83          1           0        7.473720    8.153439   -0.494381
     84          1           0        5.953523    7.594304    0.161384
     85          1           0       10.507510    2.149567    0.933824
     86          1           0       10.856346   -0.826635    0.238102
     87          1           0       10.443659    1.545464   -1.842405
     88          1           0       11.788559    0.695615   -1.107396
     89          1           0       11.587778    2.576202   -0.894485
     90          1           0       11.770521   -0.128175    2.316829
     91          1           0       10.324618   -1.176421    2.629247
     92          1           0        9.678453    0.251312    4.048647
     93          1           0        9.444328    1.561041    2.926962
     94          1           0       10.984574    1.433377    3.816428
     95          1           0        7.124431   -5.757103    1.406668
     96          1           0        7.688772   -4.378091    2.391003
     97          1           0        8.636408   -4.960682    1.057701
     98          1           0        2.189271   -3.318556    1.200130
     99          1           0       -0.434800   -5.066618   -1.474990
    100          1           0        0.295659   -6.595949   -1.072924
    101          1           0        0.928767   -5.622398   -2.355401
    102          1           0       -3.748187   -3.807475    1.130932
    103          1           0       -3.769031   -3.660136   -0.594810
    104          1           0       -5.483951   -1.636877    0.645398
    105          1           0       -5.720052   -5.376976   -0.226450
    106          1           0       -5.624408   -4.403564   -1.770349
    107          1           0       -7.195680   -5.087117   -1.169360
    108          1           0       -7.793479   -2.246905    0.899495
    109          1           0       -8.513963   -3.703984    0.144862
    110          1           0       -9.415248   -2.093564   -1.100038
    111          1           0       -7.992421   -2.266800   -2.142204
    112          1           0       -7.516339   -0.185704   -1.957168
    113          1           0       -7.095077   -0.131766   -0.299376
    114          1           0       -9.839493   -0.263066   -0.175052
    115          1           0       -9.204231    0.947825   -2.922197
    116          1           0      -10.351476    1.820653   -2.054827
    117          1           0      -10.649936    0.170089   -2.130765
    118          1           0       -8.318085    2.403280   -0.254204
    119          1           0       -8.485236    1.441365    1.133873
    120          1           0      -11.145833    1.688427    0.219943
    121          1           0      -10.431584    3.381676    0.343982
    122          1           0       -9.788055    2.783092    2.602265
    123          1           0      -10.926900    1.383632    2.508415
    124          1           0      -11.998083    4.089194    1.632745
    125          1           0      -10.724281    4.278716    3.926825
    126          1           0      -12.198337    3.473678    4.481291
    127          1           0      -12.401710    4.945237    3.550577
    128          1           0      -13.954276    3.092394    2.993020
    129          1           0      -13.101139    1.533076    2.608645
    130          1           0      -13.160430    3.001214    0.192491
    131          1           0      -14.717366    3.402062    0.827589
    132          1           0      -15.751017    1.463635    0.356722
    133          1           0      -14.537373    0.616413    1.357012
    134          1           0      -13.097300    1.317709   -0.990596
    135          1           0      -15.787267    1.451086   -1.965017
    136          1           0      -15.083444   -0.059211   -2.457813
    137          1           0      -14.267302    1.456348   -2.845812
    138          1           0      -14.131044   -1.118126    0.346149
    139          1           0      -12.531937   -0.755215   -0.336644
    140          1           0      -14.028503   -1.368755   -1.206149
 ---------------------------------------------------------------------

 SCF Done:  E(RwB97XD) =  -3007.83017287     A.U. after   19 cycles

 Excitation energies and oscillator strengths:

 Excited State   1:      Singlet-A      1.7503 eV  708.37 nm  f=0.3605  <S**2>=0.000
     245 -> 248        0.17708
     246 -> 247        0.68357
     245 <- 248        0.10690
 This state for optimization and/or second-order correction.
 Total Energy, E(TD-HF/TD-DFT) =  -3007.76585186
 Copying the excited state density for this state as the 1-particle RhoCI density.

 Excited State   2:      Singlet-A      2.1777 eV  569.34 nm  f=0.1002  <S**2>=0.000
     241 -> 247        0.10591
     245 -> 247        0.63184
     246 -> 248       -0.28953

 Excited State   3:      Singlet-A      3.2390 eV  382.79 nm  f=0.0228  <S**2>=0.000
     240 -> 247        0.11369
     241 -> 247        0.58617
     243 -> 247       -0.23659
     246 -> 248        0.25610

 Excited State   4:      Singlet-A      3.5545 eV  348.81 nm  f=0.6580  <S**2>=0.000
     241 -> 247       -0.10523
     243 -> 247        0.31295
     245 -> 247        0.27315
     246 -> 248        0.54779

 Excited State   5:      Singlet-A      3.5672 eV  347.56 nm  f=0.0005  <S**2>=0.000
     242 -> 247        0.50742
     242 -> 249       -0.34487
     242 -> 250        0.30689

 The electronic state is 1-A.
 Alpha  occ. eigenvalues --  -46.94751 -19.31180 -19.29020 -19.25476 -19.25004
 Alpha  occ. eigenvalues --  -19.24710 -19.22677 -14.47115 -14.46295 -14.44242
 Alpha  occ. eigenvalues --  -14.42535 -10.43616 -10.43279 -10.39743 -10.37915
 Alpha  occ. eigenvalues --  -10.36513 -10.36360 -10.35595 -10.35462 -10.35209
 Alpha  occ. eigenvalues --  -10.34511 -10.34117 -10.33750 -10.33283 -10.33028
 Alpha  occ. eigenvalues --  -10.32369 -10.32314 -10.32193 -10.32180 -10.31726
 Alpha  occ. eigenvalues --  -10.31451 -10.31419 -10.31379 -10.31354 -10.31311
 Alpha  occ. eigenvalues --  -10.31202 -10.31131 -10.31001 -10.30616 -10.30328
 Alpha  occ. eigenvalues --  -10.30110 -10.30091 -10.30069 -10.30068 -10.30050
 Alpha  occ. eigenvalues --  -10.30020 -10.29985 -10.29920 -10.29700 -10.29533
 Alpha  occ. eigenvalues --  -10.29473 -10.29268 -10.29218 -10.29205 -10.28981
 Alpha  occ. eigenvalues --  -10.28929 -10.28698 -10.28665 -10.28652 -10.28636
 Alpha  occ. eigenvalues --  -10.28378 -10.28273 -10.28197 -10.27991 -10.27880
 Alpha  occ. eigenvalues --  -10.27085  -3.20683  -1.94290  -1.93799  -1.93651
 Alpha  occ. eigenvalues --   -1.20375  -1.17097  -1.15514  -1.11936  -1.09105
 Alpha  occ. eigenvalues --   -1.09020  -1.07134  -1.05138  -1.05098  -1.03499
 Alpha  occ. eigenvalues --   -0.95262  -0.92083  -0.91581  -0.91344  -0.90855
 Alpha  occ. eigenvalues --   -0.90459  -0.90018  -0.89343  -0.88924  -0.88831
 Alpha  occ. eigenvalues --   -0.87861  -0.87273  -0.86365  -0.85468  -0.85152
 Alpha  occ. eigenvalues --   -0.84429  -0.83766  -0.83220  -0.82762  -0.81982
 Alpha  occ. eigenvalues --   -0.81845  -0.80417  -0.79961  -0.78977  -0.77470
 Alpha  occ. eigenvalues --   -0.77378  -0.77180  -0.76660  -0.76291  -0.75970
 Alpha  occ. eigenvalues --   -0.75498  -0.74839  -0.73656  -0.72734  -0.71177
 Alpha  occ. eigenvalues --   -0.70683  -0.69865  -0.69137  -0.68519  -0.67570
 Alpha  occ. eigenvalues --   -0.66817  -0.66684  -0.66272  -0.66030  -0.65895
 Alpha  occ. eigenvalues --   -0.65662  -0.65389  -0.64241  -0.63347  -0.62214
 Alpha  occ. eigenvalues --   -0.61291  -0.61154  -0.60947  -0.60353  -0.59716
 Alpha  occ. eigenvalues --   -0.59613  -0.59330  -0.58101  -0.57999  -0.57458
 Alpha  occ. eigenvalues --   -0.57083  -0.56765  -0.56675  -0.56588  -0.56082
 Alpha  occ. eigenvalues --   -0.55879  -0.55673  -0.55485  -0.55193  -0.54219
 Alpha  occ. eigenvalues --   -0.54156  -0.54061  -0.53767  -0.53601  -0.53450
 Alpha  occ. eigenvalues --   -0.53349  -0.53024  -0.52859  -0.52775  -0.52694
 Alpha  occ. eigenvalues --   -0.52468  -0.52234  -0.52191  -0.52125  -0.51827
 Alpha  occ. eigenvalues --   -0.51738  -0.51570  -0.51250  -0.50965  -0.50639
 Alpha  occ. eigenvalues --   -0.50549  -0.50074  -0.50072  -0.49618  -0.49568
 Alpha  occ. eigenvalues --   -0.49248  -0.49165  -0.49030  -0.48847  -0.48480
 Alpha  occ. eigenvalues --   -0.48373  -0.48303  -0.48131  -0.47950  -0.47631
 Alpha  occ. eigenvalues --   -0.47356  -0.47223  -0.47132  -0.47014  -0.46913
 Alpha  occ. eigenvalues --   -0.46732  -0.46428  -0.46398  -0.46046  -0.45768
 Alpha  occ. eigenvalues --   -0.45631  -0.45446  -0.45317  -0.45121  -0.44960
 Alpha  occ. eigenvalues --   -0.44838  -0.44790  -0.44737  -0.44495  -0.44217
 Alpha  occ. eigenvalues --   -0.43855  -0.43562  -0.43321  -0.43115  -0.43036
 Alpha  occ. eigenvalues --   -0.42937  -0.42796  -0.42298  -0.42119  -0.41737
 Alpha  occ. eigenvalues --   -0.41406  -0.41279  -0.40916  -0.40863  -0.40424
 Alpha  occ. eigenvalues --   -0.40166  -0.40069  -0.39588  -0.39424  -0.39179
 Alpha  occ. eigenvalues --   -0.38911  -0.38859  -0.38613  -0.38408  -0.37989
 Alpha  occ. eigenvalues --   -0.37638  -0.37137  -0.36436  -0.36348  -0.36258
 Alpha  occ. eigenvalues --   -0.36115  -0.35403  -0.35224  -0.33847  -0.32947
 Alpha  occ. eigenvalues --   -0.31928  -0.31606  -0.31209  -0.31182  -0.25899
 Alpha  occ. eigenvalues --   -0.22964
 Alpha virt. eigenvalues --   -0.06745   0.00042   0.02420   0.04451   0.06155
 Alpha virt. eigenvalues --    0.07518   0.07549   0.08064   0.08295   0.09577
 Alpha virt. eigenvalues --    0.10359   0.10726   0.11549   0.12127   0.12631

 Mulliken charges:
               1
     1  Mg   0.959360
     2  C    0.006709
     3  C   -0.100660
     4  C   -0.083149
     5  C   -0.075644
     6  N   -0.338485
     7  C   -0.048945
     8  C   -0.002034
     9  C   -0.142228
    10  C    0.048763
    11  C    0.025295
    12  C   -0.014021
    13  C    0.033480
    14  C    0.176717
    15  O   -0.222422
    16  O   -0.346210
    17  N   -0.493929
    18  C    0.231935
    19  C   -0.162045
    20  C   -0.086059
    21  C    0.167784
    22  C    0.067698
    23  C    0.070424
    24  O   -0.189947
    25  C   -0.042183
    26  N   -0.381473
    27  C    0.058539
    28  C   -0.135950
    29  C   -0.069487
    30  C    0.064951
    31  C    0.067633
    32  C   -0.021325
    33  C   -0.060285
    34  N   -0.388250
    35  C    0.086478
    36  C   -0.175843
    37  C    0.003100
    38  C    0.134265
    39  C    0.046992
    40  C    0.114500
    41  O   -0.242978
    42  C   -0.158355
    43  C    0.286740
    44  O   -0.228053
    45  O   -0.377815
    46  C    0.130953
    47  C    0.265726
    48  C   -0.167473
    49  C   -0.256036
    50  C    0.021671
    51  C    0.025885
    52  C   -0.023014
    53  C    0.038910
    54  C   -0.209648
    55  C   -0.006269
    56  C    0.054881
    57  C   -0.047584
    58  C   -0.006533
    59  C   -0.241745
    60  C   -0.000901
    61  C    0.043906
    62  C   -0.030080
    63  C    0.030214
    64  C   -0.256213
    65  C    0.000380
    66  C    0.000380
    67  H   -0.008616
    68  H    0.020457
    69  H    0.002421
    70  H    0.059533
    71  H    0.047135
    72  H    0.046787
    73  H    0.023803
    74  H    0.068163
    75  H    0.037052
    76  H    0.056933
    77  H    0.046399
    78  H    0.060713
    79  H    0.047519
    80  H    0.058103
    81  H    0.040599
    82  H    0.025032
    83  H    0.059752
    84  H    0.059601
    85  H    0.043274
    86  H    0.034287
    87  H    0.038836
    88  H    0.037537
    89  H    0.054452
    90  H    0.032125
    91  H    0.024204
    92  H    0.033833
    93  H    0.044340
    94  H    0.046744
    95  H    0.058858
    96  H    0.047708
    97  H    0.041613
    98  H    0.081669
    99  H    0.043534
   100  H    0.048176
   101  H    0.056570
   102  H    0.058310
   103  H    0.051041
   104  H    0.030540
   105  H    0.054598
   106  H    0.067235
   107  H    0.034553
   108  H    0.030086
   109  H    0.026646
   110  H    0.032316
   111  H    0.026254
   112  H    0.011500
   113  H    0.023713
   114  H    0.026654
   115  H    0.032813
   116  H    0.031836
   117  H    0.024569
   118  H    0.013093
   119  H    0.001232
   120  H    0.016324
   121  H    0.025189
   122  H    0.015277
   123  H    0.017536
   124  H    0.011704
   125  H    0.032094
   126  H    0.020745
   127  H    0.029509
   128  H    0.018071
   129  H    0.019054
   130  H    0.033126
   131  H    0.018985
   132  H    0.023994
   133  H    0.021719
   134  H    0.034442
   135  H    0.022197
   136  H    0.018611
   137  H    0.031485
   138  H    0.011045
   139  H    0.038937
   140  H    0.012825
 Sum of Mulliken charges =  -0.00000

 Dipole moment (field-independent basis, Debye):
    X=             -4.0576    Y=              5.2440    Z=              0.2117  Tot=              6.6338
 Quadrupole moment (field-independent basis, Debye-Ang):
   XX=           -374.5988   YY=           -408.7151   ZZ=           -409.6447
   XY=             17.3749   XZ=              9.5451   YZ=             -3.7064

 Normal termination of Gaussian 16 at Wed May  4 18:38:46 2022.
