 Gaussian 16, Revision A.03,
 Gaussian 16:  ES64L-G16RevA.03 25-Dec-2016

 --------------------
 #p ZINDO=(nstates=5)
 --------------------

 -----------------------------
 step_301_chromophore_10 ZINDO
 -----------------------------
 Symbolic Z-matrix:
 Charge =  0 Multiplicity = 1

                         Standard orientation:
 ---------------------------------------------------------------------
 Center     Atomic      Atomic             Coordinates (Angstroms)
 Number     Number       Type             X           Y           Z
 ---------------------------------------------------------------------
      1         12           0        5.958791    0.480183    0.026217
      2          6           0        3.622312   -2.106572    0.042046
      3          6           0        3.442015    2.642956   -1.048210
      4          6           0        8.278048    2.926791   -0.288805
      5          6           0        8.408009   -1.876011    0.769542
      6          7           0        3.781191    0.243871   -0.580126
      7          6           0        3.001524   -0.923425   -0.376721
      8          6           0        1.558811   -0.675267   -0.675309
      9          6           0        1.493239    0.830700   -1.079353
     10          6           0        2.995602    1.253219   -0.979576
     11          6           0        0.809740    1.148828   -2.459525
     12          6           0        0.599629   -1.224663    0.433144
     13          6           0       -0.855065   -0.772273    0.425187
     14          6           0       -1.854133   -1.850677   -0.197370
     15          8           0       -1.573882   -2.584911   -1.086186
     16          8           0       -3.007622   -1.883664    0.493920
     17          7           0        5.868489    2.535963   -0.463059
     18          6           0        4.705251    3.233914   -0.851209
     19          6           0        5.109540    4.600641   -1.080855
     20          6           0        6.513590    4.771253   -0.775475
     21          6           0        6.990216    3.359938   -0.579280
     22          6           0        4.212797    5.670286   -1.529358
     23          6           0        7.349064    6.013100   -0.508160
     24          8           0        8.444212    6.000630   -0.067007
     25          6           0        6.702686    7.389739   -0.603004
     26          7           0        8.029874    0.510123    0.212298
     27          6           0        8.780113    1.606608   -0.043736
     28          6           0       10.299522    1.354108    0.218303
     29          6           0       10.248514   -0.124009    0.806668
     30          6           0        8.792467   -0.521645    0.701534
     31          6           0       11.160109    1.582401   -1.022016
     32          6           0       10.683581   -0.198631    2.306073
     33          6           0       10.193832    0.872596    3.317189
     34          7           0        6.093878   -1.578784    0.294851
     35          6           0        7.101409   -2.388771    0.619453
     36          6           0        6.690489   -3.710750    0.785133
     37          6           0        5.322652   -3.593148    0.649576
     38          6           0        5.002980   -2.325103    0.303772
     39          6           0        7.611271   -4.781294    1.381674
     40          6           0        4.104655   -4.316395    0.849713
     41          8           0        4.004274   -5.434887    1.415253
     42          6           0        2.940423   -3.352804    0.411310
     43          6           0        2.246203   -3.947532   -0.827528
     44          8           0        2.423099   -3.791244   -2.026471
     45          8           0        1.189911   -4.745857   -0.349569
     46          6           0        0.525299   -5.565685   -1.345138
     47          6           0       -3.854061   -3.081579    0.325027
     48          6           0       -5.319070   -2.678584    0.369365
     49          6           0       -6.385104   -3.374553   -0.158106
     50          6           0       -6.219540   -4.681180   -0.901407
     51          6           0       -7.868701   -2.839385   -0.012249
     52          6           0       -8.338279   -1.936973   -1.162735
     53          6           0       -7.910625   -0.411843   -0.966292
     54          6           0       -9.169559    0.401709   -0.719750
     55          6           0       -9.820782    0.869185   -2.025804
     56          6           0       -8.998636    1.685454    0.203736
     57          6           0      -10.333605    2.322088    0.577056
     58          6           0      -10.652364    2.354346    2.095759
     59          6           0      -11.958314    3.281394    2.362553
     60          6           0      -11.764698    4.069676    3.678522
     61          6           0      -13.332306    2.547286    2.283204
     62          6           0      -13.921985    2.659919    0.893345
     63          6           0      -14.687443    1.358558    0.572824
     64          6           0      -14.005274    0.773864   -0.732411
     65          6           0      -14.836288    0.931476   -2.077557
     66          6           0      -13.607158   -0.661380   -0.492290
     67          1           0        2.579575    3.275177   -1.268519
     68          1           0        9.038699    3.710017   -0.277068
     69          1           0        9.142730   -2.522695    1.254488
     70          1           0        1.501963   -1.287584   -1.574648
     71          1           0        0.997684    1.342277   -0.254426
     72          1           0        1.448948    1.733167   -3.120622
     73          1           0        0.062821    1.891781   -2.179818
     74          1           0        0.267565    0.322720   -2.920590
     75          1           0        1.043912   -1.158516    1.426232
     76          1           0        0.570860   -2.286856    0.187008
     77          1           0       -0.979536    0.022417   -0.310075
     78          1           0       -1.186020   -0.477192    1.421014
     79          1           0        3.182306    5.393135   -1.754158
     80          1           0        4.698286    6.204855   -2.345769
     81          1           0        4.218297    6.444704   -0.763431
     82          1           0        6.074221    7.514980   -1.484711
     83          1           0        7.473720    8.153439   -0.494381
     84          1           0        5.953523    7.594304    0.161384
     85          1           0       10.507510    2.149567    0.933824
     86          1           0       10.856346   -0.826635    0.238102
     87          1           0       10.443659    1.545464   -1.842405
     88          1           0       11.788559    0.695615   -1.107396
     89          1           0       11.587778    2.576202   -0.894485
     90          1           0       11.770521   -0.128175    2.316829
     91          1           0       10.324618   -1.176421    2.629247
     92          1           0        9.678453    0.251312    4.048647
     93          1           0        9.444328    1.561041    2.926962
     94          1           0       10.984574    1.433377    3.816428
     95          1           0        7.124431   -5.757103    1.406668
     96          1           0        7.688772   -4.378091    2.391003
     97          1           0        8.636408   -4.960682    1.057701
     98          1           0        2.189271   -3.318556    1.200130
     99          1           0       -0.434800   -5.066618   -1.474990
    100          1           0        0.295659   -6.595949   -1.072924
    101          1           0        0.928767   -5.622398   -2.355401
    102          1           0       -3.748187   -3.807475    1.130932
    103          1           0       -3.769031   -3.660136   -0.594810
    104          1           0       -5.483951   -1.636877    0.645398
    105          1           0       -5.720052   -5.376976   -0.226450
    106          1           0       -5.624408   -4.403564   -1.770349
    107          1           0       -7.195680   -5.087117   -1.169360
    108          1           0       -7.793479   -2.246905    0.899495
    109          1           0       -8.513963   -3.703984    0.144862
    110          1           0       -9.415248   -2.093564   -1.100038
    111          1           0       -7.992421   -2.266800   -2.142204
    112          1           0       -7.516339   -0.185704   -1.957168
    113          1           0       -7.095077   -0.131766   -0.299376
    114          1           0       -9.839493   -0.263066   -0.175052
    115          1           0       -9.204231    0.947825   -2.922197
    116          1           0      -10.351476    1.820653   -2.054827
    117          1           0      -10.649936    0.170089   -2.130765
    118          1           0       -8.318085    2.403280   -0.254204
    119          1           0       -8.485236    1.441365    1.133873
    120          1           0      -11.145833    1.688427    0.219943
    121          1           0      -10.431584    3.381676    0.343982
    122          1           0       -9.788055    2.783092    2.602265
    123          1           0      -10.926900    1.383632    2.508415
    124          1           0      -11.998083    4.089194    1.632745
    125          1           0      -10.724281    4.278716    3.926825
    126          1           0      -12.198337    3.473678    4.481291
    127          1           0      -12.401710    4.945237    3.550577
    128          1           0      -13.954276    3.092394    2.993020
    129          1           0      -13.101139    1.533076    2.608645
    130          1           0      -13.160430    3.001214    0.192491
    131          1           0      -14.717366    3.402062    0.827589
    132          1           0      -15.751017    1.463635    0.356722
    133          1           0      -14.537373    0.616413    1.357012
    134          1           0      -13.097300    1.317709   -0.990596
    135          1           0      -15.787267    1.451086   -1.965017
    136          1           0      -15.083444   -0.059211   -2.457813
    137          1           0      -14.267302    1.456348   -2.845812
    138          1           0      -14.131044   -1.118126    0.346149
    139          1           0      -12.531937   -0.755215   -0.336644
    140          1           0      -14.028503   -1.368755   -1.206149
 ---------------------------------------------------------------------

 SCF Done:  E(RZINDO/S) =  -474.273580484     A.U. after   19 cycles

 Excitation energies and oscillator strengths:

 Excited State   1:      Singlet-A      1.3956 eV  888.41 nm  f=0.5057  <S**2>=0.000
     175 ->178         0.15056
     176 ->177         0.67512
 This state for optimization and/or second-order correction.
 Total Energy, E(CIS/TDA) =  -474.222293898
 Copying the excited state density for this state as the 1-particle RhoCI density.

 Excited State   2:      Singlet-A      1.9525 eV  635.01 nm  f=0.0350  <S**2>=0.000
     175 ->177         0.53414
     176 ->178        -0.42733

 Excited State   3:      Singlet-A      2.9780 eV  416.34 nm  f=0.9572  <S**2>=0.000
     170 ->177         0.20400
     171 ->177         0.13823
     175 ->177         0.37063
     176 ->178         0.50275

 Excited State   4:      Singlet-A      2.9912 eV  414.50 nm  f=0.0438  <S**2>=0.000
     167 ->177        -0.21056
     167 ->179         0.25622
     167 ->180        -0.15621
     167 ->184         0.11930
     167 ->185         0.14669
     168 ->177        -0.26895
     168 ->179         0.30087
     168 ->180        -0.17283
     168 ->184         0.13638
     168 ->185         0.17361

 Excited State   5:      Singlet-A      3.0145 eV  411.29 nm  f=0.0166  <S**2>=0.000
     170 ->177        -0.14086
     170 ->179        -0.11136
     170 ->180        -0.16123
     171 ->177         0.22065
     171 ->179         0.28930
     171 ->180         0.37187
     171 ->185         0.17064
     171 ->187        -0.13144
     171 ->188         0.16319

 The electronic state is 1-A.
 Alpha  occ. eigenvalues --   -1.88356  -1.80078  -1.78557  -1.73479  -1.70898
 Alpha  occ. eigenvalues --   -1.70032  -1.66101  -1.62512  -1.60647  -1.57533
 Alpha  occ. eigenvalues --   -1.54056  -1.52188  -1.48922  -1.47091  -1.45677
 Alpha  occ. eigenvalues --   -1.43809  -1.42126  -1.41200  -1.39659  -1.39264
 Alpha  occ. eigenvalues --   -1.35591  -1.32993  -1.32577  -1.31810  -1.29090
 Alpha  occ. eigenvalues --   -1.28162  -1.24320  -1.22474  -1.21068  -1.18687
 Alpha  occ. eigenvalues --   -1.16916  -1.15478  -1.14657  -1.13629  -1.13071
 Alpha  occ. eigenvalues --   -1.12530  -1.10896  -1.10712  -1.04270  -1.03572
 Alpha  occ. eigenvalues --   -1.02914  -1.02222  -0.98993  -0.97441  -0.97186
 Alpha  occ. eigenvalues --   -0.95545  -0.94111  -0.93376  -0.92055  -0.91719
 Alpha  occ. eigenvalues --   -0.91132  -0.89541  -0.88356  -0.87802  -0.86406
 Alpha  occ. eigenvalues --   -0.85244  -0.84220  -0.83145  -0.81482  -0.80053
 Alpha  occ. eigenvalues --   -0.78816  -0.78237  -0.77301  -0.76726  -0.76246
 Alpha  occ. eigenvalues --   -0.75990  -0.75264  -0.74851  -0.73997  -0.73371
 Alpha  occ. eigenvalues --   -0.73002  -0.72093  -0.71936  -0.71332  -0.71081
 Alpha  occ. eigenvalues --   -0.69812  -0.69501  -0.69103  -0.67763  -0.67324
 Alpha  occ. eigenvalues --   -0.66774  -0.66209  -0.65964  -0.65854  -0.65246
 Alpha  occ. eigenvalues --   -0.64973  -0.64503  -0.63890  -0.63798  -0.63463
 Alpha  occ. eigenvalues --   -0.62917  -0.62603  -0.62353  -0.62267  -0.61721
 Alpha  occ. eigenvalues --   -0.61584  -0.60933  -0.60560  -0.60512  -0.60037
 Alpha  occ. eigenvalues --   -0.59645  -0.59438  -0.59211  -0.58919  -0.58729
 Alpha  occ. eigenvalues --   -0.57861  -0.57596  -0.57583  -0.57237  -0.56629
 Alpha  occ. eigenvalues --   -0.56261  -0.55796  -0.55278  -0.54890  -0.54749
 Alpha  occ. eigenvalues --   -0.54074  -0.53715  -0.53477  -0.53276  -0.52977
 Alpha  occ. eigenvalues --   -0.52456  -0.52331  -0.52119  -0.51697  -0.51320
 Alpha  occ. eigenvalues --   -0.51230  -0.50904  -0.50688  -0.50350  -0.49909
 Alpha  occ. eigenvalues --   -0.49681  -0.49502  -0.49459  -0.48836  -0.48588
 Alpha  occ. eigenvalues --   -0.48333  -0.47953  -0.47828  -0.47516  -0.47361
 Alpha  occ. eigenvalues --   -0.47131  -0.46818  -0.46512  -0.46370  -0.46158
 Alpha  occ. eigenvalues --   -0.45881  -0.45788  -0.45456  -0.45327  -0.45080
 Alpha  occ. eigenvalues --   -0.45008  -0.44881  -0.44837  -0.44080  -0.43668
 Alpha  occ. eigenvalues --   -0.43367  -0.43279  -0.42596  -0.42255  -0.41997
 Alpha  occ. eigenvalues --   -0.41908  -0.40965  -0.40395  -0.38615  -0.38451
 Alpha  occ. eigenvalues --   -0.37887  -0.36736  -0.36070  -0.34441  -0.33427
 Alpha  occ. eigenvalues --   -0.33231  -0.31905  -0.31231  -0.31153  -0.26725
 Alpha  occ. eigenvalues --   -0.21919
 Alpha virt. eigenvalues --   -0.08026  -0.02129  -0.00646   0.01360   0.02717
 Alpha virt. eigenvalues --    0.02803   0.03146   0.03577   0.04474   0.04609
 Alpha virt. eigenvalues --    0.05754   0.06549   0.07143   0.07592   0.07798

 Mulliken charges:
               1
     1  Mg   0.425117
     2  C   -0.021294
     3  C   -0.089537
     4  C   -0.080578
     5  C   -0.068922
     6  N   -0.273889
     7  C    0.072436
     8  C    0.004735
     9  C    0.008900
    10  C    0.173302
    11  C   -0.051833
    12  C   -0.025730
    13  C    0.000387
    14  C    0.465465
    15  O   -0.505364
    16  O   -0.265709
    17  N   -0.363216
    18  C    0.141590
    19  C    0.053271
    20  C   -0.053091
    21  C    0.155299
    22  C   -0.042396
    23  C    0.339315
    24  O   -0.490407
    25  C   -0.037465
    26  N   -0.264950
    27  C    0.181387
    28  C   -0.005682
    29  C    0.004307
    30  C    0.075654
    31  C   -0.053866
    32  C   -0.030554
    33  C   -0.058836
    34  N   -0.307176
    35  C    0.076628
    36  C   -0.004176
    37  C   -0.039970
    38  C    0.094486
    39  C   -0.045408
    40  C    0.313639
    41  O   -0.553114
    42  C    0.064881
    43  C    0.479519
    44  O   -0.511407
    45  O   -0.272115
    46  C    0.071439
    47  C    0.102687
    48  C   -0.109079
    49  C   -0.023453
    50  C   -0.043606
    51  C   -0.023687
    52  C   -0.027814
    53  C   -0.035341
    54  C   -0.003409
    55  C   -0.059387
    56  C   -0.037475
    57  C   -0.042755
    58  C   -0.045032
    59  C   -0.036536
    60  C   -0.063875
    61  C   -0.031074
    62  C   -0.033427
    63  C   -0.036844
    64  C   -0.020007
    65  C   -0.063971
    66  C   -0.062271
    67  H    0.020989
    68  H    0.039565
    69  H    0.024098
    70  H    0.052041
    71  H    0.031044
    72  H    0.030672
    73  H    0.006988
    74  H    0.043663
    75  H    0.027398
    76  H    0.035467
    77  H    0.040317
    78  H    0.039303
    79  H    0.031510
    80  H    0.033330
    81  H    0.031053
    82  H    0.026897
    83  H    0.039765
    84  H    0.036133
    85  H    0.037845
    86  H    0.032518
    87  H    0.023695
    88  H    0.031883
    89  H    0.036153
    90  H    0.012186
    91  H    0.024956
    92  H    0.015066
    93  H    0.024815
    94  H    0.025066
    95  H    0.026986
    96  H    0.025147
    97  H    0.029385
    98  H    0.064967
    99  H    0.028854
   100  H    0.035799
   101  H    0.048916
   102  H    0.047282
   103  H    0.059618
   104  H    0.030615
   105  H    0.031516
   106  H    0.038476
   107  H    0.021548
   108  H    0.021228
   109  H    0.023957
   110  H    0.021141
   111  H    0.025052
   112  H    0.009522
   113  H    0.034265
   114  H    0.022290
   115  H    0.024789
   116  H    0.014535
   117  H    0.011557
   118  H    0.016405
   119  H    0.009593
   120  H    0.025156
   121  H    0.028767
   122  H    0.020153
   123  H    0.022131
   124  H    0.013119
   125  H    0.024546
   126  H    0.012156
   127  H    0.016328
   128  H    0.021842
   129  H    0.029316
   130  H    0.032810
   131  H    0.011929
   132  H    0.026215
   133  H    0.025556
   134  H    0.020791
   135  H    0.017540
   136  H    0.017286
   137  H    0.017993
   138  H    0.010590
   139  H    0.022040
   140  H    0.017160
 Sum of Mulliken charges =  -0.00000

 Dipole moment (field-independent basis, Debye):
    X=             -5.3140    Y=             10.7196    Z=              0.0244  Tot=             11.9644
 N-N= 4.276942613135D+03 E-N= 0.000000000000D+00  KE=-9.228742650486D+03
 Leave Link  601 at Wed May  4 18:57:15 2022, MaxMem=  6710886400 cpu:               0.7 elap:               0.0
 (Enter /sw/apps/gaussian-16.0/g16/l9999.exe)
 1\1\GINC-BP1-COMPUTE216\SP\RZINDO CIS\STO-3G\C55H74Mg1N4O6\OF15641\04-
 May-2022\0\\#p ZINDO=(nstates=5)\\step_301_chromophore_10 ZINDO\\0,1\M
 g,0,41.128,7.916,28.757\C,0,42.939,9.203,31.443\C,0,38.745,6.751,31.02
 2\C,0,39.52,6.398,26.193\C,0,43.759,8.847,26.68\N,0,40.948,7.863,31.02
 2\C,0,41.785,8.571,31.922\C,0,41.262,8.506,33.32\C,0,39.945,7.676,33.2
 1\C,0,39.909,7.336,31.684\C,0,39.828,6.432,34.165\C,0,41.245,9.899,34.
 034\C,0,40.454,10.043,35.328\C,0,41.364,10.,36.639\O,0,42.348,9.346,36

 Normal termination of Gaussian 16 at Wed May  4 18:57:15 2022.
