 Gaussian 16, Revision A.03,
 Gaussian 16:  ES64L-G16RevA.03 25-Dec-2016

 ------------------------------
 #p blyp/Def2SVP td=(nstates=5)
 ------------------------------

 -------------------------------------------------
 step_851_chromophore_6 TDDFT with blyp functional
 -------------------------------------------------
 Symbolic Z-matrix:
 Charge =  0 Multiplicity = 1

                         Standard orientation:
 ---------------------------------------------------------------------
 Center     Atomic      Atomic             Coordinates (Angstroms)
 Number     Number       Type             X           Y           Z
 ---------------------------------------------------------------------
      1         12           0       -5.365102    0.935083   -0.311554
      2          6           0       -4.125398   -2.310378   -0.450487
      3          6           0       -2.183510    2.206060   -0.415756
      4          6           0       -6.708778    3.910845    0.341842
      5          6           0       -8.622765   -0.548892    0.122343
      6          7           0       -3.409999    0.021693   -0.488183
      7          6           0       -3.134866   -1.278250   -0.338502
      8          6           0       -1.617041   -1.468811   -0.255991
      9          6           0       -0.981838   -0.044860   -0.313909
     10          6           0       -2.283601    0.784422   -0.426397
     11          6           0       -0.111580    0.272868    1.009445
     12          6           0       -1.127822   -2.177537   -1.590214
     13          6           0       -0.153019   -3.369919   -1.442847
     14          6           0        0.924982   -3.288699   -0.409899
     15          8           0        0.787194   -3.655622    0.743140
     16          8           0        2.051256   -2.784991   -0.887192
     17          7           0       -4.586086    2.831304   -0.300849
     18          6           0       -3.247075    3.142316   -0.408677
     19          6           0       -3.113953    4.575366   -0.507894
     20          6           0       -4.437918    5.093041   -0.114132
     21          6           0       -5.356987    3.963721   -0.040993
     22          6           0       -1.865816    5.302828   -0.825993
     23          6           0       -4.895848    6.583031   -0.004233
     24          8           0       -6.083585    6.933777    0.128625
     25          6           0       -3.851081    7.648643   -0.095979
     26          7           0       -7.414384    1.597445    0.232635
     27          6           0       -7.666948    2.878175    0.510463
     28          6           0       -9.093465    3.058024    1.021944
     29          6           0       -9.756072    1.675948    0.771042
     30          6           0       -8.491248    0.813278    0.388135
     31          6           0       -9.137965    3.579481    2.533724
     32          6           0      -10.751571    1.695644   -0.403993
     33          6           0      -12.045855    0.829490   -0.133009
     34          7           0       -6.232385   -0.983366   -0.270385
     35          6           0       -7.569427   -1.434240   -0.148276
     36          6           0       -7.602220   -2.843570   -0.152559
     37          6           0       -6.253843   -3.247739   -0.392762
     38          6           0       -5.490791   -2.072748   -0.384624
     39          6           0       -8.825193   -3.690244    0.034131
     40          6           0       -5.392141   -4.406044   -0.538591
     41          8           0       -5.718954   -5.588227   -0.617028
     42          6           0       -3.873812   -3.836420   -0.530903
     43          6           0       -3.114768   -4.363357    0.576154
     44          8           0       -3.034122   -3.859068    1.691993
     45          8           0       -2.618022   -5.612539    0.268683
     46          6           0       -2.059912   -6.441035    1.369592
     47          6           0        3.102691   -2.614404    0.073385
     48          6           0        4.475474   -2.614913   -0.717312
     49          6           0        5.440934   -3.589938   -0.796511
     50          6           0        5.283779   -5.049442   -0.424048
     51          6           0        6.837299   -3.358908   -1.326806
     52          6           0        7.711881   -2.517641   -0.402272
     53          6           0        8.276444   -1.220351   -1.037861
     54          6           0        8.096020    0.082857   -0.195537
     55          6           0        8.424812    1.419181   -1.023567
     56          6           0        8.932574   -0.050887    1.175573
     57          6           0       10.490854   -0.079489    1.067143
     58          6           0       11.217753    0.783566    2.128641
     59          6           0       12.668579    0.408032    2.409755
     60          6           0       13.071089    0.216193    3.820447
     61          6           0       13.737546    1.496208    1.843976
     62          6           0       13.616250    1.594309    0.362072
     63          6           0       13.249234    2.980179   -0.184642
     64          6           0       13.229060    2.984696   -1.718567
     65          6           0       11.784923    3.246526   -2.230258
     66          6           0       14.334075    3.849290   -2.392148
     67          1           0       -1.140368    2.502534   -0.545836
     68          1           0       -7.181483    4.870521    0.557451
     69          1           0       -9.629241   -0.972069    0.089414
     70          1           0       -1.117072   -1.920389    0.600458
     71          1           0       -0.447070    0.260791   -1.212299
     72          1           0       -0.597839    1.064811    1.577501
     73          1           0        0.880942    0.660440    0.782227
     74          1           0        0.017043   -0.605758    1.641393
     75          1           0       -0.771660   -1.403943   -2.271062
     76          1           0       -1.940236   -2.613424   -2.171954
     77          1           0        0.394540   -3.307500   -2.383450
     78          1           0       -0.616199   -4.351383   -1.344453
     79          1           0       -0.974382    4.710647   -1.035734
     80          1           0       -1.588741    5.876308    0.057826
     81          1           0       -2.095683    5.989265   -1.641700
     82          1           0       -3.189799    7.659012    0.770473
     83          1           0       -4.428276    8.569682   -0.015729
     84          1           0       -3.226209    7.631513   -0.989395
     85          1           0       -9.588448    3.825550    0.427728
     86          1           0      -10.205572    1.262301    1.673474
     87          1           0       -9.500826    2.777550    3.178155
     88          1           0       -9.776575    4.457761    2.631028
     89          1           0       -8.210749    4.001761    2.922821
     90          1           0      -10.158209    1.293044   -1.225733
     91          1           0      -11.155375    2.693980   -0.569203
     92          1           0      -11.846891   -0.194009   -0.450878
     93          1           0      -12.880739    1.314233   -0.638312
     94          1           0      -12.328164    0.894736    0.917674
     95          1           0       -8.771544   -4.516911   -0.675276
     96          1           0       -9.714327   -3.103972   -0.195654
     97          1           0       -8.975260   -4.113348    1.027002
     98          1           0       -3.471529   -4.285251   -1.438954
     99          1           0       -0.975674   -6.353004    1.299386
    100          1           0       -2.346772   -7.488131    1.274909
    101          1           0       -2.395389   -6.222527    2.383454
    102          1           0        3.107829   -3.344415    0.882528
    103          1           0        2.988487   -1.624411    0.516027
    104          1           0        4.673200   -1.648875   -1.182463
    105          1           0        5.449340   -5.751792   -1.241301
    106          1           0        4.324531   -5.279992    0.040113
    107          1           0        5.982562   -5.342352    0.358675
    108          1           0        6.764774   -2.744285   -2.224642
    109          1           0        7.353724   -4.290261   -1.562993
    110          1           0        8.529351   -3.114057    0.002723
    111          1           0        7.053957   -2.288591    0.435651
    112          1           0        7.948194   -0.951495   -2.042604
    113          1           0        9.297436   -1.579844   -1.169876
    114          1           0        7.072538    0.107660    0.179303
    115          1           0        8.811093    1.065894   -1.979900
    116          1           0        9.258606    1.922084   -0.534265
    117          1           0        7.507873    1.987823   -1.182840
    118          1           0        8.586426   -0.797508    1.890570
    119          1           0        8.686967    0.917145    1.611225
    120          1           0       10.777571    0.201015    0.053447
    121          1           0       10.864517   -1.094162    1.202059
    122          1           0       10.641378    0.705295    3.050740
    123          1           0       11.137585    1.831534    1.839309
    124          1           0       12.756885   -0.516980    1.838931
    125          1           0       14.148983    0.151755    3.965970
    126          1           0       12.767902   -0.805176    4.052990
    127          1           0       12.644126    0.977025    4.474137
    128          1           0       14.758613    1.157492    2.019400
    129          1           0       13.618949    2.420929    2.409477
    130          1           0       12.990623    0.773438    0.012297
    131          1           0       14.595862    1.377261   -0.064462
    132          1           0       13.915659    3.712320    0.272944
    133          1           0       12.221179    3.057969    0.167492
    134          1           0       13.499749    1.975503   -2.027012
    135          1           0       11.265620    2.295525   -2.348781
    136          1           0       11.852459    3.701710   -3.218495
    137          1           0       11.214131    3.948561   -1.622798
    138          1           0       14.312040    3.932847   -3.478754
    139          1           0       15.285445    3.343373   -2.230845
    140          1           0       14.325937    4.855041   -1.972324
 ---------------------------------------------------------------------

 SCF Done:  E(RB-LYP) =  -3007.40355605     A.U. after   21 cycles

 Excitation energies and oscillator strengths:

 Excited State   1:      Singlet-A      1.8448 eV  672.08 nm  f=0.3075  <S**2>=0.000
     245 -> 248        0.21430
     246 -> 247        0.68033
     246 <- 247       -0.13848
 This state for optimization and/or second-order correction.
 Total Energy, E(TD-HF/TD-DFT) =  -3007.33576191
 Copying the excited state density for this state as the 1-particle RhoCI density.

 Excited State   2:      Singlet-A      1.9957 eV  621.24 nm  f=0.0450  <S**2>=0.000
     243 -> 247        0.36363
     244 -> 247       -0.18649
     245 -> 247        0.53655
     246 -> 248       -0.19509

 Excited State   3:      Singlet-A      2.0327 eV  609.94 nm  f=0.0044  <S**2>=0.000
     243 -> 247        0.16263
     244 -> 247        0.67389
     245 -> 247        0.10597

 Excited State   4:      Singlet-A      2.0691 eV  599.21 nm  f=0.0243  <S**2>=0.000
     243 -> 247        0.58211
     245 -> 247       -0.34634
     246 -> 248        0.16301

 Excited State   5:      Singlet-A      2.4525 eV  505.54 nm  f=0.0004  <S**2>=0.000
     240 -> 247        0.43691
     241 -> 247       -0.42367
     242 -> 247        0.35367

 The electronic state is 1-A.
 Alpha  occ. eigenvalues --  -46.26903 -18.82830 -18.81061 -18.76247 -18.75946
 Alpha  occ. eigenvalues --  -18.75723 -18.75319 -14.03568 -14.02837 -14.00814
 Alpha  occ. eigenvalues --  -14.00454 -10.03537 -10.02734 -10.00048  -9.99878
 Alpha  occ. eigenvalues --   -9.98470  -9.96990  -9.96640  -9.96477  -9.96241
 Alpha  occ. eigenvalues --   -9.96069  -9.95991  -9.95745  -9.95035  -9.94183
 Alpha  occ. eigenvalues --   -9.94088  -9.94043  -9.94022  -9.93954  -9.93742
 Alpha  occ. eigenvalues --   -9.93658  -9.93566  -9.93538  -9.93432  -9.93358
 Alpha  occ. eigenvalues --   -9.93319  -9.93130  -9.93124  -9.93102  -9.93019
 Alpha  occ. eigenvalues --   -9.92755  -9.92659  -9.92579  -9.92440  -9.92401
 Alpha  occ. eigenvalues --   -9.92199  -9.92189  -9.92167  -9.92086  -9.92013
 Alpha  occ. eigenvalues --   -9.91985  -9.91821  -9.91774  -9.91707  -9.91610
 Alpha  occ. eigenvalues --   -9.91593  -9.91539  -9.91513  -9.91237  -9.90960
 Alpha  occ. eigenvalues --   -9.90936  -9.90800  -9.90752  -9.90570  -9.90429
 Alpha  occ. eigenvalues --   -9.90218  -2.91482  -1.71930  -1.71368  -1.71178
 Alpha  occ. eigenvalues --   -1.00224  -0.96008  -0.90904  -0.90384  -0.90317
 Alpha  occ. eigenvalues --   -0.88159  -0.86925  -0.86544  -0.85569  -0.84232
 Alpha  occ. eigenvalues --   -0.74926  -0.73787  -0.73301  -0.72673  -0.72028
 Alpha  occ. eigenvalues --   -0.71617  -0.71378  -0.70782  -0.70599  -0.70371
 Alpha  occ. eigenvalues --   -0.69742  -0.69208  -0.67794  -0.67262  -0.66886
 Alpha  occ. eigenvalues --   -0.66322  -0.65705  -0.65421  -0.65028  -0.64633
 Alpha  occ. eigenvalues --   -0.64159  -0.62379  -0.61955  -0.61280  -0.60600
 Alpha  occ. eigenvalues --   -0.60456  -0.60257  -0.60036  -0.59699  -0.58926
 Alpha  occ. eigenvalues --   -0.58719  -0.57781  -0.57072  -0.55668  -0.54266
 Alpha  occ. eigenvalues --   -0.54157  -0.53704  -0.52638  -0.52429  -0.51632
 Alpha  occ. eigenvalues --   -0.51376  -0.51031  -0.50446  -0.50270  -0.50083
 Alpha  occ. eigenvalues --   -0.49881  -0.48812  -0.47917  -0.47775  -0.46754
 Alpha  occ. eigenvalues --   -0.46302  -0.46198  -0.45822  -0.45224  -0.44641
 Alpha  occ. eigenvalues --   -0.43834  -0.43786  -0.43185  -0.42925  -0.42655
 Alpha  occ. eigenvalues --   -0.42251  -0.41844  -0.41590  -0.41159  -0.40957
 Alpha  occ. eigenvalues --   -0.40762  -0.40600  -0.40236  -0.40051  -0.39743
 Alpha  occ. eigenvalues --   -0.39647  -0.39362  -0.39241  -0.39198  -0.39141
 Alpha  occ. eigenvalues --   -0.38914  -0.38496  -0.38196  -0.38100  -0.38085
 Alpha  occ. eigenvalues --   -0.37829  -0.37760  -0.37660  -0.37413  -0.37257
 Alpha  occ. eigenvalues --   -0.36861  -0.36596  -0.36490  -0.36402  -0.36134
 Alpha  occ. eigenvalues --   -0.36040  -0.35850  -0.35788  -0.35479  -0.35439
 Alpha  occ. eigenvalues --   -0.35155  -0.34933  -0.34828  -0.34740  -0.34602
 Alpha  occ. eigenvalues --   -0.34593  -0.34309  -0.34279  -0.34104  -0.34021
 Alpha  occ. eigenvalues --   -0.33885  -0.33577  -0.33379  -0.33355  -0.33083
 Alpha  occ. eigenvalues --   -0.32965  -0.32829  -0.32627  -0.32405  -0.32289
 Alpha  occ. eigenvalues --   -0.32122  -0.31944  -0.31741  -0.31611  -0.31513
 Alpha  occ. eigenvalues --   -0.31449  -0.31041  -0.30926  -0.30870  -0.30622
 Alpha  occ. eigenvalues --   -0.30592  -0.30259  -0.30187  -0.29869  -0.29648
 Alpha  occ. eigenvalues --   -0.29582  -0.29475  -0.29410  -0.29001  -0.28808
 Alpha  occ. eigenvalues --   -0.28673  -0.28659  -0.28440  -0.28163  -0.27847
 Alpha  occ. eigenvalues --   -0.27617  -0.27261  -0.27192  -0.26984  -0.26562
 Alpha  occ. eigenvalues --   -0.26328  -0.26261  -0.25779  -0.25475  -0.25277
 Alpha  occ. eigenvalues --   -0.24616  -0.24134  -0.24127  -0.23844  -0.23188
 Alpha  occ. eigenvalues --   -0.23119  -0.21970  -0.21621  -0.20749  -0.20434
 Alpha  occ. eigenvalues --   -0.20382  -0.19829  -0.18796  -0.18748  -0.17142
 Alpha  occ. eigenvalues --   -0.15879
 Alpha virt. eigenvalues --   -0.11393  -0.06978  -0.06210  -0.04542  -0.03544
 Alpha virt. eigenvalues --   -0.02414  -0.02123  -0.01364  -0.00787   0.00027
 Alpha virt. eigenvalues --    0.01084   0.01576   0.01934   0.02484   0.02803

 Mulliken charges:
               1
     1  Mg   0.688308
     2  C   -0.001025
     3  C   -0.060591
     4  C   -0.010043
     5  C   -0.080664
     6  N   -0.203080
     7  C   -0.002419
     8  C   -0.011694
     9  C   -0.024299
    10  C   -0.032547
    11  C    0.099134
    12  C    0.090953
    13  C    0.173123
    14  C    0.015461
    15  O   -0.207849
    16  O   -0.214853
    17  N   -0.335007
    18  C    0.185479
    19  C   -0.151987
    20  C   -0.003565
    21  C    0.136092
    22  C    0.187952
    23  C   -0.047836
    24  O   -0.180280
    25  C    0.119452
    26  N   -0.161002
    27  C   -0.034167
    28  C    0.043739
    29  C    0.012609
    30  C    0.010775
    31  C    0.109944
    32  C    0.079455
    33  C    0.053436
    34  N   -0.252710
    35  C    0.133546
    36  C   -0.169252
    37  C    0.082128
    38  C    0.115093
    39  C    0.172368
    40  C   -0.067782
    41  O   -0.126511
    42  C    0.041557
    43  C    0.123531
    44  O   -0.186272
    45  O   -0.286150
    46  C    0.215265
    47  C    0.289968
    48  C   -0.098706
    49  C   -0.121882
    50  C    0.129770
    51  C    0.159563
    52  C    0.048510
    53  C    0.087391
    54  C   -0.085958
    55  C    0.103712
    56  C    0.070857
    57  C    0.031160
    58  C    0.117702
    59  C   -0.096067
    60  C    0.161365
    61  C    0.097855
    62  C    0.042432
    63  C    0.128078
    64  C   -0.065265
    65  C    0.096056
    66  C    0.086743
    67  H   -0.065720
    68  H   -0.049092
    69  H   -0.072294
    70  H    0.024885
    71  H   -0.008292
    72  H   -0.005096
    73  H   -0.015148
    74  H    0.015326
    75  H   -0.030027
    76  H   -0.019466
    77  H   -0.022733
    78  H    0.013382
    79  H   -0.013635
    80  H    0.000868
    81  H    0.013282
    82  H    0.006726
    83  H   -0.010544
    84  H    0.004969
    85  H   -0.020980
    86  H   -0.026388
    87  H   -0.005727
    88  H   -0.011683
    89  H   -0.002784
    90  H   -0.003948
    91  H   -0.013360
    92  H    0.010801
    93  H   -0.010980
    94  H   -0.010772
    95  H    0.007986
    96  H   -0.023184
    97  H    0.011769
    98  H   -0.001121
    99  H    0.020367
   100  H    0.010357
   101  H    0.018416
   102  H    0.007770
   103  H   -0.012122
   104  H   -0.035564
   105  H    0.010297
   106  H   -0.018610
   107  H   -0.012798
   108  H   -0.025300
   109  H   -0.037034
   110  H   -0.025697
   111  H   -0.022290
   112  H   -0.028051
   113  H   -0.027669
   114  H   -0.035121
   115  H   -0.013070
   116  H    0.003552
   117  H    0.001071
   118  H   -0.019615
   119  H   -0.034632
   120  H   -0.011586
   121  H   -0.032746
   122  H   -0.042745
   123  H   -0.033745
   124  H   -0.045426
   125  H   -0.029413
   126  H   -0.033806
   127  H   -0.012051
   128  H   -0.043205
   129  H   -0.034525
   130  H   -0.036847
   131  H   -0.046089
   132  H   -0.030406
   133  H   -0.041000
   134  H   -0.040518
   135  H   -0.007571
   136  H   -0.034320
   137  H   -0.006231
   138  H   -0.019905
   139  H   -0.019327
   140  H   -0.010913
 Sum of Mulliken charges =  -0.00000

 Dipole moment (field-independent basis, Debye):
    X=              3.9910    Y=              1.6754    Z=             -1.4914  Tot=              4.5782
 Quadrupole moment (field-independent basis, Debye-Ang):
   XX=           -375.2669   YY=           -428.2325   ZZ=           -407.6995
   XY=            -13.2303   XZ=             -5.4924   YZ=              0.8831

 Normal termination of Gaussian 16 at Sat Apr 30 20:24:16 2022.
