 Gaussian 16, Revision A.03,
 Gaussian 16:  ES64L-G16RevA.03 25-Dec-2016

 -----------------------------------
 #p cam-b3lyp/Def2SVP td=(nstates=5)
 -----------------------------------

 ------------------------------------------------------
 step_851_chromophore_6 TDDFT with cam-b3lyp functional
 ------------------------------------------------------
 Symbolic Z-matrix:
 Charge =  0 Multiplicity = 1

                         Standard orientation:
 ---------------------------------------------------------------------
 Center     Atomic      Atomic             Coordinates (Angstroms)
 Number     Number       Type             X           Y           Z
 ---------------------------------------------------------------------
      1         12           0       -5.365102    0.935083   -0.311554
      2          6           0       -4.125398   -2.310378   -0.450487
      3          6           0       -2.183510    2.206060   -0.415756
      4          6           0       -6.708778    3.910845    0.341842
      5          6           0       -8.622765   -0.548892    0.122343
      6          7           0       -3.409999    0.021693   -0.488183
      7          6           0       -3.134866   -1.278250   -0.338502
      8          6           0       -1.617041   -1.468811   -0.255991
      9          6           0       -0.981838   -0.044860   -0.313909
     10          6           0       -2.283601    0.784422   -0.426397
     11          6           0       -0.111580    0.272868    1.009445
     12          6           0       -1.127822   -2.177537   -1.590214
     13          6           0       -0.153019   -3.369919   -1.442847
     14          6           0        0.924982   -3.288699   -0.409899
     15          8           0        0.787194   -3.655622    0.743140
     16          8           0        2.051256   -2.784991   -0.887192
     17          7           0       -4.586086    2.831304   -0.300849
     18          6           0       -3.247075    3.142316   -0.408677
     19          6           0       -3.113953    4.575366   -0.507894
     20          6           0       -4.437918    5.093041   -0.114132
     21          6           0       -5.356987    3.963721   -0.040993
     22          6           0       -1.865816    5.302828   -0.825993
     23          6           0       -4.895848    6.583031   -0.004233
     24          8           0       -6.083585    6.933777    0.128625
     25          6           0       -3.851081    7.648643   -0.095979
     26          7           0       -7.414384    1.597445    0.232635
     27          6           0       -7.666948    2.878175    0.510463
     28          6           0       -9.093465    3.058024    1.021944
     29          6           0       -9.756072    1.675948    0.771042
     30          6           0       -8.491248    0.813278    0.388135
     31          6           0       -9.137965    3.579481    2.533724
     32          6           0      -10.751571    1.695644   -0.403993
     33          6           0      -12.045855    0.829490   -0.133009
     34          7           0       -6.232385   -0.983366   -0.270385
     35          6           0       -7.569427   -1.434240   -0.148276
     36          6           0       -7.602220   -2.843570   -0.152559
     37          6           0       -6.253843   -3.247739   -0.392762
     38          6           0       -5.490791   -2.072748   -0.384624
     39          6           0       -8.825193   -3.690244    0.034131
     40          6           0       -5.392141   -4.406044   -0.538591
     41          8           0       -5.718954   -5.588227   -0.617028
     42          6           0       -3.873812   -3.836420   -0.530903
     43          6           0       -3.114768   -4.363357    0.576154
     44          8           0       -3.034122   -3.859068    1.691993
     45          8           0       -2.618022   -5.612539    0.268683
     46          6           0       -2.059912   -6.441035    1.369592
     47          6           0        3.102691   -2.614404    0.073385
     48          6           0        4.475474   -2.614913   -0.717312
     49          6           0        5.440934   -3.589938   -0.796511
     50          6           0        5.283779   -5.049442   -0.424048
     51          6           0        6.837299   -3.358908   -1.326806
     52          6           0        7.711881   -2.517641   -0.402272
     53          6           0        8.276444   -1.220351   -1.037861
     54          6           0        8.096020    0.082857   -0.195537
     55          6           0        8.424812    1.419181   -1.023567
     56          6           0        8.932574   -0.050887    1.175573
     57          6           0       10.490854   -0.079489    1.067143
     58          6           0       11.217753    0.783566    2.128641
     59          6           0       12.668579    0.408032    2.409755
     60          6           0       13.071089    0.216193    3.820447
     61          6           0       13.737546    1.496208    1.843976
     62          6           0       13.616250    1.594309    0.362072
     63          6           0       13.249234    2.980179   -0.184642
     64          6           0       13.229060    2.984696   -1.718567
     65          6           0       11.784923    3.246526   -2.230258
     66          6           0       14.334075    3.849290   -2.392148
     67          1           0       -1.140368    2.502534   -0.545836
     68          1           0       -7.181483    4.870521    0.557451
     69          1           0       -9.629241   -0.972069    0.089414
     70          1           0       -1.117072   -1.920389    0.600458
     71          1           0       -0.447070    0.260791   -1.212299
     72          1           0       -0.597839    1.064811    1.577501
     73          1           0        0.880942    0.660440    0.782227
     74          1           0        0.017043   -0.605758    1.641393
     75          1           0       -0.771660   -1.403943   -2.271062
     76          1           0       -1.940236   -2.613424   -2.171954
     77          1           0        0.394540   -3.307500   -2.383450
     78          1           0       -0.616199   -4.351383   -1.344453
     79          1           0       -0.974382    4.710647   -1.035734
     80          1           0       -1.588741    5.876308    0.057826
     81          1           0       -2.095683    5.989265   -1.641700
     82          1           0       -3.189799    7.659012    0.770473
     83          1           0       -4.428276    8.569682   -0.015729
     84          1           0       -3.226209    7.631513   -0.989395
     85          1           0       -9.588448    3.825550    0.427728
     86          1           0      -10.205572    1.262301    1.673474
     87          1           0       -9.500826    2.777550    3.178155
     88          1           0       -9.776575    4.457761    2.631028
     89          1           0       -8.210749    4.001761    2.922821
     90          1           0      -10.158209    1.293044   -1.225733
     91          1           0      -11.155375    2.693980   -0.569203
     92          1           0      -11.846891   -0.194009   -0.450878
     93          1           0      -12.880739    1.314233   -0.638312
     94          1           0      -12.328164    0.894736    0.917674
     95          1           0       -8.771544   -4.516911   -0.675276
     96          1           0       -9.714327   -3.103972   -0.195654
     97          1           0       -8.975260   -4.113348    1.027002
     98          1           0       -3.471529   -4.285251   -1.438954
     99          1           0       -0.975674   -6.353004    1.299386
    100          1           0       -2.346772   -7.488131    1.274909
    101          1           0       -2.395389   -6.222527    2.383454
    102          1           0        3.107829   -3.344415    0.882528
    103          1           0        2.988487   -1.624411    0.516027
    104          1           0        4.673200   -1.648875   -1.182463
    105          1           0        5.449340   -5.751792   -1.241301
    106          1           0        4.324531   -5.279992    0.040113
    107          1           0        5.982562   -5.342352    0.358675
    108          1           0        6.764774   -2.744285   -2.224642
    109          1           0        7.353724   -4.290261   -1.562993
    110          1           0        8.529351   -3.114057    0.002723
    111          1           0        7.053957   -2.288591    0.435651
    112          1           0        7.948194   -0.951495   -2.042604
    113          1           0        9.297436   -1.579844   -1.169876
    114          1           0        7.072538    0.107660    0.179303
    115          1           0        8.811093    1.065894   -1.979900
    116          1           0        9.258606    1.922084   -0.534265
    117          1           0        7.507873    1.987823   -1.182840
    118          1           0        8.586426   -0.797508    1.890570
    119          1           0        8.686967    0.917145    1.611225
    120          1           0       10.777571    0.201015    0.053447
    121          1           0       10.864517   -1.094162    1.202059
    122          1           0       10.641378    0.705295    3.050740
    123          1           0       11.137585    1.831534    1.839309
    124          1           0       12.756885   -0.516980    1.838931
    125          1           0       14.148983    0.151755    3.965970
    126          1           0       12.767902   -0.805176    4.052990
    127          1           0       12.644126    0.977025    4.474137
    128          1           0       14.758613    1.157492    2.019400
    129          1           0       13.618949    2.420929    2.409477
    130          1           0       12.990623    0.773438    0.012297
    131          1           0       14.595862    1.377261   -0.064462
    132          1           0       13.915659    3.712320    0.272944
    133          1           0       12.221179    3.057969    0.167492
    134          1           0       13.499749    1.975503   -2.027012
    135          1           0       11.265620    2.295525   -2.348781
    136          1           0       11.852459    3.701710   -3.218495
    137          1           0       11.214131    3.948561   -1.622798
    138          1           0       14.312040    3.932847   -3.478754
    139          1           0       15.285445    3.343373   -2.230845
    140          1           0       14.325937    4.855041   -1.972324
 ---------------------------------------------------------------------

 SCF Done:  E(RCAM-B3LYP) =  -3007.19373735     A.U. after   17 cycles

 Excitation energies and oscillator strengths:

 Excited State   1:      Singlet-A      1.7443 eV  710.79 nm  f=0.3890  <S**2>=0.000
     245 -> 248       -0.20295
     246 -> 247        0.67941
     245 <- 248       -0.11238
 This state for optimization and/or second-order correction.
 Total Energy, E(TD-HF/TD-DFT) =  -3007.12963487
 Copying the excited state density for this state as the 1-particle RhoCI density.

 Excited State   2:      Singlet-A      2.2343 eV  554.91 nm  f=0.1101  <S**2>=0.000
     245 -> 247        0.63492
     246 -> 248        0.29903

 Excited State   3:      Singlet-A      3.2839 eV  377.55 nm  f=0.0023  <S**2>=0.000
     244 -> 247        0.68475

 Excited State   4:      Singlet-A      3.4116 eV  363.42 nm  f=0.0625  <S**2>=0.000
     241 -> 247        0.17543
     243 -> 247        0.56388
     246 -> 248       -0.30481

 Excited State   5:      Singlet-A      3.5356 eV  350.67 nm  f=0.1475  <S**2>=0.000
     240 -> 247        0.24984
     240 -> 249        0.10246
     241 -> 247        0.45802
     241 -> 249        0.21504
     241 -> 250       -0.15422
     245 -> 247       -0.13077
     246 -> 248        0.29449

 The electronic state is 1-A.
 Alpha  occ. eigenvalues --  -46.88388 -19.25719 -19.24034 -19.19166 -19.19053
 Alpha  occ. eigenvalues --  -19.18976 -19.18498 -14.42367 -14.41714 -14.39240
 Alpha  occ. eigenvalues --  -14.38742 -10.38701 -10.38276 -10.35433 -10.35241
 Alpha  occ. eigenvalues --  -10.32597 -10.31521 -10.31022 -10.30671 -10.30640
 Alpha  occ. eigenvalues --  -10.30411 -10.30340 -10.30134 -10.29117 -10.28857
 Alpha  occ. eigenvalues --  -10.28324 -10.28290 -10.28236 -10.28075 -10.27816
 Alpha  occ. eigenvalues --  -10.27804 -10.27648 -10.27633 -10.27601 -10.27477
 Alpha  occ. eigenvalues --  -10.27276 -10.27208 -10.27202 -10.26995 -10.26932
 Alpha  occ. eigenvalues --  -10.26784 -10.26765 -10.26319 -10.26254 -10.26201
 Alpha  occ. eigenvalues --  -10.26045 -10.25906 -10.25861 -10.25844 -10.25712
 Alpha  occ. eigenvalues --  -10.25677 -10.25664 -10.25549 -10.25361 -10.25348
 Alpha  occ. eigenvalues --  -10.25319 -10.25247 -10.25230 -10.24907 -10.24866
 Alpha  occ. eigenvalues --  -10.24579 -10.24452 -10.24368 -10.24259 -10.23991
 Alpha  occ. eigenvalues --  -10.23855  -3.16872  -1.91798  -1.91329  -1.91165
 Alpha  occ. eigenvalues --   -1.18735  -1.14580  -1.09162  -1.08850  -1.08215
 Alpha  occ. eigenvalues --   -1.06116  -1.04649  -1.04228  -1.03062  -1.01745
 Alpha  occ. eigenvalues --   -0.91993  -0.90649  -0.90148  -0.89425  -0.88705
 Alpha  occ. eigenvalues --   -0.88291  -0.87998  -0.87360  -0.87114  -0.86976
 Alpha  occ. eigenvalues --   -0.86283  -0.85532  -0.84041  -0.83449  -0.83023
 Alpha  occ. eigenvalues --   -0.82392  -0.81843  -0.81458  -0.80913  -0.80430
 Alpha  occ. eigenvalues --   -0.79989  -0.78074  -0.77585  -0.76727  -0.75964
 Alpha  occ. eigenvalues --   -0.75804  -0.75624  -0.75307  -0.74984  -0.74180
 Alpha  occ. eigenvalues --   -0.73788  -0.72766  -0.71982  -0.70479  -0.68822
 Alpha  occ. eigenvalues --   -0.68749  -0.68294  -0.67013  -0.66830  -0.65831
 Alpha  occ. eigenvalues --   -0.65409  -0.65330  -0.64557  -0.64186  -0.63987
 Alpha  occ. eigenvalues --   -0.63942  -0.62727  -0.61672  -0.61443  -0.60354
 Alpha  occ. eigenvalues --   -0.59966  -0.59769  -0.59333  -0.58535  -0.58025
 Alpha  occ. eigenvalues --   -0.57355  -0.57140  -0.56406  -0.56071  -0.55677
 Alpha  occ. eigenvalues --   -0.55512  -0.54957  -0.54721  -0.54078  -0.53929
 Alpha  occ. eigenvalues --   -0.53511  -0.53308  -0.53020  -0.52777  -0.52601
 Alpha  occ. eigenvalues --   -0.52408  -0.52195  -0.52020  -0.51773  -0.51615
 Alpha  occ. eigenvalues --   -0.51538  -0.50865  -0.50570  -0.50546  -0.50492
 Alpha  occ. eigenvalues --   -0.50401  -0.50217  -0.50066  -0.49628  -0.49435
 Alpha  occ. eigenvalues --   -0.49236  -0.49020  -0.48894  -0.48529  -0.48478
 Alpha  occ. eigenvalues --   -0.48446  -0.48197  -0.47984  -0.47748  -0.47437
 Alpha  occ. eigenvalues --   -0.47401  -0.47016  -0.46645  -0.46626  -0.46543
 Alpha  occ. eigenvalues --   -0.46512  -0.46202  -0.46133  -0.46029  -0.45758
 Alpha  occ. eigenvalues --   -0.45700  -0.45470  -0.45175  -0.45044  -0.44767
 Alpha  occ. eigenvalues --   -0.44630  -0.44368  -0.44247  -0.44104  -0.43911
 Alpha  occ. eigenvalues --   -0.43703  -0.43519  -0.43301  -0.43230  -0.43175
 Alpha  occ. eigenvalues --   -0.42995  -0.42722  -0.42598  -0.42449  -0.42047
 Alpha  occ. eigenvalues --   -0.41842  -0.41492  -0.41414  -0.41369  -0.40996
 Alpha  occ. eigenvalues --   -0.40906  -0.40833  -0.40575  -0.40454  -0.40072
 Alpha  occ. eigenvalues --   -0.39926  -0.39649  -0.39535  -0.39072  -0.38810
 Alpha  occ. eigenvalues --   -0.38433  -0.38224  -0.37988  -0.37626  -0.37491
 Alpha  occ. eigenvalues --   -0.37355  -0.37027  -0.36709  -0.36448  -0.36219
 Alpha  occ. eigenvalues --   -0.35524  -0.35192  -0.34617  -0.34206  -0.33907
 Alpha  occ. eigenvalues --   -0.33445  -0.33383  -0.33193  -0.31155  -0.30777
 Alpha  occ. eigenvalues --   -0.30437  -0.30289  -0.29526  -0.29100  -0.23774
 Alpha  occ. eigenvalues --   -0.21166
 Alpha virt. eigenvalues --   -0.08492  -0.01909   0.00282   0.02454   0.03747
 Alpha virt. eigenvalues --    0.03883   0.05138   0.05421   0.05951   0.06567
 Alpha virt. eigenvalues --    0.07972   0.07989   0.08438   0.08892   0.09176

 Mulliken charges:
               1
     1  Mg   0.821958
     2  C   -0.028438
     3  C   -0.075248
     4  C   -0.032125
     5  C   -0.083095
     6  N   -0.276184
     7  C    0.042670
     8  C   -0.069715
     9  C   -0.076049
    10  C   -0.005737
    11  C    0.043853
    12  C    0.044607
    13  C    0.099446
    14  C    0.095103
    15  O   -0.249745
    16  O   -0.276763
    17  N   -0.425382
    18  C    0.193749
    19  C   -0.156438
    20  C   -0.063297
    21  C    0.159237
    22  C    0.123292
    23  C    0.031604
    24  O   -0.220837
    25  C    0.034039
    26  N   -0.231178
    27  C   -0.010818
    28  C   -0.011715
    29  C   -0.038916
    30  C    0.025336
    31  C    0.053801
    32  C    0.021439
    33  C   -0.005348
    34  N   -0.343667
    35  C    0.134390
    36  C   -0.165803
    37  C    0.002777
    38  C    0.147794
    39  C    0.123571
    40  C    0.033916
    41  O   -0.167016
    42  C   -0.033495
    43  C    0.212389
    44  O   -0.221358
    45  O   -0.350260
    46  C    0.179289
    47  C    0.257537
    48  C   -0.118970
    49  C   -0.145586
    50  C    0.068108
    51  C    0.096392
    52  C   -0.002478
    53  C    0.031869
    54  C   -0.133671
    55  C    0.048726
    56  C    0.018960
    57  C   -0.018036
    58  C    0.063858
    59  C   -0.151744
    60  C    0.095979
    61  C    0.045366
    62  C   -0.010626
    63  C    0.075097
    64  C   -0.129473
    65  C    0.039818
    66  C    0.032818
    67  H   -0.031238
    68  H   -0.008765
    69  H   -0.037945
    70  H    0.057470
    71  H    0.024729
    72  H    0.021689
    73  H    0.008072
    74  H    0.038319
    75  H    0.002111
    76  H    0.011536
    77  H    0.014672
    78  H    0.042665
    79  H    0.016038
    80  H    0.027132
    81  H    0.037660
    82  H    0.035608
    83  H    0.026139
    84  H    0.032512
    85  H    0.014377
    86  H    0.007755
    87  H    0.017793
    88  H    0.012639
    89  H    0.022781
    90  H    0.025816
    91  H    0.014584
    92  H    0.029779
    93  H    0.014020
    94  H    0.011949
    95  H    0.034453
    96  H    0.000058
    97  H    0.038342
    98  H    0.040366
    99  H    0.041677
   100  H    0.032726
   101  H    0.043816
   102  H    0.039346
   103  H    0.014354
   104  H   -0.004390
   105  H    0.034893
   106  H    0.006243
   107  H    0.011592
   108  H    0.006186
   109  H   -0.004336
   110  H    0.001865
   111  H    0.005716
   112  H   -0.000684
   113  H    0.000448
   114  H   -0.004175
   115  H    0.009002
   116  H    0.021096
   117  H    0.025368
   118  H    0.008487
   119  H   -0.005565
   120  H    0.008802
   121  H   -0.005737
   122  H   -0.011174
   123  H   -0.007892
   124  H   -0.013123
   125  H   -0.002496
   126  H   -0.007419
   127  H    0.012130
   128  H   -0.011871
   129  H   -0.005642
   130  H   -0.010318
   131  H   -0.017120
   132  H   -0.001161
   133  H   -0.015961
   134  H   -0.007314
   135  H    0.012429
   136  H   -0.008317
   137  H    0.016253
   138  H    0.004776
   139  H    0.003507
   140  H    0.011289
 Sum of Mulliken charges =  -0.00000

 Dipole moment (field-independent basis, Debye):
    X=              4.3307    Y=              2.1757    Z=             -1.4809  Tot=              5.0677
 Quadrupole moment (field-independent basis, Debye-Ang):
   XX=           -374.9568   YY=           -423.2045   ZZ=           -407.6799
   XY=            -15.0930   XZ=             -6.0511   YZ=              0.6015

 Normal termination of Gaussian 16 at Sat Apr 30 19:24:59 2022.
