 Gaussian 16, Revision A.03,
 Gaussian 16:  ES64L-G16RevA.03 25-Dec-2016

 ---------------------------------
 #p PBE1PBE/Def2SVP td=(nstates=5)
 ---------------------------------

 ----------------------------------------------------
 step_851_chromophore_6 TDDFT with PBE1PBE functional
 ----------------------------------------------------
 Symbolic Z-matrix:
 Charge =  0 Multiplicity = 1

                         Standard orientation:
 ---------------------------------------------------------------------
 Center     Atomic      Atomic             Coordinates (Angstroms)
 Number     Number       Type             X           Y           Z
 ---------------------------------------------------------------------
      1         12           0       -5.365102    0.935083   -0.311554
      2          6           0       -4.125398   -2.310378   -0.450487
      3          6           0       -2.183510    2.206060   -0.415756
      4          6           0       -6.708778    3.910845    0.341842
      5          6           0       -8.622765   -0.548892    0.122343
      6          7           0       -3.409999    0.021693   -0.488183
      7          6           0       -3.134866   -1.278250   -0.338502
      8          6           0       -1.617041   -1.468811   -0.255991
      9          6           0       -0.981838   -0.044860   -0.313909
     10          6           0       -2.283601    0.784422   -0.426397
     11          6           0       -0.111580    0.272868    1.009445
     12          6           0       -1.127822   -2.177537   -1.590214
     13          6           0       -0.153019   -3.369919   -1.442847
     14          6           0        0.924982   -3.288699   -0.409899
     15          8           0        0.787194   -3.655622    0.743140
     16          8           0        2.051256   -2.784991   -0.887192
     17          7           0       -4.586086    2.831304   -0.300849
     18          6           0       -3.247075    3.142316   -0.408677
     19          6           0       -3.113953    4.575366   -0.507894
     20          6           0       -4.437918    5.093041   -0.114132
     21          6           0       -5.356987    3.963721   -0.040993
     22          6           0       -1.865816    5.302828   -0.825993
     23          6           0       -4.895848    6.583031   -0.004233
     24          8           0       -6.083585    6.933777    0.128625
     25          6           0       -3.851081    7.648643   -0.095979
     26          7           0       -7.414384    1.597445    0.232635
     27          6           0       -7.666948    2.878175    0.510463
     28          6           0       -9.093465    3.058024    1.021944
     29          6           0       -9.756072    1.675948    0.771042
     30          6           0       -8.491248    0.813278    0.388135
     31          6           0       -9.137965    3.579481    2.533724
     32          6           0      -10.751571    1.695644   -0.403993
     33          6           0      -12.045855    0.829490   -0.133009
     34          7           0       -6.232385   -0.983366   -0.270385
     35          6           0       -7.569427   -1.434240   -0.148276
     36          6           0       -7.602220   -2.843570   -0.152559
     37          6           0       -6.253843   -3.247739   -0.392762
     38          6           0       -5.490791   -2.072748   -0.384624
     39          6           0       -8.825193   -3.690244    0.034131
     40          6           0       -5.392141   -4.406044   -0.538591
     41          8           0       -5.718954   -5.588227   -0.617028
     42          6           0       -3.873812   -3.836420   -0.530903
     43          6           0       -3.114768   -4.363357    0.576154
     44          8           0       -3.034122   -3.859068    1.691993
     45          8           0       -2.618022   -5.612539    0.268683
     46          6           0       -2.059912   -6.441035    1.369592
     47          6           0        3.102691   -2.614404    0.073385
     48          6           0        4.475474   -2.614913   -0.717312
     49          6           0        5.440934   -3.589938   -0.796511
     50          6           0        5.283779   -5.049442   -0.424048
     51          6           0        6.837299   -3.358908   -1.326806
     52          6           0        7.711881   -2.517641   -0.402272
     53          6           0        8.276444   -1.220351   -1.037861
     54          6           0        8.096020    0.082857   -0.195537
     55          6           0        8.424812    1.419181   -1.023567
     56          6           0        8.932574   -0.050887    1.175573
     57          6           0       10.490854   -0.079489    1.067143
     58          6           0       11.217753    0.783566    2.128641
     59          6           0       12.668579    0.408032    2.409755
     60          6           0       13.071089    0.216193    3.820447
     61          6           0       13.737546    1.496208    1.843976
     62          6           0       13.616250    1.594309    0.362072
     63          6           0       13.249234    2.980179   -0.184642
     64          6           0       13.229060    2.984696   -1.718567
     65          6           0       11.784923    3.246526   -2.230258
     66          6           0       14.334075    3.849290   -2.392148
     67          1           0       -1.140368    2.502534   -0.545836
     68          1           0       -7.181483    4.870521    0.557451
     69          1           0       -9.629241   -0.972069    0.089414
     70          1           0       -1.117072   -1.920389    0.600458
     71          1           0       -0.447070    0.260791   -1.212299
     72          1           0       -0.597839    1.064811    1.577501
     73          1           0        0.880942    0.660440    0.782227
     74          1           0        0.017043   -0.605758    1.641393
     75          1           0       -0.771660   -1.403943   -2.271062
     76          1           0       -1.940236   -2.613424   -2.171954
     77          1           0        0.394540   -3.307500   -2.383450
     78          1           0       -0.616199   -4.351383   -1.344453
     79          1           0       -0.974382    4.710647   -1.035734
     80          1           0       -1.588741    5.876308    0.057826
     81          1           0       -2.095683    5.989265   -1.641700
     82          1           0       -3.189799    7.659012    0.770473
     83          1           0       -4.428276    8.569682   -0.015729
     84          1           0       -3.226209    7.631513   -0.989395
     85          1           0       -9.588448    3.825550    0.427728
     86          1           0      -10.205572    1.262301    1.673474
     87          1           0       -9.500826    2.777550    3.178155
     88          1           0       -9.776575    4.457761    2.631028
     89          1           0       -8.210749    4.001761    2.922821
     90          1           0      -10.158209    1.293044   -1.225733
     91          1           0      -11.155375    2.693980   -0.569203
     92          1           0      -11.846891   -0.194009   -0.450878
     93          1           0      -12.880739    1.314233   -0.638312
     94          1           0      -12.328164    0.894736    0.917674
     95          1           0       -8.771544   -4.516911   -0.675276
     96          1           0       -9.714327   -3.103972   -0.195654
     97          1           0       -8.975260   -4.113348    1.027002
     98          1           0       -3.471529   -4.285251   -1.438954
     99          1           0       -0.975674   -6.353004    1.299386
    100          1           0       -2.346772   -7.488131    1.274909
    101          1           0       -2.395389   -6.222527    2.383454
    102          1           0        3.107829   -3.344415    0.882528
    103          1           0        2.988487   -1.624411    0.516027
    104          1           0        4.673200   -1.648875   -1.182463
    105          1           0        5.449340   -5.751792   -1.241301
    106          1           0        4.324531   -5.279992    0.040113
    107          1           0        5.982562   -5.342352    0.358675
    108          1           0        6.764774   -2.744285   -2.224642
    109          1           0        7.353724   -4.290261   -1.562993
    110          1           0        8.529351   -3.114057    0.002723
    111          1           0        7.053957   -2.288591    0.435651
    112          1           0        7.948194   -0.951495   -2.042604
    113          1           0        9.297436   -1.579844   -1.169876
    114          1           0        7.072538    0.107660    0.179303
    115          1           0        8.811093    1.065894   -1.979900
    116          1           0        9.258606    1.922084   -0.534265
    117          1           0        7.507873    1.987823   -1.182840
    118          1           0        8.586426   -0.797508    1.890570
    119          1           0        8.686967    0.917145    1.611225
    120          1           0       10.777571    0.201015    0.053447
    121          1           0       10.864517   -1.094162    1.202059
    122          1           0       10.641378    0.705295    3.050740
    123          1           0       11.137585    1.831534    1.839309
    124          1           0       12.756885   -0.516980    1.838931
    125          1           0       14.148983    0.151755    3.965970
    126          1           0       12.767902   -0.805176    4.052990
    127          1           0       12.644126    0.977025    4.474137
    128          1           0       14.758613    1.157492    2.019400
    129          1           0       13.618949    2.420929    2.409477
    130          1           0       12.990623    0.773438    0.012297
    131          1           0       14.595862    1.377261   -0.064462
    132          1           0       13.915659    3.712320    0.272944
    133          1           0       12.221179    3.057969    0.167492
    134          1           0       13.499749    1.975503   -2.027012
    135          1           0       11.265620    2.295525   -2.348781
    136          1           0       11.852459    3.701710   -3.218495
    137          1           0       11.214131    3.948561   -1.622798
    138          1           0       14.312040    3.932847   -3.478754
    139          1           0       15.285445    3.343373   -2.230845
    140          1           0       14.325937    4.855041   -1.972324
 ---------------------------------------------------------------------

 SCF Done:  E(RPBE1PBE) =  -3005.38333711     A.U. after   15 cycles

 Excitation energies and oscillator strengths:

 Excited State   1:      Singlet-A      1.9029 eV  651.56 nm  f=0.3770  <S**2>=0.000
     245 -> 248       -0.19629
     246 -> 247        0.68587
 This state for optimization and/or second-order correction.
 Total Energy, E(TD-HF/TD-DFT) =  -3005.31340707
 Copying the excited state density for this state as the 1-particle RhoCI density.

 Excited State   2:      Singlet-A      2.2406 eV  553.36 nm  f=0.1053  <S**2>=0.000
     245 -> 247        0.64681
     246 -> 248        0.27155

 Excited State   3:      Singlet-A      2.9423 eV  421.39 nm  f=0.0018  <S**2>=0.000
     241 -> 247       -0.12900
     243 -> 247       -0.24378
     244 -> 247        0.63966

 Excited State   4:      Singlet-A      3.0106 eV  411.83 nm  f=0.0013  <S**2>=0.000
     241 -> 247        0.33644
     243 -> 247        0.51118
     244 -> 247        0.27776
     246 -> 248       -0.10896

 Excited State   5:      Singlet-A      3.1557 eV  392.89 nm  f=0.0012  <S**2>=0.000
     240 -> 247        0.46863
     240 -> 249       -0.12431
     241 -> 247        0.40922
     243 -> 247       -0.25044

 The electronic state is 1-A.
 Alpha  occ. eigenvalues --  -46.91791 -19.26353 -19.24650 -19.19445 -19.19289
 Alpha  occ. eigenvalues --  -19.19221 -19.18668 -14.41907 -14.41153 -14.38918
 Alpha  occ. eigenvalues --  -14.38462 -10.35693 -10.35197 -10.32522 -10.32450
 Alpha  occ. eigenvalues --  -10.29989 -10.29265 -10.28728 -10.28372 -10.28156
 Alpha  occ. eigenvalues --  -10.28084 -10.27854 -10.27767 -10.26919 -10.26495
 Alpha  occ. eigenvalues --  -10.25982 -10.25951 -10.25934 -10.25904 -10.25719
 Alpha  occ. eigenvalues --  -10.25512 -10.25485 -10.25451 -10.25335 -10.25155
 Alpha  occ. eigenvalues --  -10.25072 -10.24897 -10.24748 -10.24665 -10.24420
 Alpha  occ. eigenvalues --  -10.24384 -10.24360 -10.23928 -10.23925 -10.23710
 Alpha  occ. eigenvalues --  -10.23419 -10.23373 -10.23299 -10.23236 -10.23209
 Alpha  occ. eigenvalues --  -10.23186 -10.23147 -10.23087 -10.22947 -10.22943
 Alpha  occ. eigenvalues --  -10.22931 -10.22866 -10.22823 -10.22701 -10.22452
 Alpha  occ. eigenvalues --  -10.21987 -10.21958 -10.21835 -10.21750 -10.21367
 Alpha  occ. eigenvalues --  -10.21362  -3.13857  -1.86725  -1.86233  -1.86073
 Alpha  occ. eigenvalues --   -1.13559  -1.09285  -1.03972  -1.03509  -1.03058
 Alpha  occ. eigenvalues --   -1.00883  -0.99280  -0.98850  -0.97793  -0.96387
 Alpha  occ. eigenvalues --   -0.86369  -0.84766  -0.84228  -0.83642  -0.83000
 Alpha  occ. eigenvalues --   -0.82392  -0.82299  -0.81512  -0.81428  -0.81258
 Alpha  occ. eigenvalues --   -0.80580  -0.79792  -0.78233  -0.77741  -0.77264
 Alpha  occ. eigenvalues --   -0.76579  -0.76005  -0.75642  -0.75190  -0.74641
 Alpha  occ. eigenvalues --   -0.74325  -0.72384  -0.71838  -0.71037  -0.70266
 Alpha  occ. eigenvalues --   -0.69959  -0.69719  -0.69619  -0.69149  -0.68344
 Alpha  occ. eigenvalues --   -0.68095  -0.67238  -0.66439  -0.64798  -0.63187
 Alpha  occ. eigenvalues --   -0.62967  -0.62778  -0.61373  -0.61108  -0.60357
 Alpha  occ. eigenvalues --   -0.59825  -0.59526  -0.59071  -0.58742  -0.58496
 Alpha  occ. eigenvalues --   -0.58036  -0.56919  -0.56014  -0.55954  -0.54762
 Alpha  occ. eigenvalues --   -0.54484  -0.54271  -0.53934  -0.53219  -0.52621
 Alpha  occ. eigenvalues --   -0.51785  -0.51532  -0.50945  -0.50576  -0.50118
 Alpha  occ. eigenvalues --   -0.49862  -0.49456  -0.49305  -0.48544  -0.48445
 Alpha  occ. eigenvalues --   -0.48055  -0.47812  -0.47523  -0.47288  -0.47109
 Alpha  occ. eigenvalues --   -0.46769  -0.46706  -0.46553  -0.46353  -0.46236
 Alpha  occ. eigenvalues --   -0.45988  -0.45459  -0.45271  -0.45128  -0.45042
 Alpha  occ. eigenvalues --   -0.44923  -0.44819  -0.44603  -0.44204  -0.44014
 Alpha  occ. eigenvalues --   -0.43864  -0.43622  -0.43491  -0.43200  -0.43053
 Alpha  occ. eigenvalues --   -0.43018  -0.42780  -0.42600  -0.42348  -0.42082
 Alpha  occ. eigenvalues --   -0.42051  -0.41666  -0.41350  -0.41258  -0.41212
 Alpha  occ. eigenvalues --   -0.41074  -0.40906  -0.40830  -0.40647  -0.40482
 Alpha  occ. eigenvalues --   -0.40356  -0.40286  -0.39895  -0.39814  -0.39531
 Alpha  occ. eigenvalues --   -0.39361  -0.39132  -0.39030  -0.38832  -0.38639
 Alpha  occ. eigenvalues --   -0.38534  -0.38262  -0.38071  -0.37987  -0.37971
 Alpha  occ. eigenvalues --   -0.37779  -0.37442  -0.37346  -0.37267  -0.36894
 Alpha  occ. eigenvalues --   -0.36560  -0.36352  -0.36249  -0.36087  -0.35845
 Alpha  occ. eigenvalues --   -0.35706  -0.35597  -0.35380  -0.35325  -0.34833
 Alpha  occ. eigenvalues --   -0.34819  -0.34507  -0.34425  -0.33876  -0.33797
 Alpha  occ. eigenvalues --   -0.33264  -0.33241  -0.32762  -0.32576  -0.32512
 Alpha  occ. eigenvalues --   -0.32154  -0.31897  -0.31613  -0.31563  -0.31271
 Alpha  occ. eigenvalues --   -0.30411  -0.30050  -0.29533  -0.29471  -0.29019
 Alpha  occ. eigenvalues --   -0.28607  -0.28423  -0.27875  -0.26483  -0.25863
 Alpha  occ. eigenvalues --   -0.25606  -0.25580  -0.25127  -0.24683  -0.20775
 Alpha  occ. eigenvalues --   -0.18811
 Alpha virt. eigenvalues --   -0.10965  -0.05368  -0.03931  -0.01956  -0.00619
 Alpha virt. eigenvalues --    0.00647   0.00914   0.01071   0.02028   0.02763
 Alpha virt. eigenvalues --    0.03790   0.04666   0.04812   0.05427   0.05793

 Mulliken charges:
               1
     1  Mg   0.970394
     2  C   -0.030263
     3  C   -0.062527
     4  C   -0.034509
     5  C   -0.077425
     6  N   -0.383174
     7  C    0.123199
     8  C   -0.149767
     9  C   -0.146811
    10  C    0.035450
    11  C   -0.012343
    12  C    0.002611
    13  C    0.019214
    14  C    0.167930
    15  O   -0.283891
    16  O   -0.309661
    17  N   -0.541153
    18  C    0.214565
    19  C   -0.184320
    20  C   -0.105382
    21  C    0.193454
    22  C    0.058297
    23  C    0.079016
    24  O   -0.257466
    25  C   -0.039419
    26  N   -0.337896
    27  C    0.029578
    28  C   -0.086846
    29  C   -0.111815
    30  C    0.062663
    31  C   -0.001713
    32  C   -0.038121
    33  C   -0.078132
    34  N   -0.473358
    35  C    0.154790
    36  C   -0.184788
    37  C   -0.039701
    38  C    0.184320
    39  C    0.071107
    40  C    0.128823
    41  O   -0.211332
    42  C   -0.138515
    43  C    0.307179
    44  O   -0.257504
    45  O   -0.384214
    46  C    0.125505
    47  C    0.213823
    48  C   -0.131101
    49  C   -0.192723
    50  C    0.005655
    51  C    0.034780
    52  C   -0.061473
    53  C   -0.020837
    54  C   -0.217793
    55  C   -0.017711
    56  C   -0.034408
    57  C   -0.084931
    58  C    0.014867
    59  C   -0.241933
    60  C    0.032308
    61  C   -0.005849
    62  C   -0.078877
    63  C    0.016116
    64  C   -0.220796
    65  C   -0.025205
    66  C   -0.028422
    67  H    0.000883
    68  H    0.023675
    69  H   -0.002556
    70  H    0.093805
    71  H    0.059224
    72  H    0.049659
    73  H    0.035395
    74  H    0.063930
    75  H    0.033417
    76  H    0.045151
    77  H    0.049101
    78  H    0.074796
    79  H    0.043136
    80  H    0.055526
    81  H    0.065601
    82  H    0.062268
    83  H    0.053626
    84  H    0.058261
    85  H    0.050611
    86  H    0.043494
    87  H    0.044850
    88  H    0.039900
    89  H    0.050072
    90  H    0.059745
    91  H    0.047306
    92  H    0.056310
    93  H    0.042572
    94  H    0.039597
    95  H    0.061946
    96  H    0.027358
    97  H    0.065627
    98  H    0.075653
    99  H    0.063376
   100  H    0.054211
   101  H    0.064372
   102  H    0.064413
   103  H    0.042411
   104  H    0.025562
   105  H    0.062139
   106  H    0.034602
   107  H    0.040155
   108  H    0.040330
   109  H    0.027151
   110  H    0.033983
   111  H    0.039397
   112  H    0.030189
   113  H    0.033006
   114  H    0.034094
   115  H    0.036389
   116  H    0.050748
   117  H    0.052704
   118  H    0.039558
   119  H    0.029189
   120  H    0.041919
   121  H    0.027492
   122  H    0.022458
   123  H    0.026364
   124  H    0.025130
   125  H    0.025760
   126  H    0.021856
   127  H    0.039487
   128  H    0.021190
   129  H    0.026085
   130  H    0.024672
   131  H    0.018108
   132  H    0.030251
   133  H    0.021531
   134  H    0.031049
   135  H    0.042161
   136  H    0.020249
   137  H    0.042295
   138  H    0.032067
   139  H    0.031592
   140  H    0.038829
 Sum of Mulliken charges =  -0.00000

 Dipole moment (field-independent basis, Debye):
    X=              4.2890    Y=              2.0818    Z=             -1.4384  Tot=              4.9798
 Quadrupole moment (field-independent basis, Debye-Ang):
   XX=           -367.9834   YY=           -420.7893   ZZ=           -405.2875
   XY=            -14.9177   XZ=             -6.5181   YZ=              0.7407

 Normal termination of Gaussian 16 at Sat Apr 30 19:45:01 2022.
