 Gaussian 16, Revision A.03,
 Gaussian 16:  ES64L-G16RevA.03 25-Dec-2016

 --------------------------------
 #p wB97XD/Def2SVP td=(nstates=5)
 --------------------------------

 ---------------------------------------------------
 step_851_chromophore_6 TDDFT with wB97XD functional
 ---------------------------------------------------
 Symbolic Z-matrix:
 Charge =  0 Multiplicity = 1

                         Standard orientation:
 ---------------------------------------------------------------------
 Center     Atomic      Atomic             Coordinates (Angstroms)
 Number     Number       Type             X           Y           Z
 ---------------------------------------------------------------------
      1         12           0       -5.365102    0.935083   -0.311554
      2          6           0       -4.125398   -2.310378   -0.450487
      3          6           0       -2.183510    2.206060   -0.415756
      4          6           0       -6.708778    3.910845    0.341842
      5          6           0       -8.622765   -0.548892    0.122343
      6          7           0       -3.409999    0.021693   -0.488183
      7          6           0       -3.134866   -1.278250   -0.338502
      8          6           0       -1.617041   -1.468811   -0.255991
      9          6           0       -0.981838   -0.044860   -0.313909
     10          6           0       -2.283601    0.784422   -0.426397
     11          6           0       -0.111580    0.272868    1.009445
     12          6           0       -1.127822   -2.177537   -1.590214
     13          6           0       -0.153019   -3.369919   -1.442847
     14          6           0        0.924982   -3.288699   -0.409899
     15          8           0        0.787194   -3.655622    0.743140
     16          8           0        2.051256   -2.784991   -0.887192
     17          7           0       -4.586086    2.831304   -0.300849
     18          6           0       -3.247075    3.142316   -0.408677
     19          6           0       -3.113953    4.575366   -0.507894
     20          6           0       -4.437918    5.093041   -0.114132
     21          6           0       -5.356987    3.963721   -0.040993
     22          6           0       -1.865816    5.302828   -0.825993
     23          6           0       -4.895848    6.583031   -0.004233
     24          8           0       -6.083585    6.933777    0.128625
     25          6           0       -3.851081    7.648643   -0.095979
     26          7           0       -7.414384    1.597445    0.232635
     27          6           0       -7.666948    2.878175    0.510463
     28          6           0       -9.093465    3.058024    1.021944
     29          6           0       -9.756072    1.675948    0.771042
     30          6           0       -8.491248    0.813278    0.388135
     31          6           0       -9.137965    3.579481    2.533724
     32          6           0      -10.751571    1.695644   -0.403993
     33          6           0      -12.045855    0.829490   -0.133009
     34          7           0       -6.232385   -0.983366   -0.270385
     35          6           0       -7.569427   -1.434240   -0.148276
     36          6           0       -7.602220   -2.843570   -0.152559
     37          6           0       -6.253843   -3.247739   -0.392762
     38          6           0       -5.490791   -2.072748   -0.384624
     39          6           0       -8.825193   -3.690244    0.034131
     40          6           0       -5.392141   -4.406044   -0.538591
     41          8           0       -5.718954   -5.588227   -0.617028
     42          6           0       -3.873812   -3.836420   -0.530903
     43          6           0       -3.114768   -4.363357    0.576154
     44          8           0       -3.034122   -3.859068    1.691993
     45          8           0       -2.618022   -5.612539    0.268683
     46          6           0       -2.059912   -6.441035    1.369592
     47          6           0        3.102691   -2.614404    0.073385
     48          6           0        4.475474   -2.614913   -0.717312
     49          6           0        5.440934   -3.589938   -0.796511
     50          6           0        5.283779   -5.049442   -0.424048
     51          6           0        6.837299   -3.358908   -1.326806
     52          6           0        7.711881   -2.517641   -0.402272
     53          6           0        8.276444   -1.220351   -1.037861
     54          6           0        8.096020    0.082857   -0.195537
     55          6           0        8.424812    1.419181   -1.023567
     56          6           0        8.932574   -0.050887    1.175573
     57          6           0       10.490854   -0.079489    1.067143
     58          6           0       11.217753    0.783566    2.128641
     59          6           0       12.668579    0.408032    2.409755
     60          6           0       13.071089    0.216193    3.820447
     61          6           0       13.737546    1.496208    1.843976
     62          6           0       13.616250    1.594309    0.362072
     63          6           0       13.249234    2.980179   -0.184642
     64          6           0       13.229060    2.984696   -1.718567
     65          6           0       11.784923    3.246526   -2.230258
     66          6           0       14.334075    3.849290   -2.392148
     67          1           0       -1.140368    2.502534   -0.545836
     68          1           0       -7.181483    4.870521    0.557451
     69          1           0       -9.629241   -0.972069    0.089414
     70          1           0       -1.117072   -1.920389    0.600458
     71          1           0       -0.447070    0.260791   -1.212299
     72          1           0       -0.597839    1.064811    1.577501
     73          1           0        0.880942    0.660440    0.782227
     74          1           0        0.017043   -0.605758    1.641393
     75          1           0       -0.771660   -1.403943   -2.271062
     76          1           0       -1.940236   -2.613424   -2.171954
     77          1           0        0.394540   -3.307500   -2.383450
     78          1           0       -0.616199   -4.351383   -1.344453
     79          1           0       -0.974382    4.710647   -1.035734
     80          1           0       -1.588741    5.876308    0.057826
     81          1           0       -2.095683    5.989265   -1.641700
     82          1           0       -3.189799    7.659012    0.770473
     83          1           0       -4.428276    8.569682   -0.015729
     84          1           0       -3.226209    7.631513   -0.989395
     85          1           0       -9.588448    3.825550    0.427728
     86          1           0      -10.205572    1.262301    1.673474
     87          1           0       -9.500826    2.777550    3.178155
     88          1           0       -9.776575    4.457761    2.631028
     89          1           0       -8.210749    4.001761    2.922821
     90          1           0      -10.158209    1.293044   -1.225733
     91          1           0      -11.155375    2.693980   -0.569203
     92          1           0      -11.846891   -0.194009   -0.450878
     93          1           0      -12.880739    1.314233   -0.638312
     94          1           0      -12.328164    0.894736    0.917674
     95          1           0       -8.771544   -4.516911   -0.675276
     96          1           0       -9.714327   -3.103972   -0.195654
     97          1           0       -8.975260   -4.113348    1.027002
     98          1           0       -3.471529   -4.285251   -1.438954
     99          1           0       -0.975674   -6.353004    1.299386
    100          1           0       -2.346772   -7.488131    1.274909
    101          1           0       -2.395389   -6.222527    2.383454
    102          1           0        3.107829   -3.344415    0.882528
    103          1           0        2.988487   -1.624411    0.516027
    104          1           0        4.673200   -1.648875   -1.182463
    105          1           0        5.449340   -5.751792   -1.241301
    106          1           0        4.324531   -5.279992    0.040113
    107          1           0        5.982562   -5.342352    0.358675
    108          1           0        6.764774   -2.744285   -2.224642
    109          1           0        7.353724   -4.290261   -1.562993
    110          1           0        8.529351   -3.114057    0.002723
    111          1           0        7.053957   -2.288591    0.435651
    112          1           0        7.948194   -0.951495   -2.042604
    113          1           0        9.297436   -1.579844   -1.169876
    114          1           0        7.072538    0.107660    0.179303
    115          1           0        8.811093    1.065894   -1.979900
    116          1           0        9.258606    1.922084   -0.534265
    117          1           0        7.507873    1.987823   -1.182840
    118          1           0        8.586426   -0.797508    1.890570
    119          1           0        8.686967    0.917145    1.611225
    120          1           0       10.777571    0.201015    0.053447
    121          1           0       10.864517   -1.094162    1.202059
    122          1           0       10.641378    0.705295    3.050740
    123          1           0       11.137585    1.831534    1.839309
    124          1           0       12.756885   -0.516980    1.838931
    125          1           0       14.148983    0.151755    3.965970
    126          1           0       12.767902   -0.805176    4.052990
    127          1           0       12.644126    0.977025    4.474137
    128          1           0       14.758613    1.157492    2.019400
    129          1           0       13.618949    2.420929    2.409477
    130          1           0       12.990623    0.773438    0.012297
    131          1           0       14.595862    1.377261   -0.064462
    132          1           0       13.915659    3.712320    0.272944
    133          1           0       12.221179    3.057969    0.167492
    134          1           0       13.499749    1.975503   -2.027012
    135          1           0       11.265620    2.295525   -2.348781
    136          1           0       11.852459    3.701710   -3.218495
    137          1           0       11.214131    3.948561   -1.622798
    138          1           0       14.312040    3.932847   -3.478754
    139          1           0       15.285445    3.343373   -2.230845
    140          1           0       14.325937    4.855041   -1.972324
 ---------------------------------------------------------------------

 SCF Done:  E(RwB97XD) =  -3007.89439779     A.U. after   19 cycles

 Excitation energies and oscillator strengths:

 Excited State   1:      Singlet-A      1.6836 eV  736.44 nm  f=0.3867  <S**2>=0.000
     245 -> 248        0.20849
     246 -> 247        0.67755
     245 <- 248        0.12219
 This state for optimization and/or second-order correction.
 Total Energy, E(TD-HF/TD-DFT) =  -3007.83252841
 Copying the excited state density for this state as the 1-particle RhoCI density.

 Excited State   2:      Singlet-A      2.1772 eV  569.47 nm  f=0.1061  <S**2>=0.000
     245 -> 247        0.63279
     246 -> 248       -0.30112

 Excited State   3:      Singlet-A      3.2997 eV  375.75 nm  f=0.0040  <S**2>=0.000
     244 -> 247        0.67811
     246 -> 248        0.11043

 Excited State   4:      Singlet-A      3.4304 eV  361.43 nm  f=0.1026  <S**2>=0.000
     241 -> 247        0.10290
     243 -> 247        0.55590
     245 -> 247        0.10452
     246 -> 248        0.35306

 Excited State   5:      Singlet-A      3.5638 eV  347.90 nm  f=0.1642  <S**2>=0.000
     240 -> 247        0.14904
     241 -> 247        0.49053
     241 -> 249        0.25309
     241 -> 250       -0.18104
     245 -> 247       -0.13576
     246 -> 248       -0.28517

 The electronic state is 1-A.
 Alpha  occ. eigenvalues --  -46.94729 -19.30915 -19.29234 -19.24099 -19.24073
 Alpha  occ. eigenvalues --  -19.24040 -19.23407 -14.46939 -14.46304 -14.43870
 Alpha  occ. eigenvalues --  -14.43358 -10.42460 -10.42080 -10.39428 -10.39280
 Alpha  occ. eigenvalues --  -10.36484 -10.35545 -10.35061 -10.34691 -10.34477
 Alpha  occ. eigenvalues --  -10.34362 -10.34341 -10.34190 -10.33131 -10.33021
 Alpha  occ. eigenvalues --  -10.32373 -10.32290 -10.32216 -10.32143 -10.31942
 Alpha  occ. eigenvalues --  -10.31934 -10.31776 -10.31696 -10.31678 -10.31471
 Alpha  occ. eigenvalues --  -10.31262 -10.31255 -10.31213 -10.31013 -10.30831
 Alpha  occ. eigenvalues --  -10.30828 -10.30722 -10.30407 -10.30190 -10.30079
 Alpha  occ. eigenvalues --  -10.29866 -10.29787 -10.29726 -10.29724 -10.29598
 Alpha  occ. eigenvalues --  -10.29552 -10.29514 -10.29501 -10.29306 -10.29291
 Alpha  occ. eigenvalues --  -10.29261 -10.29219 -10.29177 -10.28918 -10.28834
 Alpha  occ. eigenvalues --  -10.28398 -10.28366 -10.28194 -10.28187 -10.27806
 Alpha  occ. eigenvalues --  -10.27755  -3.20651  -1.94267  -1.93774  -1.93615
 Alpha  occ. eigenvalues --   -1.20907  -1.16716  -1.11411  -1.11074  -1.10372
 Alpha  occ. eigenvalues --   -1.08280  -1.06645  -1.06229  -1.05106  -1.03802
 Alpha  occ. eigenvalues --   -0.93964  -0.92438  -0.91902  -0.91261  -0.90602
 Alpha  occ. eigenvalues --   -0.90062  -0.89902  -0.89154  -0.89041  -0.88910
 Alpha  occ. eigenvalues --   -0.88234  -0.87420  -0.85890  -0.85371  -0.84907
 Alpha  occ. eigenvalues --   -0.84232  -0.83756  -0.83327  -0.82821  -0.82296
 Alpha  occ. eigenvalues --   -0.81941  -0.80037  -0.79491  -0.78643  -0.77888
 Alpha  occ. eigenvalues --   -0.77637  -0.77420  -0.77218  -0.76820  -0.76010
 Alpha  occ. eigenvalues --   -0.75697  -0.74761  -0.73960  -0.72397  -0.70741
 Alpha  occ. eigenvalues --   -0.70613  -0.70297  -0.68945  -0.68742  -0.67816
 Alpha  occ. eigenvalues --   -0.67322  -0.67176  -0.66563  -0.66175  -0.65946
 Alpha  occ. eigenvalues --   -0.65739  -0.64557  -0.63547  -0.63431  -0.62263
 Alpha  occ. eigenvalues --   -0.61973  -0.61717  -0.61327  -0.60540  -0.60001
 Alpha  occ. eigenvalues --   -0.59290  -0.59004  -0.58373  -0.58009  -0.57581
 Alpha  occ. eigenvalues --   -0.57395  -0.56874  -0.56700  -0.55962  -0.55841
 Alpha  occ. eigenvalues --   -0.55412  -0.55202  -0.54906  -0.54663  -0.54518
 Alpha  occ. eigenvalues --   -0.54322  -0.54117  -0.53950  -0.53698  -0.53536
 Alpha  occ. eigenvalues --   -0.53386  -0.52779  -0.52514  -0.52454  -0.52447
 Alpha  occ. eigenvalues --   -0.52277  -0.52181  -0.51953  -0.51549  -0.51336
 Alpha  occ. eigenvalues --   -0.51202  -0.50956  -0.50794  -0.50498  -0.50383
 Alpha  occ. eigenvalues --   -0.50348  -0.50097  -0.49900  -0.49628  -0.49324
 Alpha  occ. eigenvalues --   -0.49289  -0.48908  -0.48596  -0.48503  -0.48441
 Alpha  occ. eigenvalues --   -0.48350  -0.48137  -0.48065  -0.47889  -0.47670
 Alpha  occ. eigenvalues --   -0.47563  -0.47403  -0.47083  -0.46964  -0.46666
 Alpha  occ. eigenvalues --   -0.46520  -0.46270  -0.46188  -0.46024  -0.45795
 Alpha  occ. eigenvalues --   -0.45625  -0.45411  -0.45288  -0.45101  -0.45071
 Alpha  occ. eigenvalues --   -0.44878  -0.44638  -0.44487  -0.44377  -0.43969
 Alpha  occ. eigenvalues --   -0.43700  -0.43529  -0.43346  -0.43210  -0.42894
 Alpha  occ. eigenvalues --   -0.42788  -0.42744  -0.42443  -0.42352  -0.41913
 Alpha  occ. eigenvalues --   -0.41813  -0.41501  -0.41445  -0.40913  -0.40749
 Alpha  occ. eigenvalues --   -0.40279  -0.40155  -0.39815  -0.39481  -0.39450
 Alpha  occ. eigenvalues --   -0.39207  -0.38932  -0.38623  -0.38543  -0.38152
 Alpha  occ. eigenvalues --   -0.37507  -0.37039  -0.36455  -0.36241  -0.35851
 Alpha  occ. eigenvalues --   -0.35563  -0.35287  -0.35076  -0.33132  -0.32960
 Alpha  occ. eigenvalues --   -0.32476  -0.32309  -0.31692  -0.31285  -0.25693
 Alpha  occ. eigenvalues --   -0.22968
 Alpha virt. eigenvalues --   -0.06861  -0.00014   0.02336   0.04544   0.06064
 Alpha virt. eigenvalues --    0.06877   0.07376   0.07722   0.08692   0.09041
 Alpha virt. eigenvalues --    0.10385   0.11348   0.11558   0.12234   0.12593

 Mulliken charges:
               1
     1  Mg   0.961582
     2  C   -0.036996
     3  C   -0.084895
     4  C   -0.046905
     5  C   -0.087649
     6  N   -0.349382
     7  C    0.089225
     8  C   -0.120296
     9  C   -0.123070
    10  C    0.021774
    11  C    0.000051
    12  C    0.013198
    13  C    0.037751
    14  C    0.153011
    15  O   -0.279927
    16  O   -0.307801
    17  N   -0.510028
    18  C    0.209858
    19  C   -0.173982
    20  C   -0.100972
    21  C    0.183746
    22  C    0.072371
    23  C    0.076800
    24  O   -0.251486
    25  C   -0.028860
    26  N   -0.301738
    27  C    0.014134
    28  C   -0.063024
    29  C   -0.086138
    30  C    0.049211
    31  C    0.008535
    32  C   -0.025036
    33  C   -0.060683
    34  N   -0.434554
    35  C    0.146986
    36  C   -0.180567
    37  C   -0.040085
    38  C    0.174939
    39  C    0.082019
    40  C    0.110504
    41  O   -0.202616
    42  C   -0.101448
    43  C    0.279898
    44  O   -0.250529
    45  O   -0.381703
    46  C    0.139952
    47  C    0.227448
    48  C   -0.141590
    49  C   -0.174845
    50  C    0.019152
    51  C    0.049869
    52  C   -0.044153
    53  C   -0.007880
    54  C   -0.186547
    55  C    0.001019
    56  C   -0.019955
    57  C   -0.062035
    58  C    0.026449
    59  C   -0.205470
    60  C    0.043803
    61  C    0.004249
    62  C   -0.052065
    63  C    0.035566
    64  C   -0.193322
    65  C   -0.008195
    66  C   -0.015231
    67  H   -0.006232
    68  H    0.018706
    69  H   -0.015602
    70  H    0.077823
    71  H    0.048519
    72  H    0.042718
    73  H    0.029810
    74  H    0.059291
    75  H    0.026236
    76  H    0.034481
    77  H    0.043427
    78  H    0.068210
    79  H    0.040111
    80  H    0.049357
    81  H    0.059259
    82  H    0.058001
    83  H    0.052308
    84  H    0.053243
    85  H    0.040849
    86  H    0.031587
    87  H    0.039131
    88  H    0.034509
    89  H    0.043863
    90  H    0.050115
    91  H    0.039111
    92  H    0.050026
    93  H    0.037417
    94  H    0.032793
    95  H    0.057875
    96  H    0.021295
    97  H    0.061741
    98  H    0.068802
    99  H    0.061084
   100  H    0.050374
   101  H    0.060624
   102  H    0.059369
   103  H    0.038433
   104  H    0.022137
   105  H    0.056986
   106  H    0.028567
   107  H    0.033494
   108  H    0.030464
   109  H    0.021854
   110  H    0.027339
   111  H    0.024204
   112  H    0.020467
   113  H    0.024253
   114  H    0.022390
   115  H    0.028651
   116  H    0.038530
   117  H    0.048846
   118  H    0.033190
   119  H    0.017664
   120  H    0.025260
   121  H    0.017653
   122  H    0.013433
   123  H    0.013546
   124  H    0.010872
   125  H    0.019654
   126  H    0.015938
   127  H    0.033937
   128  H    0.013281
   129  H    0.017534
   130  H    0.008957
   131  H    0.007697
   132  H    0.023545
   133  H    0.002775
   134  H    0.019130
   135  H    0.033020
   136  H    0.014343
   137  H    0.036391
   138  H    0.026670
   139  H    0.024882
   140  H    0.032342
 Sum of Mulliken charges =  -0.00000

 Dipole moment (field-independent basis, Debye):
    X=              4.3902    Y=              2.2629    Z=             -1.4635  Tot=              5.1513
 Quadrupole moment (field-independent basis, Debye-Ang):
   XX=           -369.4754   YY=           -418.4954   ZZ=           -404.9217
   XY=            -15.1849   XZ=             -6.2797   YZ=              0.5240

 Normal termination of Gaussian 16 at Sat Apr 30 20:10:47 2022.
