 Gaussian 16, Revision A.03,
 Gaussian 16:  ES64L-G16RevA.03 25-Dec-2016

 --------------------
 #p ZINDO=(nstates=5)
 --------------------

 ----------------------------
 step_851_chromophore_6 ZINDO
 ----------------------------
 Symbolic Z-matrix:
 Charge =  0 Multiplicity = 1

                         Standard orientation:
 ---------------------------------------------------------------------
 Center     Atomic      Atomic             Coordinates (Angstroms)
 Number     Number       Type             X           Y           Z
 ---------------------------------------------------------------------
      1         12           0       -5.365102    0.935083   -0.311554
      2          6           0       -4.125398   -2.310378   -0.450487
      3          6           0       -2.183510    2.206060   -0.415756
      4          6           0       -6.708778    3.910845    0.341842
      5          6           0       -8.622765   -0.548892    0.122343
      6          7           0       -3.409999    0.021693   -0.488183
      7          6           0       -3.134866   -1.278250   -0.338502
      8          6           0       -1.617041   -1.468811   -0.255991
      9          6           0       -0.981838   -0.044860   -0.313909
     10          6           0       -2.283601    0.784422   -0.426397
     11          6           0       -0.111580    0.272868    1.009445
     12          6           0       -1.127822   -2.177537   -1.590214
     13          6           0       -0.153019   -3.369919   -1.442847
     14          6           0        0.924982   -3.288699   -0.409899
     15          8           0        0.787194   -3.655622    0.743140
     16          8           0        2.051256   -2.784991   -0.887192
     17          7           0       -4.586086    2.831304   -0.300849
     18          6           0       -3.247075    3.142316   -0.408677
     19          6           0       -3.113953    4.575366   -0.507894
     20          6           0       -4.437918    5.093041   -0.114132
     21          6           0       -5.356987    3.963721   -0.040993
     22          6           0       -1.865816    5.302828   -0.825993
     23          6           0       -4.895848    6.583031   -0.004233
     24          8           0       -6.083585    6.933777    0.128625
     25          6           0       -3.851081    7.648643   -0.095979
     26          7           0       -7.414384    1.597445    0.232635
     27          6           0       -7.666948    2.878175    0.510463
     28          6           0       -9.093465    3.058024    1.021944
     29          6           0       -9.756072    1.675948    0.771042
     30          6           0       -8.491248    0.813278    0.388135
     31          6           0       -9.137965    3.579481    2.533724
     32          6           0      -10.751571    1.695644   -0.403993
     33          6           0      -12.045855    0.829490   -0.133009
     34          7           0       -6.232385   -0.983366   -0.270385
     35          6           0       -7.569427   -1.434240   -0.148276
     36          6           0       -7.602220   -2.843570   -0.152559
     37          6           0       -6.253843   -3.247739   -0.392762
     38          6           0       -5.490791   -2.072748   -0.384624
     39          6           0       -8.825193   -3.690244    0.034131
     40          6           0       -5.392141   -4.406044   -0.538591
     41          8           0       -5.718954   -5.588227   -0.617028
     42          6           0       -3.873812   -3.836420   -0.530903
     43          6           0       -3.114768   -4.363357    0.576154
     44          8           0       -3.034122   -3.859068    1.691993
     45          8           0       -2.618022   -5.612539    0.268683
     46          6           0       -2.059912   -6.441035    1.369592
     47          6           0        3.102691   -2.614404    0.073385
     48          6           0        4.475474   -2.614913   -0.717312
     49          6           0        5.440934   -3.589938   -0.796511
     50          6           0        5.283779   -5.049442   -0.424048
     51          6           0        6.837299   -3.358908   -1.326806
     52          6           0        7.711881   -2.517641   -0.402272
     53          6           0        8.276444   -1.220351   -1.037861
     54          6           0        8.096020    0.082857   -0.195537
     55          6           0        8.424812    1.419181   -1.023567
     56          6           0        8.932574   -0.050887    1.175573
     57          6           0       10.490854   -0.079489    1.067143
     58          6           0       11.217753    0.783566    2.128641
     59          6           0       12.668579    0.408032    2.409755
     60          6           0       13.071089    0.216193    3.820447
     61          6           0       13.737546    1.496208    1.843976
     62          6           0       13.616250    1.594309    0.362072
     63          6           0       13.249234    2.980179   -0.184642
     64          6           0       13.229060    2.984696   -1.718567
     65          6           0       11.784923    3.246526   -2.230258
     66          6           0       14.334075    3.849290   -2.392148
     67          1           0       -1.140368    2.502534   -0.545836
     68          1           0       -7.181483    4.870521    0.557451
     69          1           0       -9.629241   -0.972069    0.089414
     70          1           0       -1.117072   -1.920389    0.600458
     71          1           0       -0.447070    0.260791   -1.212299
     72          1           0       -0.597839    1.064811    1.577501
     73          1           0        0.880942    0.660440    0.782227
     74          1           0        0.017043   -0.605758    1.641393
     75          1           0       -0.771660   -1.403943   -2.271062
     76          1           0       -1.940236   -2.613424   -2.171954
     77          1           0        0.394540   -3.307500   -2.383450
     78          1           0       -0.616199   -4.351383   -1.344453
     79          1           0       -0.974382    4.710647   -1.035734
     80          1           0       -1.588741    5.876308    0.057826
     81          1           0       -2.095683    5.989265   -1.641700
     82          1           0       -3.189799    7.659012    0.770473
     83          1           0       -4.428276    8.569682   -0.015729
     84          1           0       -3.226209    7.631513   -0.989395
     85          1           0       -9.588448    3.825550    0.427728
     86          1           0      -10.205572    1.262301    1.673474
     87          1           0       -9.500826    2.777550    3.178155
     88          1           0       -9.776575    4.457761    2.631028
     89          1           0       -8.210749    4.001761    2.922821
     90          1           0      -10.158209    1.293044   -1.225733
     91          1           0      -11.155375    2.693980   -0.569203
     92          1           0      -11.846891   -0.194009   -0.450878
     93          1           0      -12.880739    1.314233   -0.638312
     94          1           0      -12.328164    0.894736    0.917674
     95          1           0       -8.771544   -4.516911   -0.675276
     96          1           0       -9.714327   -3.103972   -0.195654
     97          1           0       -8.975260   -4.113348    1.027002
     98          1           0       -3.471529   -4.285251   -1.438954
     99          1           0       -0.975674   -6.353004    1.299386
    100          1           0       -2.346772   -7.488131    1.274909
    101          1           0       -2.395389   -6.222527    2.383454
    102          1           0        3.107829   -3.344415    0.882528
    103          1           0        2.988487   -1.624411    0.516027
    104          1           0        4.673200   -1.648875   -1.182463
    105          1           0        5.449340   -5.751792   -1.241301
    106          1           0        4.324531   -5.279992    0.040113
    107          1           0        5.982562   -5.342352    0.358675
    108          1           0        6.764774   -2.744285   -2.224642
    109          1           0        7.353724   -4.290261   -1.562993
    110          1           0        8.529351   -3.114057    0.002723
    111          1           0        7.053957   -2.288591    0.435651
    112          1           0        7.948194   -0.951495   -2.042604
    113          1           0        9.297436   -1.579844   -1.169876
    114          1           0        7.072538    0.107660    0.179303
    115          1           0        8.811093    1.065894   -1.979900
    116          1           0        9.258606    1.922084   -0.534265
    117          1           0        7.507873    1.987823   -1.182840
    118          1           0        8.586426   -0.797508    1.890570
    119          1           0        8.686967    0.917145    1.611225
    120          1           0       10.777571    0.201015    0.053447
    121          1           0       10.864517   -1.094162    1.202059
    122          1           0       10.641378    0.705295    3.050740
    123          1           0       11.137585    1.831534    1.839309
    124          1           0       12.756885   -0.516980    1.838931
    125          1           0       14.148983    0.151755    3.965970
    126          1           0       12.767902   -0.805176    4.052990
    127          1           0       12.644126    0.977025    4.474137
    128          1           0       14.758613    1.157492    2.019400
    129          1           0       13.618949    2.420929    2.409477
    130          1           0       12.990623    0.773438    0.012297
    131          1           0       14.595862    1.377261   -0.064462
    132          1           0       13.915659    3.712320    0.272944
    133          1           0       12.221179    3.057969    0.167492
    134          1           0       13.499749    1.975503   -2.027012
    135          1           0       11.265620    2.295525   -2.348781
    136          1           0       11.852459    3.701710   -3.218495
    137          1           0       11.214131    3.948561   -1.622798
    138          1           0       14.312040    3.932847   -3.478754
    139          1           0       15.285445    3.343373   -2.230845
    140          1           0       14.325937    4.855041   -1.972324
 ---------------------------------------------------------------------

 SCF Done:  E(RZINDO/S) =  -474.235092375     A.U. after   20 cycles

 Excitation energies and oscillator strengths:

 Excited State   1:      Singlet-A      1.2660 eV  979.31 nm  f=0.6005  <S**2>=0.000
     175 ->178        -0.21196
     176 ->177         0.65712
 This state for optimization and/or second-order correction.
 Total Energy, E(CIS/TDA) =  -474.188566432
 Copying the excited state density for this state as the 1-particle RhoCI density.

 Excited State   2:      Singlet-A      1.9146 eV  647.58 nm  f=0.0483  <S**2>=0.000
     175 ->177         0.54536
     176 ->178         0.42792

 Excited State   3:      Singlet-A      3.0067 eV  412.35 nm  f=0.5929  <S**2>=0.000
     168 ->179         0.12554
     170 ->177        -0.10599
     170 ->180         0.10558
     173 ->177        -0.11244
     175 ->177        -0.28101
     176 ->178         0.39099
     176 ->179         0.36834

 Excited State   4:      Singlet-A      3.0213 eV  410.36 nm  f=0.2698  <S**2>=0.000
     168 ->177         0.22591
     168 ->179        -0.29233
     168 ->180        -0.25781
     168 ->182         0.12378
     168 ->186        -0.18545
     175 ->177        -0.19219
     176 ->178         0.25184

 Excited State   5:      Singlet-A      3.0289 eV  409.33 nm  f=0.0480  <S**2>=0.000
     169 ->177        -0.14880
     169 ->179        -0.13101
     169 ->180         0.13764
     170 ->177        -0.28391
     170 ->179        -0.31794
     170 ->180         0.23631
     170 ->186        -0.16704
     170 ->187         0.13093
     176 ->178        -0.10268
     176 ->179        -0.13703

 The electronic state is 1-A.
 Alpha  occ. eigenvalues --   -1.84469  -1.80945  -1.79591  -1.77037  -1.71235
 Alpha  occ. eigenvalues --   -1.70483  -1.66358  -1.60583  -1.57006  -1.56305
 Alpha  occ. eigenvalues --   -1.54752  -1.50904  -1.48784  -1.48522  -1.46581
 Alpha  occ. eigenvalues --   -1.43860  -1.42217  -1.39528  -1.38322  -1.37043
 Alpha  occ. eigenvalues --   -1.35725  -1.33565  -1.32959  -1.31719  -1.28753
 Alpha  occ. eigenvalues --   -1.27657  -1.24774  -1.21831  -1.20879  -1.18084
 Alpha  occ. eigenvalues --   -1.17490  -1.16771  -1.15165  -1.13803  -1.12277
 Alpha  occ. eigenvalues --   -1.11555  -1.10883  -1.09984  -1.05364  -1.03817
 Alpha  occ. eigenvalues --   -1.02872  -1.01409  -0.99431  -0.98848  -0.97117
 Alpha  occ. eigenvalues --   -0.95173  -0.94993  -0.94157  -0.93022  -0.92277
 Alpha  occ. eigenvalues --   -0.91072  -0.90597  -0.88187  -0.87763  -0.85793
 Alpha  occ. eigenvalues --   -0.83963  -0.83290  -0.83200  -0.82399  -0.80621
 Alpha  occ. eigenvalues --   -0.80257  -0.79754  -0.78914  -0.76840  -0.76145
 Alpha  occ. eigenvalues --   -0.75779  -0.75031  -0.74424  -0.74197  -0.73529
 Alpha  occ. eigenvalues --   -0.72869  -0.72451  -0.71869  -0.70949  -0.70667
 Alpha  occ. eigenvalues --   -0.69786  -0.69596  -0.69285  -0.68127  -0.67821
 Alpha  occ. eigenvalues --   -0.67292  -0.66936  -0.66246  -0.66178  -0.65777
 Alpha  occ. eigenvalues --   -0.65182  -0.64629  -0.64121  -0.63929  -0.63272
 Alpha  occ. eigenvalues --   -0.62869  -0.62584  -0.62101  -0.61600  -0.60935
 Alpha  occ. eigenvalues --   -0.60846  -0.60579  -0.60462  -0.60241  -0.59642
 Alpha  occ. eigenvalues --   -0.59543  -0.59478  -0.59157  -0.58726  -0.57881
 Alpha  occ. eigenvalues --   -0.57718  -0.57634  -0.57166  -0.56831  -0.56555
 Alpha  occ. eigenvalues --   -0.55752  -0.55577  -0.55212  -0.55025  -0.54531
 Alpha  occ. eigenvalues --   -0.53705  -0.53440  -0.53266  -0.53074  -0.52697
 Alpha  occ. eigenvalues --   -0.52440  -0.52298  -0.52137  -0.51962  -0.51572
 Alpha  occ. eigenvalues --   -0.51284  -0.51004  -0.50839  -0.50707  -0.50062
 Alpha  occ. eigenvalues --   -0.49782  -0.49682  -0.49578  -0.49251  -0.49111
 Alpha  occ. eigenvalues --   -0.48898  -0.48798  -0.48411  -0.48097  -0.48018
 Alpha  occ. eigenvalues --   -0.47662  -0.47185  -0.47054  -0.46922  -0.46722
 Alpha  occ. eigenvalues --   -0.46430  -0.46300  -0.45785  -0.45773  -0.45281
 Alpha  occ. eigenvalues --   -0.45263  -0.45006  -0.44825  -0.44693  -0.44110
 Alpha  occ. eigenvalues --   -0.43543  -0.42443  -0.42392  -0.41908  -0.41771
 Alpha  occ. eigenvalues --   -0.41709  -0.41077  -0.41008  -0.38556  -0.38191
 Alpha  occ. eigenvalues --   -0.37976  -0.36984  -0.35438  -0.35058  -0.34733
 Alpha  occ. eigenvalues --   -0.32613  -0.32237  -0.32214  -0.31735  -0.26210
 Alpha  occ. eigenvalues --   -0.21745
 Alpha virt. eigenvalues --   -0.08357  -0.02206  -0.00499   0.01271   0.02426
 Alpha virt. eigenvalues --    0.02814   0.03130   0.03308   0.04001   0.04862
 Alpha virt. eigenvalues --    0.06349   0.06717   0.07221   0.07618   0.08533

 Mulliken charges:
               1
     1  Mg   0.419983
     2  C   -0.056022
     3  C   -0.092983
     4  C   -0.054265
     5  C   -0.055076
     6  N   -0.262953
     7  C    0.145382
     8  C    0.004904
     9  C   -0.015264
    10  C    0.127184
    11  C   -0.057416
    12  C   -0.025285
    13  C    0.002199
    14  C    0.474647
    15  O   -0.533944
    16  O   -0.250013
    17  N   -0.337310
    18  C    0.119609
    19  C    0.010320
    20  C   -0.060186
    21  C    0.134811
    22  C   -0.035415
    23  C    0.325459
    24  O   -0.525078
    25  C   -0.033780
    26  N   -0.249866
    27  C    0.142379
    28  C    0.007562
    29  C   -0.004207
    30  C    0.112387
    31  C   -0.056527
    32  C   -0.036191
    33  C   -0.064684
    34  N   -0.339177
    35  C    0.081830
    36  C    0.039442
    37  C   -0.064902
    38  C    0.142023
    39  C   -0.037250
    40  C    0.328619
    41  O   -0.522184
    42  C    0.054498
    43  C    0.492706
    44  O   -0.526377
    45  O   -0.273367
    46  C    0.074922
    47  C    0.106052
    48  C   -0.110234
    49  C    0.015826
    50  C   -0.041298
    51  C   -0.019916
    52  C   -0.030441
    53  C   -0.038032
    54  C   -0.018904
    55  C   -0.061520
    56  C   -0.045567
    57  C   -0.034982
    58  C   -0.028150
    59  C   -0.014505
    60  C   -0.051106
    61  C   -0.040751
    62  C   -0.037590
    63  C   -0.032043
    64  C   -0.011396
    65  C   -0.057165
    66  C   -0.056607
    67  H    0.029128
    68  H    0.037486
    69  H    0.032352
    70  H    0.067618
    71  H    0.040478
    72  H    0.023015
    73  H    0.016270
    74  H    0.034924
    75  H    0.027021
    76  H    0.016003
    77  H    0.022074
    78  H    0.052095
    79  H    0.027114
    80  H    0.027281
    81  H    0.034222
    82  H    0.035783
    83  H    0.033051
    84  H    0.040985
    85  H    0.032082
    86  H    0.033144
    87  H    0.024049
    88  H    0.018778
    89  H    0.027976
    90  H    0.032647
    91  H    0.024452
    92  H    0.027696
    93  H    0.018599
    94  H    0.020075
    95  H    0.031648
    96  H    0.017396
    97  H    0.040023
    98  H    0.058951
    99  H    0.040337
   100  H    0.033432
   101  H    0.051398
   102  H    0.058999
   103  H    0.037014
   104  H    0.025524
   105  H    0.032885
   106  H    0.016215
   107  H    0.022894
   108  H    0.021551
   109  H    0.022110
   110  H    0.018831
   111  H    0.017946
   112  H    0.018820
   113  H    0.017719
   114  H    0.019475
   115  H    0.017958
   116  H    0.030201
   117  H    0.029985
   118  H    0.028184
   119  H    0.004329
   120  H    0.020893
   121  H    0.015526
   122  H    0.013659
   123  H    0.016836
   124  H    0.020185
   125  H    0.015218
   126  H    0.007650
   127  H    0.026041
   128  H    0.013634
   129  H    0.023217
   130  H    0.023303
   131  H    0.003459
   132  H    0.028491
   133  H    0.018176
   134  H    0.015106
   135  H    0.020508
   136  H    0.009789
   137  H    0.023018
   138  H    0.018481
   139  H    0.013899
   140  H    0.019873
 Sum of Mulliken charges =  -0.00000

 Dipole moment (field-independent basis, Debye):
    X=              6.2309    Y=              3.5708    Z=             -2.8459  Tot=              7.7249
 N-N= 4.307181437485D+03 E-N= 0.000000000000D+00  KE=-9.288974608993D+03
 Leave Link  601 at Sat Apr 30 20:24:23 2022, MaxMem=  6710886400 cpu:               0.8 elap:               0.0
 (Enter /sw/apps/gaussian-16.0/g16/l9999.exe)
 1\1\GINC-BP1-COMPUTE102\SP\RZINDO CIS\STO-3G\C55H74Mg1N4O6\OF15641\30-
 Apr-2022\0\\#p ZINDO=(nstates=5)\\step_851_chromophore_6 ZINDO\\0,1\Mg
 ,0,16.795,-2.454,27.841\C,0,16.332,-0.25,30.49\C,0,18.321,-4.71,29.922
 \C,0,17.597,-4.182,25.11\C,0,15.472,0.144,25.719\N,0,17.194,-2.472,29.
 969\C,0,17.099,-1.424,30.794\C,0,17.736,-1.78,32.141\C,0,18.312,-3.223
 ,31.998\C,0,17.902,-3.491,30.53\C,0,19.907,-3.255,32.252\C,0,16.58,-1.
 918,33.221\C,0,16.794,-1.214,34.582\C,0,18.157,-1.244,35.196\O,0,19.01

 Normal termination of Gaussian 16 at Sat Apr 30 20:24:23 2022.
