 Gaussian 16, Revision A.03,
 Gaussian 16:  ES64L-G16RevA.03 25-Dec-2016

 ------------------------------
 #p blyp/Def2SVP td=(nstates=5)
 ------------------------------

 --------------------------------------------------
 step_1651_chromophore_2 TDDFT with blyp functional
 --------------------------------------------------
 Symbolic Z-matrix:
 Charge =  0 Multiplicity = 1

                         Standard orientation:
 ---------------------------------------------------------------------
 Center     Atomic      Atomic             Coordinates (Angstroms)
 Number     Number       Type             X           Y           Z
 ---------------------------------------------------------------------
      1         12           0        3.887552    1.395971   -0.324532
      2          6           0        4.340157   -2.037729   -0.751052
      3          6           0        2.085415    1.487504   -3.219728
      4          6           0        2.638484    4.327749    0.682407
      5          6           0        5.368623    0.981369    2.901447
      6          7           0        3.173376   -0.124352   -1.775736
      7          6           0        3.611214   -1.433783   -1.834870
      8          6           0        2.980701   -2.141040   -3.059223
      9          6           0        2.641745   -0.956905   -4.023932
     10          6           0        2.616611    0.207238   -3.027686
     11          6           0        3.597567   -0.756329   -5.282459
     12          6           0        1.813308   -3.158716   -2.733747
     13          6           0        1.019507   -2.950579   -1.460865
     14          6           0       -0.415492   -2.589631   -1.560643
     15          8           0       -0.875874   -1.697409   -2.236893
     16          8           0       -1.142764   -3.232649   -0.563577
     17          7           0        2.731236    2.857864   -1.168901
     18          6           0        2.084247    2.695683   -2.386165
     19          6           0        1.425834    3.921801   -2.765231
     20          6           0        1.476554    4.704300   -1.580459
     21          6           0        2.277187    4.019339   -0.618157
     22          6           0        0.934079    4.255723   -4.129236
     23          6           0        0.855252    6.055704   -1.401537
     24          8           0        0.133115    6.546703   -2.288638
     25          6           0        0.934647    6.856919   -0.119475
     26          7           0        3.923267    2.464733    1.583284
     27          6           0        3.392135    3.685343    1.671276
     28          6           0        3.509117    4.271778    3.077997
     29          6           0        4.501578    3.247675    3.781352
     30          6           0        4.629859    2.120552    2.708948
     31          6           0        4.095168    5.696192    3.161710
     32          6           0        3.923035    2.641259    5.123130
     33          6           0        4.763756    2.769270    6.384132
     34          7           0        4.700262   -0.131724    0.887697
     35          6           0        5.399163   -0.085056    2.075096
     36          6           0        6.010066   -1.359528    2.284837
     37          6           0        5.512273   -2.217747    1.333139
     38          6           0        4.819196   -1.403279    0.468400
     39          6           0        6.986511   -1.737957    3.392719
     40          6           0        5.458251   -3.522904    0.817938
     41          8           0        5.996444   -4.527804    1.358179
     42          6           0        4.646522   -3.473148   -0.582662
     43          6           0        5.486062   -4.175417   -1.628700
     44          8           0        5.012390   -5.043948   -2.335355
     45          8           0        6.775746   -3.651371   -1.768615
     46          6           0        7.538894   -4.291128   -2.825688
     47          6           0       -2.499193   -2.599215   -0.354259
     48          6           0       -3.256451   -3.470377    0.656127
     49          6           0       -3.785314   -3.084118    1.822608
     50          6           0       -3.752897   -1.666504    2.418411
     51          6           0       -4.449311   -4.191237    2.691942
     52          6           0       -5.887102   -3.991539    3.147470
     53          6           0       -6.987374   -4.870068    2.464328
     54          6           0       -8.094635   -3.975328    1.863111
     55          6           0       -9.367808   -4.849998    1.645910
     56          6           0       -7.794013   -3.120859    0.651455
     57          6           0       -8.528930   -1.760209    0.726439
     58          6           0       -7.608218   -0.672649    1.005796
     59          6           0       -7.006651    0.044578   -0.284406
     60          6           0       -5.555166   -0.281495   -0.497859
     61          6           0       -7.329096    1.558028   -0.308859
     62          6           0       -8.324515    1.996248   -1.338440
     63          6           0       -8.997741    3.323134   -0.890994
     64          6           0      -10.528767    3.354181   -0.906406
     65          6           0      -11.195310    3.535265   -2.305033
     66          6           0      -11.065083    4.256794    0.238639
     67          1           0        1.419489    1.698733   -4.058784
     68          1           0        2.324070    5.295238    1.081057
     69          1           0        5.978360    0.956083    3.807477
     70          1           0        3.713753   -2.855102   -3.435749
     71          1           0        1.619150   -1.021081   -4.396961
     72          1           0        4.484101   -1.389236   -5.267324
     73          1           0        3.896860    0.288627   -5.369660
     74          1           0        3.080980   -0.968197   -6.218363
     75          1           0        2.159014   -4.178165   -2.899804
     76          1           0        1.073253   -2.992120   -3.516466
     77          1           0        1.381796   -2.067363   -0.934505
     78          1           0        1.051972   -3.944117   -1.014858
     79          1           0        0.316069    5.147718   -4.229354
     80          1           0        0.271184    3.491019   -4.535156
     81          1           0        1.782739    4.297432   -4.811714
     82          1           0        1.983528    6.953113    0.159167
     83          1           0        0.508876    6.239711    0.671646
     84          1           0        0.318681    7.755218   -0.170746
     85          1           0        2.498554    4.247176    3.487790
     86          1           0        5.517158    3.612207    3.936474
     87          1           0        4.280684    5.978560    2.125151
     88          1           0        5.010587    5.789567    3.745230
     89          1           0        3.380948    6.415445    3.562245
     90          1           0        3.745176    1.567140    5.070992
     91          1           0        3.003831    3.224506    5.158598
     92          1           0        4.627136    1.833746    6.926477
     93          1           0        4.426764    3.481674    7.136318
     94          1           0        5.829720    2.963677    6.271657
     95          1           0        6.432117   -1.667627    4.328645
     96          1           0        7.847659   -1.081354    3.517404
     97          1           0        7.368663   -2.744007    3.221545
     98          1           0        3.739959   -4.077935   -0.561932
     99          1           0        7.516269   -5.375136   -2.721090
    100          1           0        8.592474   -4.016764   -2.782797
    101          1           0        7.103721   -4.057828   -3.797313
    102          1           0       -3.167037   -2.554055   -1.214054
    103          1           0       -2.355927   -1.552671   -0.086808
    104          1           0       -3.553295   -4.463678    0.317192
    105          1           0       -4.739283   -1.235866    2.590209
    106          1           0       -3.105543   -1.006418    1.839948
    107          1           0       -3.325715   -1.854092    3.404165
    108          1           0       -4.022975   -4.312564    3.687276
    109          1           0       -4.310512   -5.179562    2.253315
    110          1           0       -6.184198   -2.942822    3.108094
    111          1           0       -5.846358   -4.184316    4.219318
    112          1           0       -7.371105   -5.614689    3.160262
    113          1           0       -6.564751   -5.348913    1.580703
    114          1           0       -8.390113   -3.340635    2.699663
    115          1           0       -9.860046   -4.648624    0.693915
    116          1           0      -10.143893   -4.661330    2.388765
    117          1           0       -9.113437   -5.904498    1.747495
    118          1           0       -8.122805   -3.619654   -0.259716
    119          1           0       -6.747655   -2.898713    0.440903
    120          1           0       -9.296001   -1.749315    1.501238
    121          1           0       -9.112036   -1.642017   -0.186534
    122          1           0       -6.775805   -0.984346    1.636819
    123          1           0       -8.071709    0.107797    1.610330
    124          1           0       -7.483243   -0.486801   -1.109053
    125          1           0       -4.906896   -0.018765    0.337553
    126          1           0       -5.157529    0.299370   -1.330280
    127          1           0       -5.397537   -1.321840   -0.782446
    128          1           0       -6.438007    2.185363   -0.316661
    129          1           0       -7.619841    1.873197    0.693223
    130          1           0       -9.041956    1.242453   -1.663994
    131          1           0       -7.743460    2.226179   -2.231568
    132          1           0       -8.560125    4.088575   -1.532440
    133          1           0       -8.598041    3.559883    0.094431
    134          1           0      -10.827917    2.338544   -0.649557
    135          1           0      -11.940351    2.765825   -2.507387
    136          1           0      -10.442350    3.721467   -3.070512
    137          1           0      -11.739699    4.474697   -2.210167
    138          1           0      -10.484811    5.175505    0.328248
    139          1           0      -10.790675    3.709161    1.139704
    140          1           0      -12.134635    4.457210    0.168325
 ---------------------------------------------------------------------

 SCF Done:  E(RB-LYP) =  -3007.37652379     A.U. after   21 cycles

 Excitation energies and oscillator strengths:

 Excited State   1:      Singlet-A      1.6462 eV  753.16 nm  f=0.0000  <S**2>=0.000
     244 -> 247        0.70404
 This state for optimization and/or second-order correction.
 Total Energy, E(TD-HF/TD-DFT) =  -3007.31602723
 Copying the excited state density for this state as the 1-particle RhoCI density.

 Excited State   2:      Singlet-A      1.8047 eV  687.00 nm  f=0.2259  <S**2>=0.000
     243 -> 247        0.30012
     245 -> 248        0.17782
     246 -> 247        0.61718
     246 <- 247       -0.13075

 Excited State   3:      Singlet-A      1.8601 eV  666.55 nm  f=0.0800  <S**2>=0.000
     243 -> 247        0.60180
     245 -> 247        0.18784
     246 -> 247       -0.30379

 Excited State   4:      Singlet-A      1.9916 eV  622.53 nm  f=0.0692  <S**2>=0.000
     243 -> 247       -0.21367
     245 -> 247        0.61893
     246 -> 248       -0.22822

 Excited State   5:      Singlet-A      2.2959 eV  540.02 nm  f=0.0001  <S**2>=0.000
     242 -> 247        0.70595

 The electronic state is 1-A.
 Alpha  occ. eigenvalues --  -46.27776 -18.82424 -18.81453 -18.77467 -18.76639
 Alpha  occ. eigenvalues --  -18.75604 -18.74733 -14.03747 -14.03187 -14.01196
 Alpha  occ. eigenvalues --  -14.00862 -10.04393 -10.03263  -9.99673  -9.99361
 Alpha  occ. eigenvalues --   -9.97612  -9.97584  -9.97287  -9.97064  -9.96540
 Alpha  occ. eigenvalues --   -9.96387  -9.96009  -9.95781  -9.95045  -9.94791
 Alpha  occ. eigenvalues --   -9.94769  -9.94472  -9.94360  -9.94339  -9.94273
 Alpha  occ. eigenvalues --   -9.94229  -9.93782  -9.93657  -9.93290  -9.93238
 Alpha  occ. eigenvalues --   -9.93010  -9.92962  -9.92904  -9.92868  -9.92745
 Alpha  occ. eigenvalues --   -9.92617  -9.92581  -9.92464  -9.92410  -9.92319
 Alpha  occ. eigenvalues --   -9.92061  -9.91956  -9.91774  -9.91677  -9.91637
 Alpha  occ. eigenvalues --   -9.91603  -9.91438  -9.91296  -9.91148  -9.91130
 Alpha  occ. eigenvalues --   -9.90760  -9.90714  -9.90661  -9.90655  -9.90592
 Alpha  occ. eigenvalues --   -9.90536  -9.90452  -9.90417  -9.90412  -9.90271
 Alpha  occ. eigenvalues --   -9.90256  -2.92362  -1.72767  -1.72250  -1.72077
 Alpha  occ. eigenvalues --   -0.97723  -0.96916  -0.90503  -0.89959  -0.89380
 Alpha  occ. eigenvalues --   -0.89223  -0.87227  -0.86295  -0.85604  -0.84714
 Alpha  occ. eigenvalues --   -0.75958  -0.73653  -0.72863  -0.72654  -0.72494
 Alpha  occ. eigenvalues --   -0.72212  -0.71869  -0.71054  -0.70649  -0.70554
 Alpha  occ. eigenvalues --   -0.69692  -0.69359  -0.68326  -0.68227  -0.67476
 Alpha  occ. eigenvalues --   -0.66584  -0.66123  -0.65109  -0.65001  -0.64527
 Alpha  occ. eigenvalues --   -0.63971  -0.62635  -0.62255  -0.62090  -0.60803
 Alpha  occ. eigenvalues --   -0.60346  -0.60228  -0.60101  -0.59514  -0.58628
 Alpha  occ. eigenvalues --   -0.58471  -0.58151  -0.57295  -0.56232  -0.54962
 Alpha  occ. eigenvalues --   -0.54479  -0.53307  -0.52868  -0.52179  -0.51680
 Alpha  occ. eigenvalues --   -0.51168  -0.50976  -0.50929  -0.50709  -0.50120
 Alpha  occ. eigenvalues --   -0.49416  -0.49115  -0.48610  -0.48285  -0.46769
 Alpha  occ. eigenvalues --   -0.46125  -0.45935  -0.45794  -0.45213  -0.44675
 Alpha  occ. eigenvalues --   -0.43603  -0.43487  -0.43110  -0.42868  -0.42460
 Alpha  occ. eigenvalues --   -0.42227  -0.41995  -0.41764  -0.41318  -0.40955
 Alpha  occ. eigenvalues --   -0.40857  -0.40655  -0.40344  -0.40160  -0.39949
 Alpha  occ. eigenvalues --   -0.39743  -0.39577  -0.39288  -0.39069  -0.38935
 Alpha  occ. eigenvalues --   -0.38796  -0.38687  -0.38495  -0.38314  -0.38108
 Alpha  occ. eigenvalues --   -0.37980  -0.37734  -0.37598  -0.37324  -0.37120
 Alpha  occ. eigenvalues --   -0.37006  -0.36793  -0.36585  -0.36498  -0.36324
 Alpha  occ. eigenvalues --   -0.36223  -0.36096  -0.35960  -0.35728  -0.35583
 Alpha  occ. eigenvalues --   -0.35309  -0.35080  -0.34896  -0.34859  -0.34515
 Alpha  occ. eigenvalues --   -0.34507  -0.34325  -0.33994  -0.33944  -0.33916
 Alpha  occ. eigenvalues --   -0.33866  -0.33676  -0.33483  -0.33372  -0.33271
 Alpha  occ. eigenvalues --   -0.33050  -0.32935  -0.32768  -0.32660  -0.32371
 Alpha  occ. eigenvalues --   -0.32186  -0.31998  -0.31902  -0.31342  -0.31143
 Alpha  occ. eigenvalues --   -0.31108  -0.31055  -0.30950  -0.30878  -0.30566
 Alpha  occ. eigenvalues --   -0.30329  -0.30149  -0.29927  -0.29905  -0.29803
 Alpha  occ. eigenvalues --   -0.29547  -0.29487  -0.29295  -0.29053  -0.28939
 Alpha  occ. eigenvalues --   -0.28899  -0.28503  -0.28370  -0.28047  -0.27814
 Alpha  occ. eigenvalues --   -0.27535  -0.27272  -0.27005  -0.26775  -0.26614
 Alpha  occ. eigenvalues --   -0.26267  -0.26004  -0.25602  -0.25394  -0.25216
 Alpha  occ. eigenvalues --   -0.25105  -0.24922  -0.24348  -0.24200  -0.23639
 Alpha  occ. eigenvalues --   -0.23569  -0.22829  -0.22006  -0.21826  -0.20989
 Alpha  occ. eigenvalues --   -0.20401  -0.20332  -0.18610  -0.17875  -0.17489
 Alpha  occ. eigenvalues --   -0.16209
 Alpha virt. eigenvalues --   -0.11896  -0.07230  -0.06433  -0.04900  -0.03688
 Alpha virt. eigenvalues --   -0.03145  -0.02399  -0.02124  -0.01680  -0.00109
 Alpha virt. eigenvalues --    0.00842   0.01992   0.02625   0.02726   0.03040

 Mulliken charges:
               1
     1  Mg   0.700023
     2  C    0.046963
     3  C   -0.042714
     4  C   -0.033762
     5  C   -0.110140
     6  N   -0.258456
     7  C   -0.078246
     8  C    0.036638
     9  C    0.058677
    10  C    0.066358
    11  C    0.125353
    12  C    0.085731
    13  C    0.164548
    14  C    0.037040
    15  O   -0.192168
    16  O   -0.286365
    17  N   -0.312884
    18  C    0.064097
    19  C   -0.112630
    20  C    0.079198
    21  C    0.158355
    22  C    0.173597
    23  C   -0.122744
    24  O   -0.184022
    25  C    0.165213
    26  N   -0.185775
    27  C   -0.052942
    28  C    0.016528
    29  C    0.024048
    30  C    0.001562
    31  C    0.124811
    32  C    0.096293
    33  C    0.057215
    34  N   -0.237149
    35  C    0.170621
    36  C   -0.203566
    37  C    0.180029
    38  C    0.030496
    39  C    0.173410
    40  C   -0.079000
    41  O   -0.169763
    42  C    0.069421
    43  C    0.094259
    44  O   -0.174672
    45  O   -0.281157
    46  C    0.231005
    47  C    0.292051
    48  C   -0.089172
    49  C   -0.103579
    50  C    0.156176
    51  C    0.125208
    52  C    0.054740
    53  C    0.132158
    54  C   -0.102061
    55  C    0.108141
    56  C    0.124952
    57  C    0.080642
    58  C    0.123940
    59  C   -0.047866
    60  C    0.083394
    61  C    0.098270
    62  C    0.098704
    63  C    0.085211
    64  C   -0.091366
    65  C    0.125629
    66  C    0.103307
    67  H   -0.063446
    68  H   -0.109710
    69  H   -0.065584
    70  H   -0.034571
    71  H   -0.011208
    72  H   -0.001138
    73  H   -0.010433
    74  H   -0.005960
    75  H   -0.000829
    76  H   -0.028524
    77  H    0.042519
    78  H   -0.001028
    79  H    0.005932
    80  H   -0.005397
    81  H   -0.000635
    82  H    0.013257
    83  H    0.003987
    84  H   -0.006376
    85  H   -0.003138
    86  H   -0.020511
    87  H   -0.006780
    88  H   -0.002719
    89  H   -0.012229
    90  H   -0.001445
    91  H   -0.025188
    92  H   -0.017556
    93  H   -0.015598
    94  H   -0.006792
    95  H   -0.002855
    96  H   -0.009759
    97  H    0.011012
    98  H   -0.004579
    99  H    0.011221
   100  H    0.013213
   101  H    0.003701
   102  H    0.011862
   103  H   -0.009269
   104  H   -0.031332
   105  H    0.014964
   106  H   -0.003265
   107  H   -0.016189
   108  H   -0.032870
   109  H   -0.038036
   110  H   -0.037465
   111  H   -0.048236
   112  H   -0.027970
   113  H   -0.032394
   114  H   -0.036236
   115  H   -0.024529
   116  H   -0.024445
   117  H   -0.020203
   118  H   -0.045312
   119  H   -0.031970
   120  H   -0.039872
   121  H   -0.038928
   122  H   -0.051693
   123  H   -0.052678
   124  H   -0.042684
   125  H   -0.024358
   126  H   -0.025108
   127  H   -0.008572
   128  H   -0.051837
   129  H   -0.048984
   130  H   -0.024728
   131  H   -0.036196
   132  H   -0.040139
   133  H   -0.043406
   134  H   -0.040108
   135  H   -0.007047
   136  H   -0.014740
   137  H   -0.033170
   138  H   -0.016338
   139  H   -0.016716
   140  H   -0.012470
 Sum of Mulliken charges =  -0.00000

 Dipole moment (field-independent basis, Debye):
    X=              1.4448    Y=              2.6639    Z=              2.0839  Tot=              3.6778
 Quadrupole moment (field-independent basis, Debye-Ang):
   XX=           -383.1855   YY=           -442.3619   ZZ=           -382.1415
   XY=             34.4410   XZ=            -12.3643   YZ=             27.1133

 Normal termination of Gaussian 16 at Wed May  4 11:39:49 2022.
