 Gaussian 16, Revision A.03,
 Gaussian 16:  ES64L-G16RevA.03 25-Dec-2016

 -----------------------------------
 #p cam-b3lyp/Def2SVP td=(nstates=5)
 -----------------------------------

 -------------------------------------------------------
 step_1651_chromophore_2 TDDFT with cam-b3lyp functional
 -------------------------------------------------------
 Symbolic Z-matrix:
 Charge =  0 Multiplicity = 1

                         Standard orientation:
 ---------------------------------------------------------------------
 Center     Atomic      Atomic             Coordinates (Angstroms)
 Number     Number       Type             X           Y           Z
 ---------------------------------------------------------------------
      1         12           0        3.887552    1.395971   -0.324532
      2          6           0        4.340157   -2.037729   -0.751052
      3          6           0        2.085415    1.487504   -3.219728
      4          6           0        2.638484    4.327749    0.682407
      5          6           0        5.368623    0.981369    2.901447
      6          7           0        3.173376   -0.124352   -1.775736
      7          6           0        3.611214   -1.433783   -1.834870
      8          6           0        2.980701   -2.141040   -3.059223
      9          6           0        2.641745   -0.956905   -4.023932
     10          6           0        2.616611    0.207238   -3.027686
     11          6           0        3.597567   -0.756329   -5.282459
     12          6           0        1.813308   -3.158716   -2.733747
     13          6           0        1.019507   -2.950579   -1.460865
     14          6           0       -0.415492   -2.589631   -1.560643
     15          8           0       -0.875874   -1.697409   -2.236893
     16          8           0       -1.142764   -3.232649   -0.563577
     17          7           0        2.731236    2.857864   -1.168901
     18          6           0        2.084247    2.695683   -2.386165
     19          6           0        1.425834    3.921801   -2.765231
     20          6           0        1.476554    4.704300   -1.580459
     21          6           0        2.277187    4.019339   -0.618157
     22          6           0        0.934079    4.255723   -4.129236
     23          6           0        0.855252    6.055704   -1.401537
     24          8           0        0.133115    6.546703   -2.288638
     25          6           0        0.934647    6.856919   -0.119475
     26          7           0        3.923267    2.464733    1.583284
     27          6           0        3.392135    3.685343    1.671276
     28          6           0        3.509117    4.271778    3.077997
     29          6           0        4.501578    3.247675    3.781352
     30          6           0        4.629859    2.120552    2.708948
     31          6           0        4.095168    5.696192    3.161710
     32          6           0        3.923035    2.641259    5.123130
     33          6           0        4.763756    2.769270    6.384132
     34          7           0        4.700262   -0.131724    0.887697
     35          6           0        5.399163   -0.085056    2.075096
     36          6           0        6.010066   -1.359528    2.284837
     37          6           0        5.512273   -2.217747    1.333139
     38          6           0        4.819196   -1.403279    0.468400
     39          6           0        6.986511   -1.737957    3.392719
     40          6           0        5.458251   -3.522904    0.817938
     41          8           0        5.996444   -4.527804    1.358179
     42          6           0        4.646522   -3.473148   -0.582662
     43          6           0        5.486062   -4.175417   -1.628700
     44          8           0        5.012390   -5.043948   -2.335355
     45          8           0        6.775746   -3.651371   -1.768615
     46          6           0        7.538894   -4.291128   -2.825688
     47          6           0       -2.499193   -2.599215   -0.354259
     48          6           0       -3.256451   -3.470377    0.656127
     49          6           0       -3.785314   -3.084118    1.822608
     50          6           0       -3.752897   -1.666504    2.418411
     51          6           0       -4.449311   -4.191237    2.691942
     52          6           0       -5.887102   -3.991539    3.147470
     53          6           0       -6.987374   -4.870068    2.464328
     54          6           0       -8.094635   -3.975328    1.863111
     55          6           0       -9.367808   -4.849998    1.645910
     56          6           0       -7.794013   -3.120859    0.651455
     57          6           0       -8.528930   -1.760209    0.726439
     58          6           0       -7.608218   -0.672649    1.005796
     59          6           0       -7.006651    0.044578   -0.284406
     60          6           0       -5.555166   -0.281495   -0.497859
     61          6           0       -7.329096    1.558028   -0.308859
     62          6           0       -8.324515    1.996248   -1.338440
     63          6           0       -8.997741    3.323134   -0.890994
     64          6           0      -10.528767    3.354181   -0.906406
     65          6           0      -11.195310    3.535265   -2.305033
     66          6           0      -11.065083    4.256794    0.238639
     67          1           0        1.419489    1.698733   -4.058784
     68          1           0        2.324070    5.295238    1.081057
     69          1           0        5.978360    0.956083    3.807477
     70          1           0        3.713753   -2.855102   -3.435749
     71          1           0        1.619150   -1.021081   -4.396961
     72          1           0        4.484101   -1.389236   -5.267324
     73          1           0        3.896860    0.288627   -5.369660
     74          1           0        3.080980   -0.968197   -6.218363
     75          1           0        2.159014   -4.178165   -2.899804
     76          1           0        1.073253   -2.992120   -3.516466
     77          1           0        1.381796   -2.067363   -0.934505
     78          1           0        1.051972   -3.944117   -1.014858
     79          1           0        0.316069    5.147718   -4.229354
     80          1           0        0.271184    3.491019   -4.535156
     81          1           0        1.782739    4.297432   -4.811714
     82          1           0        1.983528    6.953113    0.159167
     83          1           0        0.508876    6.239711    0.671646
     84          1           0        0.318681    7.755218   -0.170746
     85          1           0        2.498554    4.247176    3.487790
     86          1           0        5.517158    3.612207    3.936474
     87          1           0        4.280684    5.978560    2.125151
     88          1           0        5.010587    5.789567    3.745230
     89          1           0        3.380948    6.415445    3.562245
     90          1           0        3.745176    1.567140    5.070992
     91          1           0        3.003831    3.224506    5.158598
     92          1           0        4.627136    1.833746    6.926477
     93          1           0        4.426764    3.481674    7.136318
     94          1           0        5.829720    2.963677    6.271657
     95          1           0        6.432117   -1.667627    4.328645
     96          1           0        7.847659   -1.081354    3.517404
     97          1           0        7.368663   -2.744007    3.221545
     98          1           0        3.739959   -4.077935   -0.561932
     99          1           0        7.516269   -5.375136   -2.721090
    100          1           0        8.592474   -4.016764   -2.782797
    101          1           0        7.103721   -4.057828   -3.797313
    102          1           0       -3.167037   -2.554055   -1.214054
    103          1           0       -2.355927   -1.552671   -0.086808
    104          1           0       -3.553295   -4.463678    0.317192
    105          1           0       -4.739283   -1.235866    2.590209
    106          1           0       -3.105543   -1.006418    1.839948
    107          1           0       -3.325715   -1.854092    3.404165
    108          1           0       -4.022975   -4.312564    3.687276
    109          1           0       -4.310512   -5.179562    2.253315
    110          1           0       -6.184198   -2.942822    3.108094
    111          1           0       -5.846358   -4.184316    4.219318
    112          1           0       -7.371105   -5.614689    3.160262
    113          1           0       -6.564751   -5.348913    1.580703
    114          1           0       -8.390113   -3.340635    2.699663
    115          1           0       -9.860046   -4.648624    0.693915
    116          1           0      -10.143893   -4.661330    2.388765
    117          1           0       -9.113437   -5.904498    1.747495
    118          1           0       -8.122805   -3.619654   -0.259716
    119          1           0       -6.747655   -2.898713    0.440903
    120          1           0       -9.296001   -1.749315    1.501238
    121          1           0       -9.112036   -1.642017   -0.186534
    122          1           0       -6.775805   -0.984346    1.636819
    123          1           0       -8.071709    0.107797    1.610330
    124          1           0       -7.483243   -0.486801   -1.109053
    125          1           0       -4.906896   -0.018765    0.337553
    126          1           0       -5.157529    0.299370   -1.330280
    127          1           0       -5.397537   -1.321840   -0.782446
    128          1           0       -6.438007    2.185363   -0.316661
    129          1           0       -7.619841    1.873197    0.693223
    130          1           0       -9.041956    1.242453   -1.663994
    131          1           0       -7.743460    2.226179   -2.231568
    132          1           0       -8.560125    4.088575   -1.532440
    133          1           0       -8.598041    3.559883    0.094431
    134          1           0      -10.827917    2.338544   -0.649557
    135          1           0      -11.940351    2.765825   -2.507387
    136          1           0      -10.442350    3.721467   -3.070512
    137          1           0      -11.739699    4.474697   -2.210167
    138          1           0      -10.484811    5.175505    0.328248
    139          1           0      -10.790675    3.709161    1.139704
    140          1           0      -12.134635    4.457210    0.168325
 ---------------------------------------------------------------------

 SCF Done:  E(RCAM-B3LYP) =  -3007.17247200     A.U. after   17 cycles

 Excitation energies and oscillator strengths:

 Excited State   1:      Singlet-A      1.7054 eV  727.03 nm  f=0.3652  <S**2>=0.000
     245 -> 248        0.18644
     246 -> 247        0.68383
     245 <- 248        0.10962
 This state for optimization and/or second-order correction.
 Total Energy, E(TD-HF/TD-DFT) =  -3007.10980142
 Copying the excited state density for this state as the 1-particle RhoCI density.

 Excited State   2:      Singlet-A      2.1942 eV  565.06 nm  f=0.1049  <S**2>=0.000
     245 -> 247        0.64201
     246 -> 248       -0.28473

 Excited State   3:      Singlet-A      3.3140 eV  374.13 nm  f=0.0016  <S**2>=0.000
     240 -> 247        0.10375
     244 -> 247        0.66179

 Excited State   4:      Singlet-A      3.3663 eV  368.31 nm  f=0.0008  <S**2>=0.000
     240 -> 247        0.48142
     240 -> 249       -0.30452
     240 -> 251        0.16260
     241 -> 247       -0.11023
     242 -> 247        0.23075
     244 -> 247       -0.16871

 Excited State   5:      Singlet-A      3.4000 eV  364.66 nm  f=0.0011  <S**2>=0.000
     241 -> 247        0.41507
     241 -> 248        0.11561
     241 -> 249        0.19915
     241 -> 251        0.23133
     242 -> 247        0.35999
     242 -> 249        0.14928
     242 -> 251        0.16035

 The electronic state is 1-A.
 Alpha  occ. eigenvalues --  -46.89372 -19.25332 -19.24263 -19.20670 -19.19524
 Alpha  occ. eigenvalues --  -19.18789 -19.17961 -14.42611 -14.42151 -14.39711
 Alpha  occ. eigenvalues --  -14.39241 -10.39900 -10.38454 -10.35126 -10.34563
 Alpha  occ. eigenvalues --  -10.31892 -10.31715 -10.31626 -10.31531 -10.31013
 Alpha  occ. eigenvalues --  -10.30738 -10.30459 -10.30187 -10.29154 -10.29125
 Alpha  occ. eigenvalues --  -10.28861 -10.28808 -10.28473 -10.28455 -10.28413
 Alpha  occ. eigenvalues --  -10.28380 -10.28268 -10.28138 -10.27395 -10.27363
 Alpha  occ. eigenvalues --  -10.26845 -10.26810 -10.26777 -10.26733 -10.26731
 Alpha  occ. eigenvalues --  -10.26693 -10.26688 -10.26514 -10.26066 -10.26063
 Alpha  occ. eigenvalues --  -10.26053 -10.25681 -10.25585 -10.25556 -10.25314
 Alpha  occ. eigenvalues --  -10.25290 -10.25116 -10.25008 -10.24804 -10.24782
 Alpha  occ. eigenvalues --  -10.24570 -10.24351 -10.24326 -10.24249 -10.24230
 Alpha  occ. eigenvalues --  -10.24185 -10.24081 -10.23997 -10.23975 -10.23883
 Alpha  occ. eigenvalues --  -10.23870  -3.17854  -1.92736  -1.92303  -1.92161
 Alpha  occ. eigenvalues --   -1.16286  -1.15317  -1.08465  -1.08331  -1.07696
 Alpha  occ. eigenvalues --   -1.06947  -1.04960  -1.03983  -1.03247  -1.02282
 Alpha  occ. eigenvalues --   -0.93142  -0.90514  -0.89641  -0.89418  -0.89232
 Alpha  occ. eigenvalues --   -0.88867  -0.88556  -0.87678  -0.87217  -0.87123
 Alpha  occ. eigenvalues --   -0.86293  -0.85768  -0.84587  -0.84482  -0.83692
 Alpha  occ. eigenvalues --   -0.82652  -0.82268  -0.81109  -0.80885  -0.80340
 Alpha  occ. eigenvalues --   -0.79672  -0.78284  -0.77843  -0.77658  -0.76236
 Alpha  occ. eigenvalues --   -0.75675  -0.75542  -0.75453  -0.74820  -0.73836
 Alpha  occ. eigenvalues --   -0.73565  -0.73186  -0.72262  -0.71078  -0.69585
 Alpha  occ. eigenvalues --   -0.69143  -0.67846  -0.67418  -0.66321  -0.65976
 Alpha  occ. eigenvalues --   -0.65356  -0.65115  -0.64886  -0.64830  -0.64196
 Alpha  occ. eigenvalues --   -0.63133  -0.63047  -0.62279  -0.62104  -0.60471
 Alpha  occ. eigenvalues --   -0.59710  -0.59402  -0.59259  -0.58579  -0.58149
 Alpha  occ. eigenvalues --   -0.57047  -0.56628  -0.56466  -0.56104  -0.55631
 Alpha  occ. eigenvalues --   -0.55327  -0.55227  -0.54938  -0.54029  -0.54005
 Alpha  occ. eigenvalues --   -0.53596  -0.53361  -0.53282  -0.52881  -0.52699
 Alpha  occ. eigenvalues --   -0.52627  -0.52360  -0.51947  -0.51639  -0.51606
 Alpha  occ. eigenvalues --   -0.51336  -0.51199  -0.51131  -0.50733  -0.50484
 Alpha  occ. eigenvalues --   -0.50351  -0.50035  -0.49862  -0.49602  -0.49239
 Alpha  occ. eigenvalues --   -0.49204  -0.49098  -0.48855  -0.48651  -0.48609
 Alpha  occ. eigenvalues --   -0.48437  -0.48275  -0.48110  -0.48018  -0.47851
 Alpha  occ. eigenvalues --   -0.47472  -0.47110  -0.46912  -0.46823  -0.46673
 Alpha  occ. eigenvalues --   -0.46582  -0.46097  -0.45928  -0.45741  -0.45702
 Alpha  occ. eigenvalues --   -0.45588  -0.45545  -0.45360  -0.45176  -0.45015
 Alpha  occ. eigenvalues --   -0.44853  -0.44642  -0.44300  -0.44293  -0.43941
 Alpha  occ. eigenvalues --   -0.43706  -0.43666  -0.43492  -0.43001  -0.42859
 Alpha  occ. eigenvalues --   -0.42756  -0.42440  -0.42382  -0.42302  -0.42270
 Alpha  occ. eigenvalues --   -0.42088  -0.41654  -0.41340  -0.41101  -0.40973
 Alpha  occ. eigenvalues --   -0.40939  -0.40685  -0.40482  -0.40146  -0.40009
 Alpha  occ. eigenvalues --   -0.39954  -0.39600  -0.39482  -0.38955  -0.38854
 Alpha  occ. eigenvalues --   -0.38408  -0.38392  -0.38068  -0.37504  -0.37370
 Alpha  occ. eigenvalues --   -0.37049  -0.37021  -0.36770  -0.36470  -0.36240
 Alpha  occ. eigenvalues --   -0.35709  -0.35640  -0.35172  -0.34881  -0.34542
 Alpha  occ. eigenvalues --   -0.33937  -0.33815  -0.33601  -0.31205  -0.30790
 Alpha  occ. eigenvalues --   -0.30347  -0.30265  -0.30050  -0.29821  -0.24249
 Alpha  occ. eigenvalues --   -0.21540
 Alpha virt. eigenvalues --   -0.09061  -0.02183   0.00067   0.01334   0.02124
 Alpha virt. eigenvalues --    0.04685   0.04733   0.05563   0.05998   0.06877
 Alpha virt. eigenvalues --    0.07861   0.08576   0.08728   0.08950   0.09150

 Mulliken charges:
               1
     1  Mg   0.829366
     2  C    0.015685
     3  C   -0.055253
     4  C   -0.057050
     5  C   -0.112973
     6  N   -0.323458
     7  C   -0.039707
     8  C   -0.006149
     9  C    0.001601
    10  C    0.078910
    11  C    0.069740
    12  C    0.032522
    13  C    0.083461
    14  C    0.126840
    15  O   -0.233378
    16  O   -0.351180
    17  N   -0.400440
    18  C    0.074700
    19  C   -0.116009
    20  C    0.005609
    21  C    0.183737
    22  C    0.112185
    23  C   -0.040234
    24  O   -0.226037
    25  C    0.079402
    26  N   -0.256591
    27  C   -0.022253
    28  C   -0.042697
    29  C   -0.028752
    30  C    0.020808
    31  C    0.065106
    32  C    0.041499
    33  C   -0.005550
    34  N   -0.326068
    35  C    0.169151
    36  C   -0.192285
    37  C    0.097464
    38  C    0.068283
    39  C    0.120409
    40  C    0.018529
    41  O   -0.209791
    42  C   -0.006037
    43  C    0.186111
    44  O   -0.213666
    45  O   -0.342730
    46  C    0.188047
    47  C    0.263150
    48  C   -0.111226
    49  C   -0.126339
    50  C    0.096159
    51  C    0.067861
    52  C   -0.002653
    53  C    0.081402
    54  C   -0.157832
    55  C    0.050546
    56  C    0.069551
    57  C    0.023903
    58  C    0.074030
    59  C   -0.104370
    60  C    0.036567
    61  C    0.042001
    62  C    0.043992
    63  C    0.030440
    64  C   -0.148544
    65  C    0.062135
    66  C    0.042553
    67  H   -0.027997
    68  H   -0.072829
    69  H   -0.028046
    70  H    0.000803
    71  H    0.025330
    72  H    0.022137
    73  H    0.015492
    74  H    0.018573
    75  H    0.031007
    76  H    0.005893
    77  H    0.072750
    78  H    0.034001
    79  H    0.040299
    80  H    0.019801
    81  H    0.026717
    82  H    0.037619
    83  H    0.031599
    84  H    0.031059
    85  H    0.030564
    86  H    0.012736
    87  H    0.017270
    88  H    0.023065
    89  H    0.012769
    90  H    0.027937
    91  H    0.002995
    92  H    0.006934
    93  H    0.009203
    94  H    0.015147
    95  H    0.022009
    96  H    0.016305
    97  H    0.039927
    98  H    0.036370
    99  H    0.035095
   100  H    0.037435
   101  H    0.025715
   102  H    0.036704
   103  H    0.018609
   104  H    0.002002
   105  H    0.034230
   106  H    0.020314
   107  H    0.010419
   108  H   -0.001911
   109  H   -0.006369
   110  H   -0.012232
   111  H   -0.015989
   112  H    0.002262
   113  H   -0.005628
   114  H   -0.004776
   115  H   -0.000104
   116  H    0.000448
   117  H    0.004363
   118  H   -0.013949
   119  H   -0.007854
   120  H   -0.009857
   121  H   -0.009380
   122  H   -0.031462
   123  H   -0.020529
   124  H   -0.010447
   125  H   -0.004445
   126  H    0.001161
   127  H    0.009609
   128  H   -0.019981
   129  H   -0.020600
   130  H    0.001692
   131  H   -0.006908
   132  H   -0.010876
   133  H   -0.014092
   134  H   -0.008714
   135  H    0.017121
   136  H    0.009597
   137  H   -0.008298
   138  H    0.007131
   139  H    0.006489
   140  H    0.012364
 Sum of Mulliken charges =  -0.00000

 Dipole moment (field-independent basis, Debye):
    X=              1.4757    Y=              3.0188    Z=              2.1087  Tot=              3.9671
 Quadrupole moment (field-independent basis, Debye-Ang):
   XX=           -382.8460   YY=           -439.5109   ZZ=           -379.4039
   XY=             35.2983   XZ=            -12.4568   YZ=             29.0576

 Normal termination of Gaussian 16 at Wed May  4 10:38:45 2022.
