 Gaussian 16, Revision A.03,
 Gaussian 16:  ES64L-G16RevA.03 25-Dec-2016

 ---------------------------------
 #p PBE1PBE/Def2SVP td=(nstates=5)
 ---------------------------------

 -----------------------------------------------------
 step_1651_chromophore_2 TDDFT with PBE1PBE functional
 -----------------------------------------------------
 Symbolic Z-matrix:
 Charge =  0 Multiplicity = 1

                         Standard orientation:
 ---------------------------------------------------------------------
 Center     Atomic      Atomic             Coordinates (Angstroms)
 Number     Number       Type             X           Y           Z
 ---------------------------------------------------------------------
      1         12           0        3.887552    1.395971   -0.324532
      2          6           0        4.340157   -2.037729   -0.751052
      3          6           0        2.085415    1.487504   -3.219728
      4          6           0        2.638484    4.327749    0.682407
      5          6           0        5.368623    0.981369    2.901447
      6          7           0        3.173376   -0.124352   -1.775736
      7          6           0        3.611214   -1.433783   -1.834870
      8          6           0        2.980701   -2.141040   -3.059223
      9          6           0        2.641745   -0.956905   -4.023932
     10          6           0        2.616611    0.207238   -3.027686
     11          6           0        3.597567   -0.756329   -5.282459
     12          6           0        1.813308   -3.158716   -2.733747
     13          6           0        1.019507   -2.950579   -1.460865
     14          6           0       -0.415492   -2.589631   -1.560643
     15          8           0       -0.875874   -1.697409   -2.236893
     16          8           0       -1.142764   -3.232649   -0.563577
     17          7           0        2.731236    2.857864   -1.168901
     18          6           0        2.084247    2.695683   -2.386165
     19          6           0        1.425834    3.921801   -2.765231
     20          6           0        1.476554    4.704300   -1.580459
     21          6           0        2.277187    4.019339   -0.618157
     22          6           0        0.934079    4.255723   -4.129236
     23          6           0        0.855252    6.055704   -1.401537
     24          8           0        0.133115    6.546703   -2.288638
     25          6           0        0.934647    6.856919   -0.119475
     26          7           0        3.923267    2.464733    1.583284
     27          6           0        3.392135    3.685343    1.671276
     28          6           0        3.509117    4.271778    3.077997
     29          6           0        4.501578    3.247675    3.781352
     30          6           0        4.629859    2.120552    2.708948
     31          6           0        4.095168    5.696192    3.161710
     32          6           0        3.923035    2.641259    5.123130
     33          6           0        4.763756    2.769270    6.384132
     34          7           0        4.700262   -0.131724    0.887697
     35          6           0        5.399163   -0.085056    2.075096
     36          6           0        6.010066   -1.359528    2.284837
     37          6           0        5.512273   -2.217747    1.333139
     38          6           0        4.819196   -1.403279    0.468400
     39          6           0        6.986511   -1.737957    3.392719
     40          6           0        5.458251   -3.522904    0.817938
     41          8           0        5.996444   -4.527804    1.358179
     42          6           0        4.646522   -3.473148   -0.582662
     43          6           0        5.486062   -4.175417   -1.628700
     44          8           0        5.012390   -5.043948   -2.335355
     45          8           0        6.775746   -3.651371   -1.768615
     46          6           0        7.538894   -4.291128   -2.825688
     47          6           0       -2.499193   -2.599215   -0.354259
     48          6           0       -3.256451   -3.470377    0.656127
     49          6           0       -3.785314   -3.084118    1.822608
     50          6           0       -3.752897   -1.666504    2.418411
     51          6           0       -4.449311   -4.191237    2.691942
     52          6           0       -5.887102   -3.991539    3.147470
     53          6           0       -6.987374   -4.870068    2.464328
     54          6           0       -8.094635   -3.975328    1.863111
     55          6           0       -9.367808   -4.849998    1.645910
     56          6           0       -7.794013   -3.120859    0.651455
     57          6           0       -8.528930   -1.760209    0.726439
     58          6           0       -7.608218   -0.672649    1.005796
     59          6           0       -7.006651    0.044578   -0.284406
     60          6           0       -5.555166   -0.281495   -0.497859
     61          6           0       -7.329096    1.558028   -0.308859
     62          6           0       -8.324515    1.996248   -1.338440
     63          6           0       -8.997741    3.323134   -0.890994
     64          6           0      -10.528767    3.354181   -0.906406
     65          6           0      -11.195310    3.535265   -2.305033
     66          6           0      -11.065083    4.256794    0.238639
     67          1           0        1.419489    1.698733   -4.058784
     68          1           0        2.324070    5.295238    1.081057
     69          1           0        5.978360    0.956083    3.807477
     70          1           0        3.713753   -2.855102   -3.435749
     71          1           0        1.619150   -1.021081   -4.396961
     72          1           0        4.484101   -1.389236   -5.267324
     73          1           0        3.896860    0.288627   -5.369660
     74          1           0        3.080980   -0.968197   -6.218363
     75          1           0        2.159014   -4.178165   -2.899804
     76          1           0        1.073253   -2.992120   -3.516466
     77          1           0        1.381796   -2.067363   -0.934505
     78          1           0        1.051972   -3.944117   -1.014858
     79          1           0        0.316069    5.147718   -4.229354
     80          1           0        0.271184    3.491019   -4.535156
     81          1           0        1.782739    4.297432   -4.811714
     82          1           0        1.983528    6.953113    0.159167
     83          1           0        0.508876    6.239711    0.671646
     84          1           0        0.318681    7.755218   -0.170746
     85          1           0        2.498554    4.247176    3.487790
     86          1           0        5.517158    3.612207    3.936474
     87          1           0        4.280684    5.978560    2.125151
     88          1           0        5.010587    5.789567    3.745230
     89          1           0        3.380948    6.415445    3.562245
     90          1           0        3.745176    1.567140    5.070992
     91          1           0        3.003831    3.224506    5.158598
     92          1           0        4.627136    1.833746    6.926477
     93          1           0        4.426764    3.481674    7.136318
     94          1           0        5.829720    2.963677    6.271657
     95          1           0        6.432117   -1.667627    4.328645
     96          1           0        7.847659   -1.081354    3.517404
     97          1           0        7.368663   -2.744007    3.221545
     98          1           0        3.739959   -4.077935   -0.561932
     99          1           0        7.516269   -5.375136   -2.721090
    100          1           0        8.592474   -4.016764   -2.782797
    101          1           0        7.103721   -4.057828   -3.797313
    102          1           0       -3.167037   -2.554055   -1.214054
    103          1           0       -2.355927   -1.552671   -0.086808
    104          1           0       -3.553295   -4.463678    0.317192
    105          1           0       -4.739283   -1.235866    2.590209
    106          1           0       -3.105543   -1.006418    1.839948
    107          1           0       -3.325715   -1.854092    3.404165
    108          1           0       -4.022975   -4.312564    3.687276
    109          1           0       -4.310512   -5.179562    2.253315
    110          1           0       -6.184198   -2.942822    3.108094
    111          1           0       -5.846358   -4.184316    4.219318
    112          1           0       -7.371105   -5.614689    3.160262
    113          1           0       -6.564751   -5.348913    1.580703
    114          1           0       -8.390113   -3.340635    2.699663
    115          1           0       -9.860046   -4.648624    0.693915
    116          1           0      -10.143893   -4.661330    2.388765
    117          1           0       -9.113437   -5.904498    1.747495
    118          1           0       -8.122805   -3.619654   -0.259716
    119          1           0       -6.747655   -2.898713    0.440903
    120          1           0       -9.296001   -1.749315    1.501238
    121          1           0       -9.112036   -1.642017   -0.186534
    122          1           0       -6.775805   -0.984346    1.636819
    123          1           0       -8.071709    0.107797    1.610330
    124          1           0       -7.483243   -0.486801   -1.109053
    125          1           0       -4.906896   -0.018765    0.337553
    126          1           0       -5.157529    0.299370   -1.330280
    127          1           0       -5.397537   -1.321840   -0.782446
    128          1           0       -6.438007    2.185363   -0.316661
    129          1           0       -7.619841    1.873197    0.693223
    130          1           0       -9.041956    1.242453   -1.663994
    131          1           0       -7.743460    2.226179   -2.231568
    132          1           0       -8.560125    4.088575   -1.532440
    133          1           0       -8.598041    3.559883    0.094431
    134          1           0      -10.827917    2.338544   -0.649557
    135          1           0      -11.940351    2.765825   -2.507387
    136          1           0      -10.442350    3.721467   -3.070512
    137          1           0      -11.739699    4.474697   -2.210167
    138          1           0      -10.484811    5.175505    0.328248
    139          1           0      -10.790675    3.709161    1.139704
    140          1           0      -12.134635    4.457210    0.168325
 ---------------------------------------------------------------------

 SCF Done:  E(RPBE1PBE) =  -3005.36180169     A.U. after   15 cycles

 Excitation energies and oscillator strengths:

 Excited State   1:      Singlet-A      1.8647 eV  664.91 nm  f=0.3544  <S**2>=0.000
     245 -> 248        0.18113
     246 -> 247        0.69066
     246 <- 247       -0.10511
 This state for optimization and/or second-order correction.
 Total Energy, E(TD-HF/TD-DFT) =  -3005.29327562
 Copying the excited state density for this state as the 1-particle RhoCI density.

 Excited State   2:      Singlet-A      2.2014 eV  563.21 nm  f=0.1007  <S**2>=0.000
     245 -> 247        0.65390
     246 -> 248       -0.25630

 Excited State   3:      Singlet-A      2.8255 eV  438.80 nm  f=0.0001  <S**2>=0.000
     244 -> 247        0.67393
     244 -> 249        0.13079
     244 -> 250        0.12856

 Excited State   4:      Singlet-A      2.8854 eV  429.70 nm  f=0.0005  <S**2>=0.000
     240 -> 247       -0.12474
     241 -> 247        0.60973
     241 -> 249       -0.17725
     242 -> 247       -0.23933

 Excited State   5:      Singlet-A      2.9942 eV  414.08 nm  f=0.0029  <S**2>=0.000
     241 -> 247        0.24075
     242 -> 247        0.64528

 The electronic state is 1-A.
 Alpha  occ. eigenvalues --  -46.92767 -19.25960 -19.24951 -19.20903 -19.19775
 Alpha  occ. eigenvalues --  -19.19070 -19.18159 -14.42208 -14.41585 -14.39333
 Alpha  occ. eigenvalues --  -14.38916 -10.36943 -10.35462 -10.32298 -10.31686
 Alpha  occ. eigenvalues --  -10.29668 -10.29339 -10.29103 -10.28736 -10.28694
 Alpha  occ. eigenvalues --  -10.28529 -10.28133 -10.27797 -10.26882 -10.26798
 Alpha  occ. eigenvalues --  -10.26624 -10.26445 -10.26346 -10.26285 -10.26253
 Alpha  occ. eigenvalues --  -10.26143 -10.26018 -10.25793 -10.25095 -10.25029
 Alpha  occ. eigenvalues --  -10.24465 -10.24423 -10.24410 -10.24377 -10.24216
 Alpha  occ. eigenvalues --  -10.24206 -10.24171 -10.23976 -10.23493 -10.23448
 Alpha  occ. eigenvalues --  -10.23337 -10.23118 -10.23107 -10.23002 -10.22935
 Alpha  occ. eigenvalues --  -10.22875 -10.22804 -10.22676 -10.22354 -10.22336
 Alpha  occ. eigenvalues --  -10.22273 -10.21847 -10.21742 -10.21726 -10.21723
 Alpha  occ. eigenvalues --  -10.21608 -10.21589 -10.21472 -10.21407 -10.21392
 Alpha  occ. eigenvalues --  -10.21196  -3.14829  -1.87650  -1.87196  -1.87057
 Alpha  occ. eigenvalues --   -1.11035  -1.10089  -1.03303  -1.03015  -1.02422
 Alpha  occ. eigenvalues --   -1.01809  -0.99636  -0.98613  -0.97866  -0.96893
 Alpha  occ. eigenvalues --   -0.87510  -0.84574  -0.83784  -0.83723  -0.83416
 Alpha  occ. eigenvalues --   -0.83130  -0.82659  -0.82017  -0.81482  -0.81301
 Alpha  occ. eigenvalues --   -0.80602  -0.80021  -0.78819  -0.78672  -0.77946
 Alpha  occ. eigenvalues --   -0.76822  -0.76492  -0.75326  -0.75049  -0.74592
 Alpha  occ. eigenvalues --   -0.73892  -0.72547  -0.72125  -0.71945  -0.70545
 Alpha  occ. eigenvalues --   -0.69981  -0.69727  -0.69520  -0.68912  -0.67994
 Alpha  occ. eigenvalues --   -0.67937  -0.67536  -0.66659  -0.65418  -0.63999
 Alpha  occ. eigenvalues --   -0.63579  -0.62048  -0.61852  -0.60684  -0.60230
 Alpha  occ. eigenvalues --   -0.59747  -0.59538  -0.59445  -0.59249  -0.58285
 Alpha  occ. eigenvalues --   -0.57665  -0.57179  -0.56776  -0.56319  -0.55007
 Alpha  occ. eigenvalues --   -0.54289  -0.53931  -0.53737  -0.53121  -0.52729
 Alpha  occ. eigenvalues --   -0.51527  -0.51207  -0.50951  -0.50559  -0.50133
 Alpha  occ. eigenvalues --   -0.49760  -0.49676  -0.49333  -0.48623  -0.48384
 Alpha  occ. eigenvalues --   -0.48040  -0.47921  -0.47752  -0.47386  -0.47304
 Alpha  occ. eigenvalues --   -0.47223  -0.46872  -0.46422  -0.46153  -0.46106
 Alpha  occ. eigenvalues --   -0.45804  -0.45748  -0.45716  -0.45266  -0.45073
 Alpha  occ. eigenvalues --   -0.44913  -0.44575  -0.44419  -0.44143  -0.43865
 Alpha  occ. eigenvalues --   -0.43722  -0.43710  -0.43446  -0.43273  -0.43132
 Alpha  occ. eigenvalues --   -0.43088  -0.42938  -0.42775  -0.42606  -0.42395
 Alpha  occ. eigenvalues --   -0.42118  -0.41776  -0.41613  -0.41499  -0.41349
 Alpha  occ. eigenvalues --   -0.41252  -0.40729  -0.40652  -0.40467  -0.40332
 Alpha  occ. eigenvalues --   -0.40249  -0.40128  -0.40092  -0.39916  -0.39710
 Alpha  occ. eigenvalues --   -0.39586  -0.39327  -0.39009  -0.38938  -0.38720
 Alpha  occ. eigenvalues --   -0.38545  -0.38415  -0.38182  -0.37795  -0.37641
 Alpha  occ. eigenvalues --   -0.37625  -0.37258  -0.37167  -0.37139  -0.36989
 Alpha  occ. eigenvalues --   -0.36907  -0.36425  -0.36133  -0.35969  -0.35761
 Alpha  occ. eigenvalues --   -0.35703  -0.35444  -0.35345  -0.35098  -0.34948
 Alpha  occ. eigenvalues --   -0.34733  -0.34516  -0.34223  -0.33819  -0.33718
 Alpha  occ. eigenvalues --   -0.33385  -0.33178  -0.32879  -0.32525  -0.32179
 Alpha  occ. eigenvalues --   -0.32068  -0.31813  -0.31760  -0.31390  -0.31045
 Alpha  occ. eigenvalues --   -0.30585  -0.30470  -0.30044  -0.29727  -0.29637
 Alpha  occ. eigenvalues --   -0.29222  -0.28827  -0.28591  -0.26882  -0.26032
 Alpha  occ. eigenvalues --   -0.25566  -0.25411  -0.25336  -0.24977  -0.21187
 Alpha  occ. eigenvalues --   -0.19168
 Alpha virt. eigenvalues --   -0.11510  -0.05634  -0.04152  -0.02310  -0.01396
 Alpha virt. eigenvalues --    0.00001   0.00375   0.01125   0.01530   0.02849
 Alpha virt. eigenvalues --    0.03816   0.04771   0.05440   0.05708   0.05911

 Mulliken charges:
               1
     1  Mg   0.970718
     2  C    0.009054
     3  C   -0.046212
     4  C   -0.065695
     5  C   -0.103032
     6  N   -0.412002
     7  C    0.027546
     8  C   -0.065905
     9  C   -0.075796
    10  C    0.106973
    11  C    0.013311
    12  C   -0.014188
    13  C   -0.004337
    14  C    0.199646
    15  O   -0.265431
    16  O   -0.379148
    17  N   -0.515809
    18  C    0.095708
    19  C   -0.136714
    20  C   -0.050633
    21  C    0.215268
    22  C    0.052911
    23  C    0.019204
    24  O   -0.261871
    25  C   -0.001256
    26  N   -0.363664
    27  C    0.028154
    28  C   -0.124641
    29  C   -0.103300
    30  C    0.064405
    31  C    0.008394
    32  C   -0.017732
    33  C   -0.074578
    34  N   -0.452206
    35  C    0.186147
    36  C   -0.210676
    37  C    0.047421
    38  C    0.112933
    39  C    0.067698
    40  C    0.115709
    41  O   -0.254223
    42  C   -0.120003
    43  C    0.276413
    44  O   -0.249580
    45  O   -0.372033
    46  C    0.131548
    47  C    0.221103
    48  C   -0.126905
    49  C   -0.169495
    50  C    0.028382
    51  C    0.009622
    52  C   -0.066079
    53  C    0.025349
    54  C   -0.246583
    55  C   -0.005298
    56  C    0.010479
    57  C   -0.039603
    58  C    0.010404
    59  C   -0.187782
    60  C   -0.028294
    61  C   -0.009971
    62  C   -0.019373
    63  C   -0.022732
    64  C   -0.238699
    65  C   -0.000214
    66  C   -0.024673
    67  H    0.004374
    68  H   -0.038141
    69  H    0.003926
    70  H    0.042677
    71  H    0.060819
    72  H    0.048594
    73  H    0.043133
    74  H    0.045587
    75  H    0.060576
    76  H    0.040029
    77  H    0.109504
    78  H    0.065540
    79  H    0.067434
    80  H    0.046485
    81  H    0.055267
    82  H    0.064602
    83  H    0.059685
    84  H    0.058895
    85  H    0.065547
    86  H    0.048940
    87  H    0.045466
    88  H    0.049668
    89  H    0.040536
    90  H    0.059440
    91  H    0.037176
    92  H    0.034542
    93  H    0.037193
    94  H    0.041320
    95  H    0.049988
    96  H    0.043739
    97  H    0.066929
    98  H    0.075880
    99  H    0.057081
   100  H    0.059638
   101  H    0.048138
   102  H    0.062848
   103  H    0.044971
   104  H    0.030895
   105  H    0.061762
   106  H    0.047454
   107  H    0.039867
   108  H    0.031128
   109  H    0.024325
   110  H    0.022509
   111  H    0.017262
   112  H    0.033933
   113  H    0.028444
   114  H    0.034588
   115  H    0.026999
   116  H    0.027963
   117  H    0.031450
   118  H    0.018830
   119  H    0.030203
   120  H    0.022432
   121  H    0.022862
   122  H    0.010505
   123  H    0.012491
   124  H    0.028301
   125  H    0.025876
   126  H    0.030272
   127  H    0.039002
   128  H    0.012209
   129  H    0.010320
   130  H    0.032326
   131  H    0.027309
   132  H    0.022250
   133  H    0.017686
   134  H    0.030967
   135  H    0.043682
   136  H    0.036884
   137  H    0.020434
   138  H    0.035460
   139  H    0.035123
   140  H    0.039840
 Sum of Mulliken charges =  -0.00000

 Dipole moment (field-independent basis, Debye):
    X=              1.5192    Y=              2.9654    Z=              2.1469  Tot=              3.9637
 Quadrupole moment (field-independent basis, Debye-Ang):
   XX=           -379.4093   YY=           -436.9365   ZZ=           -374.4596
   XY=             35.4535   XZ=            -11.8798   YZ=             29.6742

 Normal termination of Gaussian 16 at Wed May  4 10:56:20 2022.
