 Gaussian 16, Revision A.03,
 Gaussian 16:  ES64L-G16RevA.03 25-Dec-2016

 --------------------------------
 #p wB97XD/Def2SVP td=(nstates=5)
 --------------------------------

 ----------------------------------------------------
 step_1651_chromophore_2 TDDFT with wB97XD functional
 ----------------------------------------------------
 Symbolic Z-matrix:
 Charge =  0 Multiplicity = 1

                         Standard orientation:
 ---------------------------------------------------------------------
 Center     Atomic      Atomic             Coordinates (Angstroms)
 Number     Number       Type             X           Y           Z
 ---------------------------------------------------------------------
      1         12           0        3.887552    1.395971   -0.324532
      2          6           0        4.340157   -2.037729   -0.751052
      3          6           0        2.085415    1.487504   -3.219728
      4          6           0        2.638484    4.327749    0.682407
      5          6           0        5.368623    0.981369    2.901447
      6          7           0        3.173376   -0.124352   -1.775736
      7          6           0        3.611214   -1.433783   -1.834870
      8          6           0        2.980701   -2.141040   -3.059223
      9          6           0        2.641745   -0.956905   -4.023932
     10          6           0        2.616611    0.207238   -3.027686
     11          6           0        3.597567   -0.756329   -5.282459
     12          6           0        1.813308   -3.158716   -2.733747
     13          6           0        1.019507   -2.950579   -1.460865
     14          6           0       -0.415492   -2.589631   -1.560643
     15          8           0       -0.875874   -1.697409   -2.236893
     16          8           0       -1.142764   -3.232649   -0.563577
     17          7           0        2.731236    2.857864   -1.168901
     18          6           0        2.084247    2.695683   -2.386165
     19          6           0        1.425834    3.921801   -2.765231
     20          6           0        1.476554    4.704300   -1.580459
     21          6           0        2.277187    4.019339   -0.618157
     22          6           0        0.934079    4.255723   -4.129236
     23          6           0        0.855252    6.055704   -1.401537
     24          8           0        0.133115    6.546703   -2.288638
     25          6           0        0.934647    6.856919   -0.119475
     26          7           0        3.923267    2.464733    1.583284
     27          6           0        3.392135    3.685343    1.671276
     28          6           0        3.509117    4.271778    3.077997
     29          6           0        4.501578    3.247675    3.781352
     30          6           0        4.629859    2.120552    2.708948
     31          6           0        4.095168    5.696192    3.161710
     32          6           0        3.923035    2.641259    5.123130
     33          6           0        4.763756    2.769270    6.384132
     34          7           0        4.700262   -0.131724    0.887697
     35          6           0        5.399163   -0.085056    2.075096
     36          6           0        6.010066   -1.359528    2.284837
     37          6           0        5.512273   -2.217747    1.333139
     38          6           0        4.819196   -1.403279    0.468400
     39          6           0        6.986511   -1.737957    3.392719
     40          6           0        5.458251   -3.522904    0.817938
     41          8           0        5.996444   -4.527804    1.358179
     42          6           0        4.646522   -3.473148   -0.582662
     43          6           0        5.486062   -4.175417   -1.628700
     44          8           0        5.012390   -5.043948   -2.335355
     45          8           0        6.775746   -3.651371   -1.768615
     46          6           0        7.538894   -4.291128   -2.825688
     47          6           0       -2.499193   -2.599215   -0.354259
     48          6           0       -3.256451   -3.470377    0.656127
     49          6           0       -3.785314   -3.084118    1.822608
     50          6           0       -3.752897   -1.666504    2.418411
     51          6           0       -4.449311   -4.191237    2.691942
     52          6           0       -5.887102   -3.991539    3.147470
     53          6           0       -6.987374   -4.870068    2.464328
     54          6           0       -8.094635   -3.975328    1.863111
     55          6           0       -9.367808   -4.849998    1.645910
     56          6           0       -7.794013   -3.120859    0.651455
     57          6           0       -8.528930   -1.760209    0.726439
     58          6           0       -7.608218   -0.672649    1.005796
     59          6           0       -7.006651    0.044578   -0.284406
     60          6           0       -5.555166   -0.281495   -0.497859
     61          6           0       -7.329096    1.558028   -0.308859
     62          6           0       -8.324515    1.996248   -1.338440
     63          6           0       -8.997741    3.323134   -0.890994
     64          6           0      -10.528767    3.354181   -0.906406
     65          6           0      -11.195310    3.535265   -2.305033
     66          6           0      -11.065083    4.256794    0.238639
     67          1           0        1.419489    1.698733   -4.058784
     68          1           0        2.324070    5.295238    1.081057
     69          1           0        5.978360    0.956083    3.807477
     70          1           0        3.713753   -2.855102   -3.435749
     71          1           0        1.619150   -1.021081   -4.396961
     72          1           0        4.484101   -1.389236   -5.267324
     73          1           0        3.896860    0.288627   -5.369660
     74          1           0        3.080980   -0.968197   -6.218363
     75          1           0        2.159014   -4.178165   -2.899804
     76          1           0        1.073253   -2.992120   -3.516466
     77          1           0        1.381796   -2.067363   -0.934505
     78          1           0        1.051972   -3.944117   -1.014858
     79          1           0        0.316069    5.147718   -4.229354
     80          1           0        0.271184    3.491019   -4.535156
     81          1           0        1.782739    4.297432   -4.811714
     82          1           0        1.983528    6.953113    0.159167
     83          1           0        0.508876    6.239711    0.671646
     84          1           0        0.318681    7.755218   -0.170746
     85          1           0        2.498554    4.247176    3.487790
     86          1           0        5.517158    3.612207    3.936474
     87          1           0        4.280684    5.978560    2.125151
     88          1           0        5.010587    5.789567    3.745230
     89          1           0        3.380948    6.415445    3.562245
     90          1           0        3.745176    1.567140    5.070992
     91          1           0        3.003831    3.224506    5.158598
     92          1           0        4.627136    1.833746    6.926477
     93          1           0        4.426764    3.481674    7.136318
     94          1           0        5.829720    2.963677    6.271657
     95          1           0        6.432117   -1.667627    4.328645
     96          1           0        7.847659   -1.081354    3.517404
     97          1           0        7.368663   -2.744007    3.221545
     98          1           0        3.739959   -4.077935   -0.561932
     99          1           0        7.516269   -5.375136   -2.721090
    100          1           0        8.592474   -4.016764   -2.782797
    101          1           0        7.103721   -4.057828   -3.797313
    102          1           0       -3.167037   -2.554055   -1.214054
    103          1           0       -2.355927   -1.552671   -0.086808
    104          1           0       -3.553295   -4.463678    0.317192
    105          1           0       -4.739283   -1.235866    2.590209
    106          1           0       -3.105543   -1.006418    1.839948
    107          1           0       -3.325715   -1.854092    3.404165
    108          1           0       -4.022975   -4.312564    3.687276
    109          1           0       -4.310512   -5.179562    2.253315
    110          1           0       -6.184198   -2.942822    3.108094
    111          1           0       -5.846358   -4.184316    4.219318
    112          1           0       -7.371105   -5.614689    3.160262
    113          1           0       -6.564751   -5.348913    1.580703
    114          1           0       -8.390113   -3.340635    2.699663
    115          1           0       -9.860046   -4.648624    0.693915
    116          1           0      -10.143893   -4.661330    2.388765
    117          1           0       -9.113437   -5.904498    1.747495
    118          1           0       -8.122805   -3.619654   -0.259716
    119          1           0       -6.747655   -2.898713    0.440903
    120          1           0       -9.296001   -1.749315    1.501238
    121          1           0       -9.112036   -1.642017   -0.186534
    122          1           0       -6.775805   -0.984346    1.636819
    123          1           0       -8.071709    0.107797    1.610330
    124          1           0       -7.483243   -0.486801   -1.109053
    125          1           0       -4.906896   -0.018765    0.337553
    126          1           0       -5.157529    0.299370   -1.330280
    127          1           0       -5.397537   -1.321840   -0.782446
    128          1           0       -6.438007    2.185363   -0.316661
    129          1           0       -7.619841    1.873197    0.693223
    130          1           0       -9.041956    1.242453   -1.663994
    131          1           0       -7.743460    2.226179   -2.231568
    132          1           0       -8.560125    4.088575   -1.532440
    133          1           0       -8.598041    3.559883    0.094431
    134          1           0      -10.827917    2.338544   -0.649557
    135          1           0      -11.940351    2.765825   -2.507387
    136          1           0      -10.442350    3.721467   -3.070512
    137          1           0      -11.739699    4.474697   -2.210167
    138          1           0      -10.484811    5.175505    0.328248
    139          1           0      -10.790675    3.709161    1.139704
    140          1           0      -12.134635    4.457210    0.168325
 ---------------------------------------------------------------------

 SCF Done:  E(RwB97XD) =  -3007.87420779     A.U. after   17 cycles

 Excitation energies and oscillator strengths:

 Excited State   1:      Singlet-A      1.6468 eV  752.88 nm  f=0.3636  <S**2>=0.000
     245 -> 248        0.19242
     246 -> 247        0.68165
     245 <- 248        0.11935
 This state for optimization and/or second-order correction.
 Total Energy, E(TD-HF/TD-DFT) =  -3007.81368870
 Copying the excited state density for this state as the 1-particle RhoCI density.

 Excited State   2:      Singlet-A      2.1382 eV  579.85 nm  f=0.1020  <S**2>=0.000
     245 -> 247        0.63984
     246 -> 248       -0.28764

 Excited State   3:      Singlet-A      3.3365 eV  371.60 nm  f=0.0026  <S**2>=0.000
     243 -> 247       -0.18864
     244 -> 247        0.63177
     246 -> 248        0.10196

 Excited State   4:      Singlet-A      3.3974 eV  364.94 nm  f=0.0005  <S**2>=0.000
     240 -> 247        0.43039
     240 -> 249       -0.31115
     240 -> 250        0.16524
     241 -> 247       -0.29566
     241 -> 249        0.15685
     242 -> 247        0.12817
     244 -> 247       -0.12668

 Excited State   5:      Singlet-A      3.4196 eV  362.57 nm  f=0.0014  <S**2>=0.000
     240 -> 247       -0.10638
     242 -> 247        0.52317
     242 -> 248        0.13406
     242 -> 249        0.25961
     242 -> 250        0.26823

 The electronic state is 1-A.
 Alpha  occ. eigenvalues --  -46.95715 -19.30555 -19.29491 -19.25606 -19.24420
 Alpha  occ. eigenvalues --  -19.23869 -19.22993 -14.47213 -14.46735 -14.44328
 Alpha  occ. eigenvalues --  -14.43828 -10.43763 -10.42218 -10.39167 -10.38534
 Alpha  occ. eigenvalues --  -10.35938 -10.35679 -10.35615 -10.35251 -10.35014
 Alpha  occ. eigenvalues --  -10.34718 -10.34531 -10.34214 -10.33126 -10.33115
 Alpha  occ. eigenvalues --  -10.32896 -10.32874 -10.32594 -10.32528 -10.32512
 Alpha  occ. eigenvalues --  -10.32491 -10.32321 -10.32252 -10.31454 -10.31368
 Alpha  occ. eigenvalues --  -10.30902 -10.30894 -10.30756 -10.30663 -10.30661
 Alpha  occ. eigenvalues --  -10.30620 -10.30557 -10.30381 -10.29944 -10.29925
 Alpha  occ. eigenvalues --  -10.29924 -10.29500 -10.29488 -10.29486 -10.29245
 Alpha  occ. eigenvalues --  -10.29217 -10.29088 -10.28978 -10.28725 -10.28706
 Alpha  occ. eigenvalues --  -10.28570 -10.28232 -10.28156 -10.28126 -10.28089
 Alpha  occ. eigenvalues --  -10.28016 -10.27986 -10.27852 -10.27819 -10.27780
 Alpha  occ. eigenvalues --  -10.27692  -3.21651  -1.95218  -1.94763  -1.94625
 Alpha  occ. eigenvalues --   -1.18444  -1.17445  -1.10672  -1.10537  -1.09922
 Alpha  occ. eigenvalues --   -1.09130  -1.06986  -1.06007  -1.05278  -1.04293
 Alpha  occ. eigenvalues --   -0.95124  -0.92251  -0.91436  -0.91339  -0.91054
 Alpha  occ. eigenvalues --   -0.90716  -0.90322  -0.89617  -0.89085  -0.88967
 Alpha  occ. eigenvalues --   -0.88267  -0.87654  -0.86442  -0.86322  -0.85592
 Alpha  occ. eigenvalues --   -0.84476  -0.84178  -0.83024  -0.82714  -0.82247
 Alpha  occ. eigenvalues --   -0.81548  -0.80202  -0.79755  -0.79571  -0.78180
 Alpha  occ. eigenvalues --   -0.77583  -0.77394  -0.77223  -0.76607  -0.75653
 Alpha  occ. eigenvalues --   -0.75507  -0.75127  -0.74220  -0.73009  -0.71521
 Alpha  occ. eigenvalues --   -0.71123  -0.69687  -0.69417  -0.68215  -0.67837
 Alpha  occ. eigenvalues --   -0.67277  -0.67050  -0.66883  -0.66796  -0.65980
 Alpha  occ. eigenvalues --   -0.65109  -0.64841  -0.64217  -0.63941  -0.62468
 Alpha  occ. eigenvalues --   -0.61695  -0.61341  -0.61204  -0.60526  -0.60129
 Alpha  occ. eigenvalues --   -0.58971  -0.58594  -0.58407  -0.58035  -0.57561
 Alpha  occ. eigenvalues --   -0.57190  -0.57166  -0.56800  -0.55977  -0.55846
 Alpha  occ. eigenvalues --   -0.55462  -0.55234  -0.55202  -0.54778  -0.54615
 Alpha  occ. eigenvalues --   -0.54567  -0.54265  -0.53863  -0.53577  -0.53489
 Alpha  occ. eigenvalues --   -0.53182  -0.53137  -0.53035  -0.52618  -0.52391
 Alpha  occ. eigenvalues --   -0.52242  -0.51931  -0.51750  -0.51532  -0.51159
 Alpha  occ. eigenvalues --   -0.51068  -0.51042  -0.50765  -0.50572  -0.50458
 Alpha  occ. eigenvalues --   -0.50337  -0.50214  -0.50016  -0.49887  -0.49708
 Alpha  occ. eigenvalues --   -0.49387  -0.49051  -0.48829  -0.48741  -0.48584
 Alpha  occ. eigenvalues --   -0.48518  -0.47944  -0.47826  -0.47686  -0.47560
 Alpha  occ. eigenvalues --   -0.47472  -0.47380  -0.47277  -0.47122  -0.46913
 Alpha  occ. eigenvalues --   -0.46760  -0.46524  -0.46162  -0.46147  -0.45844
 Alpha  occ. eigenvalues --   -0.45634  -0.45572  -0.45355  -0.44901  -0.44786
 Alpha  occ. eigenvalues --   -0.44686  -0.44386  -0.44293  -0.44215  -0.44130
 Alpha  occ. eigenvalues --   -0.44041  -0.43508  -0.43209  -0.43065  -0.42906
 Alpha  occ. eigenvalues --   -0.42802  -0.42535  -0.42388  -0.42077  -0.41903
 Alpha  occ. eigenvalues --   -0.41817  -0.41520  -0.41313  -0.40788  -0.40752
 Alpha  occ. eigenvalues --   -0.40332  -0.40210  -0.39897  -0.39599  -0.39191
 Alpha  occ. eigenvalues --   -0.38979  -0.38863  -0.38805  -0.38450  -0.38057
 Alpha  occ. eigenvalues --   -0.37537  -0.37481  -0.37127  -0.36685  -0.36509
 Alpha  occ. eigenvalues --   -0.35868  -0.35755  -0.35691  -0.33425  -0.32785
 Alpha  occ. eigenvalues --   -0.32442  -0.32235  -0.32035  -0.31994  -0.26159
 Alpha  occ. eigenvalues --   -0.23337
 Alpha virt. eigenvalues --   -0.07407  -0.00268   0.02139   0.04217   0.04533
 Alpha virt. eigenvalues --    0.06837   0.07089   0.07870   0.08327   0.09455
 Alpha virt. eigenvalues --    0.10497   0.11389   0.12104   0.12316   0.12710

 Mulliken charges:
               1
     1  Mg   0.962222
     2  C    0.001577
     3  C   -0.061853
     4  C   -0.069333
     5  C   -0.121435
     6  N   -0.386395
     7  C   -0.000543
     8  C   -0.043500
     9  C   -0.051565
    10  C    0.096314
    11  C    0.023452
    12  C   -0.006765
    13  C    0.016513
    14  C    0.189895
    15  O   -0.263328
    16  O   -0.379458
    17  N   -0.484793
    18  C    0.088929
    19  C   -0.129857
    20  C   -0.041498
    21  C    0.208435
    22  C    0.063907
    23  C    0.009124
    24  O   -0.256987
    25  C    0.018817
    26  N   -0.327585
    27  C    0.011574
    28  C   -0.098179
    29  C   -0.078739
    30  C    0.050192
    31  C    0.019262
    32  C   -0.001693
    33  C   -0.060628
    34  N   -0.414235
    35  C    0.177959
    36  C   -0.205040
    37  C    0.052469
    38  C    0.099781
    39  C    0.076360
    40  C    0.094441
    41  O   -0.244303
    42  C   -0.075149
    43  C    0.252938
    44  O   -0.244104
    45  O   -0.372444
    46  C    0.147057
    47  C    0.235597
    48  C   -0.131042
    49  C   -0.155867
    50  C    0.043911
    51  C    0.024550
    52  C   -0.045334
    53  C    0.039154
    54  C   -0.211487
    55  C    0.004101
    56  C    0.034614
    57  C   -0.023404
    58  C    0.042817
    59  C   -0.160520
    60  C   -0.005956
    61  C    0.007068
    62  C   -0.004805
    63  C   -0.008417
    64  C   -0.209105
    65  C    0.010273
    66  C   -0.009664
    67  H   -0.002668
    68  H   -0.054723
    69  H   -0.000408
    70  H    0.028242
    71  H    0.052839
    72  H    0.043300
    73  H    0.036713
    74  H    0.040667
    75  H    0.057030
    76  H    0.030485
    77  H    0.096937
    78  H    0.061115
    79  H    0.064980
    80  H    0.041277
    81  H    0.050285
    82  H    0.056543
    83  H    0.052225
    84  H    0.058543
    85  H    0.055773
    86  H    0.037129
    87  H    0.036923
    88  H    0.045072
    89  H    0.035513
    90  H    0.050991
    91  H    0.027647
    92  H    0.028744
    93  H    0.031477
    94  H    0.035363
    95  H    0.044374
    96  H    0.038939
    97  H    0.064082
    98  H    0.066504
    99  H    0.052284
   100  H    0.056678
   101  H    0.043633
   102  H    0.057465
   103  H    0.038179
   104  H    0.028110
   105  H    0.054805
   106  H    0.041413
   107  H    0.034594
   108  H    0.023866
   109  H    0.017184
   110  H    0.005524
   111  H    0.011338
   112  H    0.027799
   113  H    0.016917
   114  H    0.018719
   115  H    0.020853
   116  H    0.022934
   117  H    0.025314
   118  H    0.010919
   119  H    0.006157
   120  H    0.013860
   121  H    0.014654
   122  H   -0.017766
   123  H    0.004302
   124  H    0.013899
   125  H    0.014376
   126  H    0.024512
   127  H    0.027684
   128  H    0.004973
   129  H   -0.002139
   130  H    0.023045
   131  H    0.019109
   132  H    0.014243
   133  H    0.006887
   134  H    0.017734
   135  H    0.039445
   136  H    0.031267
   137  H    0.013323
   138  H    0.028646
   139  H    0.027807
   140  H    0.035246
 Sum of Mulliken charges =  -0.00000

 Dipole moment (field-independent basis, Debye):
    X=              1.5094    Y=              3.0860    Z=              2.0978  Tot=              4.0252
 Quadrupole moment (field-independent basis, Debye-Ang):
   XX=           -378.6581   YY=           -435.6138   ZZ=           -374.6571
   XY=             35.3766   XZ=            -12.2480   YZ=             29.3278

 Normal termination of Gaussian 16 at Wed May  4 11:26:28 2022.
