 Gaussian 16, Revision A.03,
 Gaussian 16:  ES64L-G16RevA.03 25-Dec-2016

 --------------------
 #p ZINDO=(nstates=5)
 --------------------

 -----------------------------
 step_1651_chromophore_2 ZINDO
 -----------------------------
 Symbolic Z-matrix:
 Charge =  0 Multiplicity = 1

                         Standard orientation:
 ---------------------------------------------------------------------
 Center     Atomic      Atomic             Coordinates (Angstroms)
 Number     Number       Type             X           Y           Z
 ---------------------------------------------------------------------
      1         12           0        3.887552    1.395971   -0.324532
      2          6           0        4.340157   -2.037729   -0.751052
      3          6           0        2.085415    1.487504   -3.219728
      4          6           0        2.638484    4.327749    0.682407
      5          6           0        5.368623    0.981369    2.901447
      6          7           0        3.173376   -0.124352   -1.775736
      7          6           0        3.611214   -1.433783   -1.834870
      8          6           0        2.980701   -2.141040   -3.059223
      9          6           0        2.641745   -0.956905   -4.023932
     10          6           0        2.616611    0.207238   -3.027686
     11          6           0        3.597567   -0.756329   -5.282459
     12          6           0        1.813308   -3.158716   -2.733747
     13          6           0        1.019507   -2.950579   -1.460865
     14          6           0       -0.415492   -2.589631   -1.560643
     15          8           0       -0.875874   -1.697409   -2.236893
     16          8           0       -1.142764   -3.232649   -0.563577
     17          7           0        2.731236    2.857864   -1.168901
     18          6           0        2.084247    2.695683   -2.386165
     19          6           0        1.425834    3.921801   -2.765231
     20          6           0        1.476554    4.704300   -1.580459
     21          6           0        2.277187    4.019339   -0.618157
     22          6           0        0.934079    4.255723   -4.129236
     23          6           0        0.855252    6.055704   -1.401537
     24          8           0        0.133115    6.546703   -2.288638
     25          6           0        0.934647    6.856919   -0.119475
     26          7           0        3.923267    2.464733    1.583284
     27          6           0        3.392135    3.685343    1.671276
     28          6           0        3.509117    4.271778    3.077997
     29          6           0        4.501578    3.247675    3.781352
     30          6           0        4.629859    2.120552    2.708948
     31          6           0        4.095168    5.696192    3.161710
     32          6           0        3.923035    2.641259    5.123130
     33          6           0        4.763756    2.769270    6.384132
     34          7           0        4.700262   -0.131724    0.887697
     35          6           0        5.399163   -0.085056    2.075096
     36          6           0        6.010066   -1.359528    2.284837
     37          6           0        5.512273   -2.217747    1.333139
     38          6           0        4.819196   -1.403279    0.468400
     39          6           0        6.986511   -1.737957    3.392719
     40          6           0        5.458251   -3.522904    0.817938
     41          8           0        5.996444   -4.527804    1.358179
     42          6           0        4.646522   -3.473148   -0.582662
     43          6           0        5.486062   -4.175417   -1.628700
     44          8           0        5.012390   -5.043948   -2.335355
     45          8           0        6.775746   -3.651371   -1.768615
     46          6           0        7.538894   -4.291128   -2.825688
     47          6           0       -2.499193   -2.599215   -0.354259
     48          6           0       -3.256451   -3.470377    0.656127
     49          6           0       -3.785314   -3.084118    1.822608
     50          6           0       -3.752897   -1.666504    2.418411
     51          6           0       -4.449311   -4.191237    2.691942
     52          6           0       -5.887102   -3.991539    3.147470
     53          6           0       -6.987374   -4.870068    2.464328
     54          6           0       -8.094635   -3.975328    1.863111
     55          6           0       -9.367808   -4.849998    1.645910
     56          6           0       -7.794013   -3.120859    0.651455
     57          6           0       -8.528930   -1.760209    0.726439
     58          6           0       -7.608218   -0.672649    1.005796
     59          6           0       -7.006651    0.044578   -0.284406
     60          6           0       -5.555166   -0.281495   -0.497859
     61          6           0       -7.329096    1.558028   -0.308859
     62          6           0       -8.324515    1.996248   -1.338440
     63          6           0       -8.997741    3.323134   -0.890994
     64          6           0      -10.528767    3.354181   -0.906406
     65          6           0      -11.195310    3.535265   -2.305033
     66          6           0      -11.065083    4.256794    0.238639
     67          1           0        1.419489    1.698733   -4.058784
     68          1           0        2.324070    5.295238    1.081057
     69          1           0        5.978360    0.956083    3.807477
     70          1           0        3.713753   -2.855102   -3.435749
     71          1           0        1.619150   -1.021081   -4.396961
     72          1           0        4.484101   -1.389236   -5.267324
     73          1           0        3.896860    0.288627   -5.369660
     74          1           0        3.080980   -0.968197   -6.218363
     75          1           0        2.159014   -4.178165   -2.899804
     76          1           0        1.073253   -2.992120   -3.516466
     77          1           0        1.381796   -2.067363   -0.934505
     78          1           0        1.051972   -3.944117   -1.014858
     79          1           0        0.316069    5.147718   -4.229354
     80          1           0        0.271184    3.491019   -4.535156
     81          1           0        1.782739    4.297432   -4.811714
     82          1           0        1.983528    6.953113    0.159167
     83          1           0        0.508876    6.239711    0.671646
     84          1           0        0.318681    7.755218   -0.170746
     85          1           0        2.498554    4.247176    3.487790
     86          1           0        5.517158    3.612207    3.936474
     87          1           0        4.280684    5.978560    2.125151
     88          1           0        5.010587    5.789567    3.745230
     89          1           0        3.380948    6.415445    3.562245
     90          1           0        3.745176    1.567140    5.070992
     91          1           0        3.003831    3.224506    5.158598
     92          1           0        4.627136    1.833746    6.926477
     93          1           0        4.426764    3.481674    7.136318
     94          1           0        5.829720    2.963677    6.271657
     95          1           0        6.432117   -1.667627    4.328645
     96          1           0        7.847659   -1.081354    3.517404
     97          1           0        7.368663   -2.744007    3.221545
     98          1           0        3.739959   -4.077935   -0.561932
     99          1           0        7.516269   -5.375136   -2.721090
    100          1           0        8.592474   -4.016764   -2.782797
    101          1           0        7.103721   -4.057828   -3.797313
    102          1           0       -3.167037   -2.554055   -1.214054
    103          1           0       -2.355927   -1.552671   -0.086808
    104          1           0       -3.553295   -4.463678    0.317192
    105          1           0       -4.739283   -1.235866    2.590209
    106          1           0       -3.105543   -1.006418    1.839948
    107          1           0       -3.325715   -1.854092    3.404165
    108          1           0       -4.022975   -4.312564    3.687276
    109          1           0       -4.310512   -5.179562    2.253315
    110          1           0       -6.184198   -2.942822    3.108094
    111          1           0       -5.846358   -4.184316    4.219318
    112          1           0       -7.371105   -5.614689    3.160262
    113          1           0       -6.564751   -5.348913    1.580703
    114          1           0       -8.390113   -3.340635    2.699663
    115          1           0       -9.860046   -4.648624    0.693915
    116          1           0      -10.143893   -4.661330    2.388765
    117          1           0       -9.113437   -5.904498    1.747495
    118          1           0       -8.122805   -3.619654   -0.259716
    119          1           0       -6.747655   -2.898713    0.440903
    120          1           0       -9.296001   -1.749315    1.501238
    121          1           0       -9.112036   -1.642017   -0.186534
    122          1           0       -6.775805   -0.984346    1.636819
    123          1           0       -8.071709    0.107797    1.610330
    124          1           0       -7.483243   -0.486801   -1.109053
    125          1           0       -4.906896   -0.018765    0.337553
    126          1           0       -5.157529    0.299370   -1.330280
    127          1           0       -5.397537   -1.321840   -0.782446
    128          1           0       -6.438007    2.185363   -0.316661
    129          1           0       -7.619841    1.873197    0.693223
    130          1           0       -9.041956    1.242453   -1.663994
    131          1           0       -7.743460    2.226179   -2.231568
    132          1           0       -8.560125    4.088575   -1.532440
    133          1           0       -8.598041    3.559883    0.094431
    134          1           0      -10.827917    2.338544   -0.649557
    135          1           0      -11.940351    2.765825   -2.507387
    136          1           0      -10.442350    3.721467   -3.070512
    137          1           0      -11.739699    4.474697   -2.210167
    138          1           0      -10.484811    5.175505    0.328248
    139          1           0      -10.790675    3.709161    1.139704
    140          1           0      -12.134635    4.457210    0.168325
 ---------------------------------------------------------------------

 SCF Done:  E(RZINDO/S) =  -474.392818276     A.U. after   19 cycles

 Excitation energies and oscillator strengths:

 Excited State   1:      Singlet-A      1.2370 eV 1002.32 nm  f=0.6005  <S**2>=0.000
     175 ->178        -0.19458
     176 ->177         0.66181
 This state for optimization and/or second-order correction.
 Total Energy, E(CIS/TDA) =  -474.347360237
 Copying the excited state density for this state as the 1-particle RhoCI density.

 Excited State   2:      Singlet-A      1.9049 eV  650.85 nm  f=0.0427  <S**2>=0.000
     175 ->177         0.55049
     176 ->178         0.41965

 Excited State   3:      Singlet-A      2.8454 eV  435.74 nm  f=0.0010  <S**2>=0.000
     169 ->177         0.26472
     169 ->178        -0.13505
     169 ->179        -0.25489
     169 ->181        -0.33340
     169 ->185        -0.18003
     169 ->187         0.13870
     170 ->177        -0.17980
     170 ->179         0.15149
     170 ->181         0.21645
     170 ->185         0.10951

 Excited State   4:      Singlet-A      2.9211 eV  424.45 nm  f=0.0021  <S**2>=0.000
     169 ->177         0.17697
     169 ->179         0.22903
     169 ->181        -0.14604
     170 ->177         0.27088
     170 ->179         0.37320
     170 ->181        -0.20918
     170 ->185         0.16381
     172 ->177         0.10291

 Excited State   5:      Singlet-A      2.9687 eV  417.64 nm  f=0.6537  <S**2>=0.000
     175 ->177        -0.32096
     176 ->178         0.43118
     176 ->179        -0.38771

 The electronic state is 1-A.
 Alpha  occ. eigenvalues --   -1.86238  -1.82240  -1.79174  -1.73076  -1.71836
 Alpha  occ. eigenvalues --   -1.70194  -1.67142  -1.60711  -1.58310  -1.57246
 Alpha  occ. eigenvalues --   -1.54436  -1.51369  -1.48536  -1.47225  -1.46849
 Alpha  occ. eigenvalues --   -1.45975  -1.42495  -1.42020  -1.39747  -1.38457
 Alpha  occ. eigenvalues --   -1.35887  -1.33409  -1.32726  -1.31181  -1.29453
 Alpha  occ. eigenvalues --   -1.29081  -1.28202  -1.23696  -1.20643  -1.17887
 Alpha  occ. eigenvalues --   -1.16512  -1.16295  -1.14573  -1.14043  -1.13675
 Alpha  occ. eigenvalues --   -1.12977  -1.10391  -1.08981  -1.06238  -1.05221
 Alpha  occ. eigenvalues --   -1.04003  -1.02438  -1.00171  -0.97810  -0.97006
 Alpha  occ. eigenvalues --   -0.96795  -0.94783  -0.94234  -0.92549  -0.91749
 Alpha  occ. eigenvalues --   -0.91471  -0.90588  -0.88645  -0.88015  -0.86670
 Alpha  occ. eigenvalues --   -0.85709  -0.83945  -0.83474  -0.82347  -0.80693
 Alpha  occ. eigenvalues --   -0.79670  -0.78810  -0.77636  -0.77148  -0.76238
 Alpha  occ. eigenvalues --   -0.75786  -0.75458  -0.75256  -0.74138  -0.73519
 Alpha  occ. eigenvalues --   -0.72629  -0.72396  -0.71712  -0.70964  -0.70673
 Alpha  occ. eigenvalues --   -0.70435  -0.69258  -0.68562  -0.68356  -0.67676
 Alpha  occ. eigenvalues --   -0.67298  -0.66779  -0.66165  -0.65676  -0.65551
 Alpha  occ. eigenvalues --   -0.65054  -0.64174  -0.63993  -0.63415  -0.63215
 Alpha  occ. eigenvalues --   -0.62909  -0.62563  -0.62291  -0.62086  -0.61825
 Alpha  occ. eigenvalues --   -0.61773  -0.61569  -0.61165  -0.60838  -0.60173
 Alpha  occ. eigenvalues --   -0.59156  -0.58888  -0.58429  -0.58344  -0.58258
 Alpha  occ. eigenvalues --   -0.57906  -0.57297  -0.56938  -0.56746  -0.56513
 Alpha  occ. eigenvalues --   -0.56446  -0.56001  -0.55507  -0.55336  -0.54953
 Alpha  occ. eigenvalues --   -0.54311  -0.53963  -0.53452  -0.53090  -0.52959
 Alpha  occ. eigenvalues --   -0.52732  -0.52529  -0.52395  -0.51813  -0.51698
 Alpha  occ. eigenvalues --   -0.51158  -0.50873  -0.50733  -0.50447  -0.50123
 Alpha  occ. eigenvalues --   -0.49773  -0.49694  -0.49471  -0.49171  -0.49036
 Alpha  occ. eigenvalues --   -0.48585  -0.48443  -0.48216  -0.47727  -0.47187
 Alpha  occ. eigenvalues --   -0.47117  -0.46880  -0.46716  -0.46571  -0.46542
 Alpha  occ. eigenvalues --   -0.46327  -0.45763  -0.45574  -0.45104  -0.45011
 Alpha  occ. eigenvalues --   -0.44897  -0.44590  -0.44164  -0.43981  -0.43906
 Alpha  occ. eigenvalues --   -0.43322  -0.43170  -0.42848  -0.42830  -0.42363
 Alpha  occ. eigenvalues --   -0.42263  -0.42112  -0.40946  -0.39460  -0.38764
 Alpha  occ. eigenvalues --   -0.38721  -0.37620  -0.35373  -0.35138  -0.35011
 Alpha  occ. eigenvalues --   -0.33396  -0.32926  -0.32645  -0.32499  -0.26949
 Alpha  occ. eigenvalues --   -0.22083
 Alpha virt. eigenvalues --   -0.08902  -0.02474  -0.00883   0.00740   0.01044
 Alpha virt. eigenvalues --    0.02104   0.02214   0.02487   0.04440   0.05047
 Alpha virt. eigenvalues --    0.05739   0.06878   0.07232   0.07694   0.07953

 Mulliken charges:
               1
     1  Mg   0.434721
     2  C   -0.073264
     3  C   -0.085592
     4  C   -0.077575
     5  C   -0.037551
     6  N   -0.306691
     7  C    0.119672
     8  C    0.007725
     9  C    0.016904
    10  C    0.146429
    11  C   -0.048246
    12  C   -0.025554
    13  C    0.007247
    14  C    0.468734
    15  O   -0.522807
    16  O   -0.277189
    17  N   -0.327510
    18  C    0.121581
    19  C    0.054271
    20  C   -0.036202
    21  C    0.132135
    22  C   -0.030637
    23  C    0.317218
    24  O   -0.537838
    25  C   -0.028211
    26  N   -0.261257
    27  C    0.139007
    28  C    0.005029
    29  C   -0.011123
    30  C    0.094188
    31  C   -0.054190
    32  C   -0.033330
    33  C   -0.059290
    34  N   -0.336395
    35  C    0.091044
    36  C    0.041162
    37  C   -0.040779
    38  C    0.122390
    39  C   -0.043556
    40  C    0.321080
    41  O   -0.539939
    42  C    0.060852
    43  C    0.482912
    44  O   -0.516292
    45  O   -0.264641
    46  C    0.078388
    47  C    0.100472
    48  C   -0.086835
    49  C   -0.007342
    50  C   -0.045036
    51  C   -0.028235
    52  C   -0.037849
    53  C   -0.033540
    54  C   -0.006098
    55  C   -0.063911
    56  C   -0.024191
    57  C   -0.024131
    58  C   -0.029133
    59  C   -0.014320
    60  C   -0.052495
    61  C   -0.028169
    62  C   -0.030591
    63  C   -0.033456
    64  C   -0.012136
    65  C   -0.060090
    66  C   -0.056293
    67  H    0.028060
    68  H    0.017814
    69  H    0.025222
    70  H    0.029518
    71  H    0.039398
    72  H    0.027919
    73  H    0.022663
    74  H    0.021554
    75  H    0.037367
    76  H    0.021303
    77  H    0.068204
    78  H    0.041158
    79  H    0.044437
    80  H    0.025650
    81  H    0.032097
    82  H    0.038295
    83  H    0.030930
    84  H    0.045706
    85  H    0.041313
    86  H    0.037901
    87  H    0.020207
    88  H    0.026751
    89  H    0.017202
    90  H    0.031040
    91  H    0.024368
    92  H    0.012295
    93  H    0.016350
    94  H    0.024095
    95  H    0.028312
    96  H    0.026034
    97  H    0.036923
    98  H    0.057906
    99  H    0.043800
   100  H    0.032936
   101  H    0.038569
   102  H    0.050167
   103  H    0.047852
   104  H    0.035499
   105  H    0.037478
   106  H    0.028813
   107  H    0.022182
   108  H    0.021411
   109  H    0.021266
   110  H    0.019776
   111  H    0.009728
   112  H    0.027617
   113  H    0.018427
   114  H    0.012683
   115  H    0.017439
   116  H    0.012780
   117  H    0.018444
   118  H    0.012525
   119  H    0.020758
   120  H    0.011278
   121  H    0.015478
   122  H    0.015273
   123  H    0.007158
   124  H    0.017065
   125  H    0.016724
   126  H    0.009524
   127  H    0.016116
   128  H    0.016864
   129  H    0.011872
   130  H    0.025760
   131  H    0.011932
   132  H    0.013771
   133  H    0.017000
   134  H    0.009221
   135  H    0.028232
   136  H    0.026675
   137  H    0.010780
   138  H    0.019349
   139  H    0.013990
   140  H    0.024137
 Sum of Mulliken charges =  -0.00000

 Dipole moment (field-independent basis, Debye):
    X=              1.7088    Y=              4.8692    Z=              2.7065  Tot=              5.8270
 N-N= 4.550882142736D+03 E-N= 0.000000000000D+00  KE=-9.776106897128D+03
 Leave Link  601 at Wed May  4 11:39:56 2022, MaxMem=  6710886400 cpu:               0.8 elap:               0.1
 (Enter /sw/apps/gaussian-16.0/g16/l9999.exe)
 1\1\GINC-BP1-COMPUTE062\SP\RZINDO CIS\STO-3G\C55H74Mg1N4O6\OF15641\04-
 May-2022\0\\#p ZINDO=(nstates=5)\\step_1651_chromophore_2 ZINDO\\0,1\M
 g,0,3.046,0.322,44.136\C,0,6.43,1.073,43.734\C,0,2.249,3.424,42.961\C,
 0,-0.039,-0.821,43.548\C,0,4.086,-3.019,44.863\N,0,4.199,2.031,43.313\
 C,0,5.571,2.176,43.393\C,0,5.985,3.555,42.824\C,0,4.688,4.415,42.985\C
 ,0,3.637,3.305,43.093\C,0,4.674,5.484,44.166\C,0,6.656,3.529,41.391\C,
 0,6.325,2.374,40.469\C,0,5.571,2.645,39.221\O,0,4.54,3.274,39.139\O,0,

 Normal termination of Gaussian 16 at Wed May  4 11:39:56 2022.
