 Gaussian 16, Revision A.03,
 Gaussian 16:  ES64L-G16RevA.03 25-Dec-2016

 ------------------------------
 #p blyp/Def2SVP td=(nstates=5)
 ------------------------------

 ------------------------------------------------
 step_1_chromophore_19 TDDFT with blyp functional
 ------------------------------------------------
 Symbolic Z-matrix:
 Charge =  0 Multiplicity = 1

                         Standard orientation:
 ---------------------------------------------------------------------
 Center     Atomic      Atomic             Coordinates (Angstroms)
 Number     Number       Type             X           Y           Z
 ---------------------------------------------------------------------
      1         12           0       -5.741834    0.461631   -0.159544
      2          6           0       -3.625530   -2.232099   -0.134337
      3          6           0       -3.154386    2.517824    0.366339
      4          6           0       -7.977496    2.977133    0.033380
      5          6           0       -8.540246   -1.859158   -0.205377
      6          7           0       -3.617081    0.105727    0.360686
      7          6           0       -2.946020   -1.041330    0.201010
      8          6           0       -1.362884   -0.809885    0.415036
      9          6           0       -1.336397    0.757962    0.556934
     10          6           0       -2.811183    1.199034    0.466074
     11          6           0       -0.567491    1.254949    1.796586
     12          6           0       -0.486655   -1.344746   -0.753064
     13          6           0        1.000674   -0.870508   -0.841748
     14          6           0        2.119442   -1.879354   -0.379277
     15          8           0        1.933934   -2.954964    0.192434
     16          8           0        3.385106   -1.298903   -0.615764
     17          7           0       -5.585740    2.485299    0.208375
     18          6           0       -4.456394    3.156796    0.295774
     19          6           0       -4.766775    4.572058    0.429507
     20          6           0       -6.181565    4.759777    0.449544
     21          6           0       -6.646688    3.374358    0.219247
     22          6           0       -3.755652    5.676396    0.689734
     23          6           0       -7.016864    6.013144    0.689180
     24          8           0       -8.211831    5.935603    0.959496
     25          6           0       -6.354886    7.343143    0.594204
     26          7           0       -7.957071    0.532463   -0.049746
     27          6           0       -8.610968    1.687717   -0.024770
     28          6           0      -10.126520    1.497953   -0.202518
     29          6           0      -10.196089   -0.001603   -0.479283
     30          6           0       -8.816789   -0.464989   -0.191986
     31          6           0      -11.051378    1.983512    0.923506
     32          6           0      -10.848705   -0.356628   -1.791305
     33          6           0      -12.180798   -1.183438   -1.702181
     34          7           0       -6.053046   -1.558027   -0.220133
     35          6           0       -7.226383   -2.378531   -0.320328
     36          6           0       -6.876776   -3.770632   -0.498893
     37          6           0       -5.457058   -3.699295   -0.441327
     38          6           0       -5.035563   -2.375255   -0.265722
     39          6           0       -7.703133   -4.962445   -0.832087
     40          6           0       -4.320411   -4.548148   -0.695095
     41          8           0       -4.181476   -5.700498   -1.131719
     42          6           0       -3.084472   -3.736208   -0.398336
     43          6           0       -2.471043   -4.248226    0.923567
     44          8           0       -3.068397   -4.555938    1.966404
     45          8           0       -1.119193   -4.300969    0.755447
     46          6           0       -0.294490   -4.807169    1.898063
     47          6           0        4.377949   -2.215824   -0.118890
     48          6           0        5.835527   -1.822235   -0.496116
     49          6           0        6.640713   -0.966232    0.210766
     50          6           0        6.241511   -0.132570    1.353983
     51          6           0        7.972582   -0.687014   -0.451011
     52          6           0        7.805417    0.364645   -1.603224
     53          6           0        8.438075    1.819153   -1.275140
     54          6           0        9.620870    2.260727   -2.206805
     55          6           0        8.980077    3.117729   -3.378669
     56          6           0       10.477184    1.053627   -2.732913
     57          6           0       12.009805    1.267707   -2.969162
     58          6           0       13.076972    0.314972   -2.208836
     59          6           0       13.779222    0.932335   -0.910538
     60          6           0       15.310701    0.995274   -0.960675
     61          6           0       13.232407    0.282732    0.386766
     62          6           0       11.779222    0.733537    0.682568
     63          6           0       11.430271    0.989069    2.175438
     64          6           0       11.776689   -0.208715    3.144236
     65          6           0       10.837557   -1.398599    3.076031
     66          6           0       11.888325    0.300581    4.576288
     67          1           0       -2.393247    3.299463    0.413085
     68          1           0       -8.766612    3.689400    0.283246
     69          1           0       -9.423916   -2.482266   -0.354346
     70          1           0       -1.157267   -1.300259    1.365847
     71          1           0       -0.858943    1.158315   -0.337384
     72          1           0        0.035958    2.102836    1.474324
     73          1           0        0.126406    0.503979    2.174434
     74          1           0       -1.255436    1.550946    2.588650
     75          1           0       -0.913418   -0.899395   -1.651736
     76          1           0       -0.463790   -2.434254   -0.732549
     77          1           0        1.113454   -0.055519   -0.126045
     78          1           0        1.223005   -0.613495   -1.876846
     79          1           0       -2.739707    5.283734    0.731242
     80          1           0       -3.978561    6.158627    1.641193
     81          1           0       -3.790510    6.447965   -0.078352
     82          1           0       -5.806819    7.320462   -0.348130
     83          1           0       -5.649199    7.710127    1.338855
     84          1           0       -7.066036    8.168271    0.575002
     85          1           0      -10.422612    2.044030   -1.097540
     86          1           0      -10.842203   -0.438455    0.281954
     87          1           0      -11.903558    2.411773    0.396370
     88          1           0      -10.522883    2.668549    1.586307
     89          1           0      -11.342517    1.208430    1.632370
     90          1           0      -10.132344   -1.032076   -2.257874
     91          1           0      -11.073728    0.507497   -2.415742
     92          1           0      -12.416562   -1.398584   -0.659617
     93          1           0      -12.005721   -2.131372   -2.211900
     94          1           0      -13.034078   -0.754828   -2.228025
     95          1           0       -8.717479   -4.656301   -1.086614
     96          1           0       -7.803309   -5.509103    0.104877
     97          1           0       -7.181078   -5.437977   -1.663661
     98          1           0       -2.431683   -3.925192   -1.250750
     99          1           0       -0.544511   -4.387100    2.872604
    100          1           0        0.781359   -4.720129    1.749790
    101          1           0       -0.546753   -5.863612    1.988071
    102          1           0        4.204484   -3.217311   -0.513142
    103          1           0        4.242104   -2.336149    0.956140
    104          1           0        6.311911   -2.419634   -1.273354
    105          1           0        5.171952    0.074661    1.316787
    106          1           0        6.758048    0.791085    1.093653
    107          1           0        6.612080   -0.433464    2.333854
    108          1           0        8.425728   -1.579719   -0.881952
    109          1           0        8.724149   -0.300829    0.238509
    110          1           0        6.734401    0.501459   -1.753533
    111          1           0        8.137222   -0.131062   -2.515570
    112          1           0        8.847814    1.854678   -0.265870
    113          1           0        7.647577    2.568499   -1.309770
    114          1           0       10.285899    2.835716   -1.562159
    115          1           0        8.820122    4.120793   -2.983200
    116          1           0        7.981450    2.787455   -3.663486
    117          1           0        9.730463    3.086637   -4.168044
    118          1           0       10.143065    0.756417   -3.727225
    119          1           0       10.431318    0.206004   -2.048716
    120          1           0       12.314307    2.290218   -2.743808
    121          1           0       12.147154    1.200243   -4.048035
    122          1           0       13.824461   -0.142284   -2.857143
    123          1           0       12.565956   -0.539455   -1.765023
    124          1           0       13.476939    1.974091   -0.803166
    125          1           0       15.719605    0.276498   -0.249731
    126          1           0       15.599941    1.997214   -0.643670
    127          1           0       15.667301    0.825333   -1.976109
    128          1           0       13.903064    0.591942    1.188382
    129          1           0       13.279460   -0.798953    0.262407
    130          1           0       11.173181   -0.119687    0.378439
    131          1           0       11.494262    1.595593    0.079633
    132          1           0       10.361229    1.185582    2.244552
    133          1           0       11.994238    1.871577    2.476864
    134          1           0       12.798883   -0.549530    2.983519
    135          1           0        9.998077   -1.268652    3.758977
    136          1           0       11.432740   -2.286059    3.291977
    137          1           0       10.571007   -1.495719    2.023404
    138          1           0       11.405664   -0.493116    5.147128
    139          1           0       11.463377    1.301753    4.643519
    140          1           0       12.930057    0.513188    4.818828
 ---------------------------------------------------------------------

 SCF Done:  E(RB-LYP) =  -3007.38862520     A.U. after   21 cycles

 Excitation energies and oscillator strengths:

 Excited State   1:      Singlet-A      1.7264 eV  718.15 nm  f=0.0010  <S**2>=0.000
     244 -> 247        0.70579
 This state for optimization and/or second-order correction.
 Total Energy, E(TD-HF/TD-DFT) =  -3007.32518011
 Copying the excited state density for this state as the 1-particle RhoCI density.

 Excited State   2:      Singlet-A      1.8270 eV  678.61 nm  f=0.3056  <S**2>=0.000
     245 -> 248        0.18163
     245 -> 249        0.10820
     246 -> 247        0.68412
     246 <- 247       -0.14574

 Excited State   3:      Singlet-A      2.0291 eV  611.04 nm  f=0.0899  <S**2>=0.000
     245 -> 247        0.64994
     246 -> 248       -0.22487
     246 -> 249       -0.11778

 Excited State   4:      Singlet-A      2.2053 eV  562.21 nm  f=0.0011  <S**2>=0.000
     243 -> 247        0.70513

 Excited State   5:      Singlet-A      2.3790 eV  521.17 nm  f=0.0003  <S**2>=0.000
     242 -> 247        0.70707

 The electronic state is 1-A.
 Alpha  occ. eigenvalues --  -46.27506 -18.82662 -18.81749 -18.78482 -18.76048
 Alpha  occ. eigenvalues --  -18.75827 -18.74397 -14.03138 -14.02876 -14.01377
 Alpha  occ. eigenvalues --  -14.00759 -10.05019 -10.03466 -10.00660  -9.97915
 Alpha  occ. eigenvalues --   -9.97222  -9.96986  -9.96721  -9.96437  -9.95975
 Alpha  occ. eigenvalues --   -9.95886  -9.95768  -9.95675  -9.95642  -9.94421
 Alpha  occ. eigenvalues --   -9.94320  -9.94291  -9.93896  -9.93894  -9.93835
 Alpha  occ. eigenvalues --   -9.93440  -9.93264  -9.93251  -9.93039  -9.93013
 Alpha  occ. eigenvalues --   -9.92948  -9.92908  -9.92878  -9.92766  -9.92643
 Alpha  occ. eigenvalues --   -9.92589  -9.92499  -9.92480  -9.92348  -9.92343
 Alpha  occ. eigenvalues --   -9.92328  -9.92011  -9.92001  -9.91966  -9.91950
 Alpha  occ. eigenvalues --   -9.91939  -9.91927  -9.91849  -9.91833  -9.91758
 Alpha  occ. eigenvalues --   -9.91757  -9.91683  -9.91614  -9.91516  -9.91460
 Alpha  occ. eigenvalues --   -9.91454  -9.91298  -9.91231  -9.90846  -9.90591
 Alpha  occ. eigenvalues --   -9.90259  -2.92128  -1.72543  -1.72019  -1.71840
 Alpha  occ. eigenvalues --   -0.97912  -0.96267  -0.91740  -0.90614  -0.89442
 Alpha  occ. eigenvalues --   -0.87974  -0.87772  -0.86604  -0.86138  -0.85357
 Alpha  occ. eigenvalues --   -0.74078  -0.73664  -0.73094  -0.72966  -0.72456
 Alpha  occ. eigenvalues --   -0.71648  -0.71419  -0.70820  -0.70742  -0.70516
 Alpha  occ. eigenvalues --   -0.70258  -0.68666  -0.67294  -0.67032  -0.66790
 Alpha  occ. eigenvalues --   -0.65976  -0.65944  -0.65207  -0.64774  -0.64379
 Alpha  occ. eigenvalues --   -0.64030  -0.62716  -0.62309  -0.61789  -0.60575
 Alpha  occ. eigenvalues --   -0.60542  -0.60252  -0.59892  -0.59743  -0.59088
 Alpha  occ. eigenvalues --   -0.57876  -0.57379  -0.56665  -0.55332  -0.54663
 Alpha  occ. eigenvalues --   -0.53800  -0.53348  -0.52980  -0.52879  -0.52058
 Alpha  occ. eigenvalues --   -0.51614  -0.51419  -0.50555  -0.50003  -0.49408
 Alpha  occ. eigenvalues --   -0.48988  -0.48320  -0.48065  -0.47569  -0.46909
 Alpha  occ. eigenvalues --   -0.46100  -0.45979  -0.45392  -0.45192  -0.44570
 Alpha  occ. eigenvalues --   -0.43831  -0.43457  -0.43110  -0.42874  -0.42368
 Alpha  occ. eigenvalues --   -0.41923  -0.41618  -0.41394  -0.41277  -0.41049
 Alpha  occ. eigenvalues --   -0.40944  -0.40630  -0.40545  -0.40329  -0.39983
 Alpha  occ. eigenvalues --   -0.39903  -0.39722  -0.39628  -0.39268  -0.38977
 Alpha  occ. eigenvalues --   -0.38749  -0.38564  -0.38412  -0.38267  -0.38098
 Alpha  occ. eigenvalues --   -0.37937  -0.37861  -0.37744  -0.37518  -0.37476
 Alpha  occ. eigenvalues --   -0.37326  -0.37089  -0.36940  -0.36785  -0.36636
 Alpha  occ. eigenvalues --   -0.36271  -0.36198  -0.36062  -0.35839  -0.35598
 Alpha  occ. eigenvalues --   -0.35482  -0.34996  -0.34888  -0.34798  -0.34668
 Alpha  occ. eigenvalues --   -0.34575  -0.34313  -0.34173  -0.34067  -0.33699
 Alpha  occ. eigenvalues --   -0.33552  -0.33317  -0.33220  -0.33012  -0.32969
 Alpha  occ. eigenvalues --   -0.32709  -0.32595  -0.32498  -0.32292  -0.32247
 Alpha  occ. eigenvalues --   -0.32142  -0.32040  -0.31812  -0.31658  -0.31575
 Alpha  occ. eigenvalues --   -0.31355  -0.31266  -0.31134  -0.30788  -0.30523
 Alpha  occ. eigenvalues --   -0.30430  -0.30312  -0.30178  -0.29962  -0.29808
 Alpha  occ. eigenvalues --   -0.29733  -0.29502  -0.29182  -0.29112  -0.28813
 Alpha  occ. eigenvalues --   -0.28368  -0.28165  -0.28149  -0.27706  -0.27655
 Alpha  occ. eigenvalues --   -0.27253  -0.26978  -0.26937  -0.26514  -0.26463
 Alpha  occ. eigenvalues --   -0.26222  -0.26123  -0.25853  -0.25698  -0.25381
 Alpha  occ. eigenvalues --   -0.25271  -0.25142  -0.24971  -0.24265  -0.23814
 Alpha  occ. eigenvalues --   -0.23416  -0.23151  -0.22031  -0.21116  -0.20834
 Alpha  occ. eigenvalues --   -0.20224  -0.20068  -0.19332  -0.17564  -0.17055
 Alpha  occ. eigenvalues --   -0.15682
 Alpha virt. eigenvalues --   -0.11326  -0.06992  -0.05675  -0.04266  -0.03717
 Alpha virt. eigenvalues --   -0.03229  -0.02986  -0.01698  -0.00756  -0.00024
 Alpha virt. eigenvalues --    0.01310   0.01517   0.01705   0.02439   0.02534

 Mulliken charges:
               1
     1  Mg   0.698527
     2  C   -0.018619
     3  C   -0.051475
     4  C   -0.047494
     5  C   -0.069918
     6  N   -0.201305
     7  C   -0.117464
     8  C    0.063044
     9  C   -0.040937
    10  C    0.072101
    11  C    0.132393
    12  C    0.119134
    13  C    0.092219
    14  C    0.095690
    15  O   -0.189350
    16  O   -0.275802
    17  N   -0.263359
    18  C    0.079385
    19  C   -0.151126
    20  C    0.037495
    21  C    0.097265
    22  C    0.173478
    23  C   -0.036649
    24  O   -0.156530
    25  C    0.112012
    26  N   -0.135681
    27  C   -0.044008
    28  C   -0.010264
    29  C    0.050559
    30  C   -0.030226
    31  C    0.143244
    32  C    0.111662
    33  C    0.044052
    34  N   -0.272593
    35  C    0.121193
    36  C   -0.175758
    37  C    0.047775
    38  C    0.124095
    39  C    0.207699
    40  C   -0.063644
    41  O   -0.162958
    42  C    0.079457
    43  C    0.136685
    44  O   -0.200734
    45  O   -0.264159
    46  C    0.219306
    47  C    0.286655
    48  C   -0.078481
    49  C   -0.159298
    50  C    0.181465
    51  C    0.093852
    52  C    0.060340
    53  C    0.074009
    54  C   -0.066756
    55  C    0.105012
    56  C    0.083343
    57  C    0.067459
    58  C    0.111735
    59  C   -0.120811
    60  C    0.132762
    61  C    0.081086
    62  C    0.053830
    63  C    0.088675
    64  C   -0.137471
    65  C    0.129655
    66  C    0.126421
    67  H   -0.079277
    68  H   -0.030781
    69  H   -0.057934
    70  H   -0.015200
    71  H   -0.021052
    72  H   -0.012004
    73  H   -0.004786
    74  H    0.001283
    75  H   -0.033814
    76  H    0.023284
    77  H    0.005844
    78  H    0.010468
    79  H   -0.021574
    80  H    0.004615
    81  H   -0.006888
    82  H    0.002068
    83  H    0.012008
    84  H   -0.010576
    85  H   -0.022446
    86  H   -0.036120
    87  H    0.000102
    88  H   -0.001907
    89  H   -0.017419
    90  H   -0.024874
    91  H   -0.017076
    92  H   -0.008935
    93  H   -0.010613
    94  H   -0.005104
    95  H   -0.028438
    96  H    0.013958
    97  H    0.032554
    98  H   -0.002268
    99  H    0.008452
   100  H    0.032759
   101  H    0.005559
   102  H   -0.014121
   103  H   -0.017443
   104  H   -0.035708
   105  H   -0.000943
   106  H   -0.018162
   107  H    0.014197
   108  H   -0.024962
   109  H   -0.023357
   110  H   -0.021739
   111  H   -0.017255
   112  H   -0.026769
   113  H   -0.035144
   114  H   -0.028299
   115  H   -0.017541
   116  H   -0.004651
   117  H   -0.010030
   118  H   -0.026358
   119  H   -0.023797
   120  H   -0.032012
   121  H   -0.035874
   122  H   -0.033596
   123  H   -0.044115
   124  H   -0.041385
   125  H   -0.017764
   126  H   -0.017539
   127  H   -0.018445
   128  H   -0.032754
   129  H   -0.026922
   130  H   -0.019831
   131  H   -0.014723
   132  H   -0.031323
   133  H   -0.032815
   134  H   -0.033023
   135  H   -0.004746
   136  H   -0.016259
   137  H   -0.022687
   138  H   -0.018854
   139  H   -0.026742
   140  H   -0.022273
 Sum of Mulliken charges =  -0.00000

 Dipole moment (field-independent basis, Debye):
    X=              3.6501    Y=              5.4240    Z=             -1.5317  Tot=              6.7148
 Quadrupole moment (field-independent basis, Debye-Ang):
   XX=           -370.5908   YY=           -435.7601   ZZ=           -406.4832
   XY=             -1.7784   XZ=             19.3046   YZ=             -3.3326

 Normal termination of Gaussian 16 at Fri Apr 29 06:19:56 2022.
