 Gaussian 16, Revision A.03,
 Gaussian 16:  ES64L-G16RevA.03 25-Dec-2016

 -----------------------------------
 #p cam-b3lyp/Def2SVP td=(nstates=5)
 -----------------------------------

 -----------------------------------------------------
 step_1_chromophore_19 TDDFT with cam-b3lyp functional
 -----------------------------------------------------
 Symbolic Z-matrix:
 Charge =  0 Multiplicity = 1

                         Standard orientation:
 ---------------------------------------------------------------------
 Center     Atomic      Atomic             Coordinates (Angstroms)
 Number     Number       Type             X           Y           Z
 ---------------------------------------------------------------------
      1         12           0       -5.741834    0.461631   -0.159544
      2          6           0       -3.625530   -2.232099   -0.134337
      3          6           0       -3.154386    2.517824    0.366339
      4          6           0       -7.977496    2.977133    0.033380
      5          6           0       -8.540246   -1.859158   -0.205377
      6          7           0       -3.617081    0.105727    0.360686
      7          6           0       -2.946020   -1.041330    0.201010
      8          6           0       -1.362884   -0.809885    0.415036
      9          6           0       -1.336397    0.757962    0.556934
     10          6           0       -2.811183    1.199034    0.466074
     11          6           0       -0.567491    1.254949    1.796586
     12          6           0       -0.486655   -1.344746   -0.753064
     13          6           0        1.000674   -0.870508   -0.841748
     14          6           0        2.119442   -1.879354   -0.379277
     15          8           0        1.933934   -2.954964    0.192434
     16          8           0        3.385106   -1.298903   -0.615764
     17          7           0       -5.585740    2.485299    0.208375
     18          6           0       -4.456394    3.156796    0.295774
     19          6           0       -4.766775    4.572058    0.429507
     20          6           0       -6.181565    4.759777    0.449544
     21          6           0       -6.646688    3.374358    0.219247
     22          6           0       -3.755652    5.676396    0.689734
     23          6           0       -7.016864    6.013144    0.689180
     24          8           0       -8.211831    5.935603    0.959496
     25          6           0       -6.354886    7.343143    0.594204
     26          7           0       -7.957071    0.532463   -0.049746
     27          6           0       -8.610968    1.687717   -0.024770
     28          6           0      -10.126520    1.497953   -0.202518
     29          6           0      -10.196089   -0.001603   -0.479283
     30          6           0       -8.816789   -0.464989   -0.191986
     31          6           0      -11.051378    1.983512    0.923506
     32          6           0      -10.848705   -0.356628   -1.791305
     33          6           0      -12.180798   -1.183438   -1.702181
     34          7           0       -6.053046   -1.558027   -0.220133
     35          6           0       -7.226383   -2.378531   -0.320328
     36          6           0       -6.876776   -3.770632   -0.498893
     37          6           0       -5.457058   -3.699295   -0.441327
     38          6           0       -5.035563   -2.375255   -0.265722
     39          6           0       -7.703133   -4.962445   -0.832087
     40          6           0       -4.320411   -4.548148   -0.695095
     41          8           0       -4.181476   -5.700498   -1.131719
     42          6           0       -3.084472   -3.736208   -0.398336
     43          6           0       -2.471043   -4.248226    0.923567
     44          8           0       -3.068397   -4.555938    1.966404
     45          8           0       -1.119193   -4.300969    0.755447
     46          6           0       -0.294490   -4.807169    1.898063
     47          6           0        4.377949   -2.215824   -0.118890
     48          6           0        5.835527   -1.822235   -0.496116
     49          6           0        6.640713   -0.966232    0.210766
     50          6           0        6.241511   -0.132570    1.353983
     51          6           0        7.972582   -0.687014   -0.451011
     52          6           0        7.805417    0.364645   -1.603224
     53          6           0        8.438075    1.819153   -1.275140
     54          6           0        9.620870    2.260727   -2.206805
     55          6           0        8.980077    3.117729   -3.378669
     56          6           0       10.477184    1.053627   -2.732913
     57          6           0       12.009805    1.267707   -2.969162
     58          6           0       13.076972    0.314972   -2.208836
     59          6           0       13.779222    0.932335   -0.910538
     60          6           0       15.310701    0.995274   -0.960675
     61          6           0       13.232407    0.282732    0.386766
     62          6           0       11.779222    0.733537    0.682568
     63          6           0       11.430271    0.989069    2.175438
     64          6           0       11.776689   -0.208715    3.144236
     65          6           0       10.837557   -1.398599    3.076031
     66          6           0       11.888325    0.300581    4.576288
     67          1           0       -2.393247    3.299463    0.413085
     68          1           0       -8.766612    3.689400    0.283246
     69          1           0       -9.423916   -2.482266   -0.354346
     70          1           0       -1.157267   -1.300259    1.365847
     71          1           0       -0.858943    1.158315   -0.337384
     72          1           0        0.035958    2.102836    1.474324
     73          1           0        0.126406    0.503979    2.174434
     74          1           0       -1.255436    1.550946    2.588650
     75          1           0       -0.913418   -0.899395   -1.651736
     76          1           0       -0.463790   -2.434254   -0.732549
     77          1           0        1.113454   -0.055519   -0.126045
     78          1           0        1.223005   -0.613495   -1.876846
     79          1           0       -2.739707    5.283734    0.731242
     80          1           0       -3.978561    6.158627    1.641193
     81          1           0       -3.790510    6.447965   -0.078352
     82          1           0       -5.806819    7.320462   -0.348130
     83          1           0       -5.649199    7.710127    1.338855
     84          1           0       -7.066036    8.168271    0.575002
     85          1           0      -10.422612    2.044030   -1.097540
     86          1           0      -10.842203   -0.438455    0.281954
     87          1           0      -11.903558    2.411773    0.396370
     88          1           0      -10.522883    2.668549    1.586307
     89          1           0      -11.342517    1.208430    1.632370
     90          1           0      -10.132344   -1.032076   -2.257874
     91          1           0      -11.073728    0.507497   -2.415742
     92          1           0      -12.416562   -1.398584   -0.659617
     93          1           0      -12.005721   -2.131372   -2.211900
     94          1           0      -13.034078   -0.754828   -2.228025
     95          1           0       -8.717479   -4.656301   -1.086614
     96          1           0       -7.803309   -5.509103    0.104877
     97          1           0       -7.181078   -5.437977   -1.663661
     98          1           0       -2.431683   -3.925192   -1.250750
     99          1           0       -0.544511   -4.387100    2.872604
    100          1           0        0.781359   -4.720129    1.749790
    101          1           0       -0.546753   -5.863612    1.988071
    102          1           0        4.204484   -3.217311   -0.513142
    103          1           0        4.242104   -2.336149    0.956140
    104          1           0        6.311911   -2.419634   -1.273354
    105          1           0        5.171952    0.074661    1.316787
    106          1           0        6.758048    0.791085    1.093653
    107          1           0        6.612080   -0.433464    2.333854
    108          1           0        8.425728   -1.579719   -0.881952
    109          1           0        8.724149   -0.300829    0.238509
    110          1           0        6.734401    0.501459   -1.753533
    111          1           0        8.137222   -0.131062   -2.515570
    112          1           0        8.847814    1.854678   -0.265870
    113          1           0        7.647577    2.568499   -1.309770
    114          1           0       10.285899    2.835716   -1.562159
    115          1           0        8.820122    4.120793   -2.983200
    116          1           0        7.981450    2.787455   -3.663486
    117          1           0        9.730463    3.086637   -4.168044
    118          1           0       10.143065    0.756417   -3.727225
    119          1           0       10.431318    0.206004   -2.048716
    120          1           0       12.314307    2.290218   -2.743808
    121          1           0       12.147154    1.200243   -4.048035
    122          1           0       13.824461   -0.142284   -2.857143
    123          1           0       12.565956   -0.539455   -1.765023
    124          1           0       13.476939    1.974091   -0.803166
    125          1           0       15.719605    0.276498   -0.249731
    126          1           0       15.599941    1.997214   -0.643670
    127          1           0       15.667301    0.825333   -1.976109
    128          1           0       13.903064    0.591942    1.188382
    129          1           0       13.279460   -0.798953    0.262407
    130          1           0       11.173181   -0.119687    0.378439
    131          1           0       11.494262    1.595593    0.079633
    132          1           0       10.361229    1.185582    2.244552
    133          1           0       11.994238    1.871577    2.476864
    134          1           0       12.798883   -0.549530    2.983519
    135          1           0        9.998077   -1.268652    3.758977
    136          1           0       11.432740   -2.286059    3.291977
    137          1           0       10.571007   -1.495719    2.023404
    138          1           0       11.405664   -0.493116    5.147128
    139          1           0       11.463377    1.301753    4.643519
    140          1           0       12.930057    0.513188    4.818828
 ---------------------------------------------------------------------

 SCF Done:  E(RCAM-B3LYP) =  -3007.17997694     A.U. after   19 cycles

 Excitation energies and oscillator strengths:

 Excited State   1:      Singlet-A      1.7228 eV  719.68 nm  f=0.3930  <S**2>=0.000
     245 -> 248        0.17639
     246 -> 247        0.68369
     245 <- 248        0.10331
 This state for optimization and/or second-order correction.
 Total Energy, E(TD-HF/TD-DFT) =  -3007.11666612
 Copying the excited state density for this state as the 1-particle RhoCI density.

 Excited State   2:      Singlet-A      2.2662 eV  547.09 nm  f=0.1200  <S**2>=0.000
     245 -> 247        0.63897
     246 -> 248       -0.28685

 Excited State   3:      Singlet-A      3.3713 eV  367.77 nm  f=0.0007  <S**2>=0.000
     242 -> 247        0.49370
     242 -> 249       -0.20396
     242 -> 251        0.24546
     244 -> 247        0.34226

 Excited State   4:      Singlet-A      3.4623 eV  358.10 nm  f=0.0189  <S**2>=0.000
     242 -> 247       -0.34298
     244 -> 247        0.55368
     246 -> 248        0.18988

 Excited State   5:      Singlet-A      3.5237 eV  351.86 nm  f=0.6700  <S**2>=0.000
     241 -> 247        0.16257
     244 -> 247       -0.16265
     245 -> 247        0.27776
     246 -> 248        0.60009
     245 <- 247       -0.10214

 The electronic state is 1-A.
 Alpha  occ. eigenvalues --  -46.89079 -19.25524 -19.24590 -19.21486 -19.19445
 Alpha  occ. eigenvalues --  -19.18747 -19.17451 -14.41952 -14.41647 -14.39977
 Alpha  occ. eigenvalues --  -14.39148 -10.40455 -10.38840 -10.36006 -10.33099
 Alpha  occ. eigenvalues --  -10.31583 -10.31273 -10.30890 -10.30697 -10.30364
 Alpha  occ. eigenvalues --  -10.30259 -10.30184 -10.29927 -10.29884 -10.28661
 Alpha  occ. eigenvalues --  -10.28515 -10.28465 -10.28396 -10.27907 -10.27861
 Alpha  occ. eigenvalues --  -10.27813 -10.27733 -10.27422 -10.27418 -10.27381
 Alpha  occ. eigenvalues --  -10.26957 -10.26926 -10.26844 -10.26634 -10.26458
 Alpha  occ. eigenvalues --  -10.26423 -10.26370 -10.26290 -10.26175 -10.26135
 Alpha  occ. eigenvalues --  -10.26113 -10.26074 -10.25722 -10.25712 -10.25680
 Alpha  occ. eigenvalues --  -10.25636 -10.25616 -10.25596 -10.25573 -10.25567
 Alpha  occ. eigenvalues --  -10.25510 -10.25484 -10.25322 -10.25219 -10.25190
 Alpha  occ. eigenvalues --  -10.25052 -10.24984 -10.24809 -10.24426 -10.24255
 Alpha  occ. eigenvalues --  -10.24172  -3.17604  -1.92495  -1.92053  -1.91917
 Alpha  occ. eigenvalues --   -1.16338  -1.14631  -1.10297  -1.08444  -1.07701
 Alpha  occ. eigenvalues --   -1.05756  -1.05618  -1.04281  -1.03759  -1.02851
 Alpha  occ. eigenvalues --   -0.91063  -0.90527  -0.89823  -0.89777  -0.89216
 Alpha  occ. eigenvalues --   -0.88311  -0.88113  -0.87472  -0.87380  -0.87157
 Alpha  occ. eigenvalues --   -0.86888  -0.85004  -0.83466  -0.83176  -0.82942
 Alpha  occ. eigenvalues --   -0.82266  -0.81985  -0.81102  -0.80629  -0.80111
 Alpha  occ. eigenvalues --   -0.79755  -0.78425  -0.77936  -0.77350  -0.75945
 Alpha  occ. eigenvalues --   -0.75944  -0.75587  -0.75228  -0.75044  -0.74322
 Alpha  occ. eigenvalues --   -0.72893  -0.72384  -0.71555  -0.70109  -0.69283
 Alpha  occ. eigenvalues --   -0.68450  -0.67945  -0.67435  -0.67362  -0.66391
 Alpha  occ. eigenvalues --   -0.65728  -0.65537  -0.64613  -0.63917  -0.63416
 Alpha  occ. eigenvalues --   -0.62746  -0.62038  -0.61841  -0.61303  -0.60629
 Alpha  occ. eigenvalues --   -0.59664  -0.59466  -0.58826  -0.58555  -0.57970
 Alpha  occ. eigenvalues --   -0.57292  -0.56938  -0.56390  -0.56121  -0.55540
 Alpha  occ. eigenvalues --   -0.54844  -0.54707  -0.54299  -0.54232  -0.53879
 Alpha  occ. eigenvalues --   -0.53566  -0.53471  -0.53331  -0.53125  -0.52972
 Alpha  occ. eigenvalues --   -0.52685  -0.52486  -0.52313  -0.51878  -0.51650
 Alpha  occ. eigenvalues --   -0.51373  -0.50898  -0.50861  -0.50675  -0.50484
 Alpha  occ. eigenvalues --   -0.50378  -0.50263  -0.50044  -0.49956  -0.49687
 Alpha  occ. eigenvalues --   -0.49625  -0.49353  -0.49249  -0.48986  -0.48898
 Alpha  occ. eigenvalues --   -0.48866  -0.48598  -0.48148  -0.47949  -0.47864
 Alpha  occ. eigenvalues --   -0.47700  -0.47328  -0.46873  -0.46657  -0.46637
 Alpha  occ. eigenvalues --   -0.46570  -0.46171  -0.46065  -0.45867  -0.45576
 Alpha  occ. eigenvalues --   -0.45193  -0.45047  -0.44886  -0.44817  -0.44583
 Alpha  occ. eigenvalues --   -0.44363  -0.44311  -0.44218  -0.44088  -0.43912
 Alpha  occ. eigenvalues --   -0.43804  -0.43628  -0.43593  -0.43175  -0.43063
 Alpha  occ. eigenvalues --   -0.42774  -0.42730  -0.42459  -0.42406  -0.42008
 Alpha  occ. eigenvalues --   -0.41878  -0.41803  -0.41389  -0.41378  -0.41173
 Alpha  occ. eigenvalues --   -0.40993  -0.40890  -0.40649  -0.40292  -0.39853
 Alpha  occ. eigenvalues --   -0.39802  -0.39183  -0.39065  -0.38931  -0.38523
 Alpha  occ. eigenvalues --   -0.38260  -0.37754  -0.37713  -0.37694  -0.37147
 Alpha  occ. eigenvalues --   -0.36853  -0.36817  -0.36764  -0.36445  -0.36322
 Alpha  occ. eigenvalues --   -0.36059  -0.35786  -0.35571  -0.35450  -0.35123
 Alpha  occ. eigenvalues --   -0.34170  -0.33514  -0.33116  -0.31877  -0.30977
 Alpha  occ. eigenvalues --   -0.30485  -0.29732  -0.29611  -0.29514  -0.23785
 Alpha  occ. eigenvalues --   -0.20998
 Alpha virt. eigenvalues --   -0.08430  -0.01668   0.00685   0.01983   0.02736
 Alpha virt. eigenvalues --    0.04074   0.04501   0.06287   0.06345   0.07009
 Alpha virt. eigenvalues --    0.07593   0.07652   0.08501   0.08811   0.08900

 Mulliken charges:
               1
     1  Mg   0.831798
     2  C   -0.059988
     3  C   -0.068586
     4  C   -0.048800
     5  C   -0.064473
     6  N   -0.282066
     7  C   -0.064383
     8  C    0.020816
     9  C   -0.099935
    10  C    0.097166
    11  C    0.072731
    12  C    0.067017
    13  C    0.028189
    14  C    0.176268
    15  O   -0.232610
    16  O   -0.337947
    17  N   -0.351622
    18  C    0.093218
    19  C   -0.163280
    20  C   -0.023911
    21  C    0.113987
    22  C    0.115923
    23  C    0.042602
    24  O   -0.195982
    25  C    0.027216
    26  N   -0.202746
    27  C   -0.029989
    28  C   -0.063606
    29  C   -0.010598
    30  C   -0.014628
    31  C    0.084053
    32  C    0.049408
    33  C   -0.014669
    34  N   -0.364465
    35  C    0.118335
    36  C   -0.165185
    37  C   -0.032204
    38  C    0.165702
    39  C    0.154840
    40  C    0.031914
    41  O   -0.203095
    42  C    0.011407
    43  C    0.226573
    44  O   -0.240241
    45  O   -0.330055
    46  C    0.180306
    47  C    0.247382
    48  C   -0.099913
    49  C   -0.171268
    50  C    0.116796
    51  C    0.037413
    52  C    0.000460
    53  C    0.030878
    54  C   -0.117240
    55  C    0.049118
    56  C    0.026338
    57  C    0.016005
    58  C    0.056911
    59  C   -0.169500
    60  C    0.073404
    61  C    0.027970
    62  C    0.006221
    63  C    0.040815
    64  C   -0.194744
    65  C    0.070324
    66  C    0.065270
    67  H   -0.046216
    68  H    0.005499
    69  H   -0.021772
    70  H    0.018366
    71  H    0.013193
    72  H    0.012016
    73  H    0.018424
    74  H    0.028548
    75  H   -0.002107
    76  H    0.053320
    77  H    0.034166
    78  H    0.043520
    79  H    0.006852
    80  H    0.029640
    81  H    0.018940
    82  H    0.028626
    83  H    0.041681
    84  H    0.025522
    85  H    0.012363
    86  H   -0.000630
    87  H    0.023964
    88  H    0.022847
    89  H    0.007929
    90  H    0.006273
    91  H    0.011998
    92  H    0.013276
    93  H    0.012253
    94  H    0.019301
    95  H   -0.003245
    96  H    0.041858
    97  H    0.058717
    98  H    0.040655
    99  H    0.032281
   100  H    0.056179
   101  H    0.029295
   102  H    0.016223
   103  H    0.012110
   104  H   -0.003259
   105  H    0.024816
   106  H    0.003409
   107  H    0.038737
   108  H    0.005703
   109  H   -0.001352
   110  H    0.009811
   111  H    0.011129
   112  H   -0.004307
   113  H   -0.005340
   114  H    0.001202
   115  H    0.006974
   116  H    0.017861
   117  H    0.012007
   118  H    0.002595
   119  H   -0.000850
   120  H   -0.004744
   121  H   -0.006222
   122  H   -0.003646
   123  H   -0.015833
   124  H   -0.010460
   125  H    0.006211
   126  H    0.006730
   127  H    0.006152
   128  H   -0.004693
   129  H    0.000229
   130  H   -0.000447
   131  H    0.007204
   132  H   -0.005404
   133  H   -0.004796
   134  H   -0.001556
   135  H    0.017995
   136  H    0.009573
   137  H   -0.001788
   138  H    0.006238
   139  H   -0.001316
   140  H    0.002532
 Sum of Mulliken charges =  -0.00000

 Dipole moment (field-independent basis, Debye):
    X=              3.5199    Y=              6.0601    Z=             -1.6073  Tot=              7.1901
 Quadrupole moment (field-independent basis, Debye-Ang):
   XX=           -367.2016   YY=           -431.7007   ZZ=           -406.6101
   XY=             -4.5020   XZ=             20.7846   YZ=             -2.6859

 Normal termination of Gaussian 16 at Fri Apr 29 05:14:11 2022.
