 Gaussian 16, Revision A.03,
 Gaussian 16:  ES64L-G16RevA.03 25-Dec-2016

 ---------------------------------
 #p PBE1PBE/Def2SVP td=(nstates=5)
 ---------------------------------

 ---------------------------------------------------
 step_1_chromophore_19 TDDFT with PBE1PBE functional
 ---------------------------------------------------
 Symbolic Z-matrix:
 Charge =  0 Multiplicity = 1

                         Standard orientation:
 ---------------------------------------------------------------------
 Center     Atomic      Atomic             Coordinates (Angstroms)
 Number     Number       Type             X           Y           Z
 ---------------------------------------------------------------------
      1         12           0       -5.741834    0.461631   -0.159544
      2          6           0       -3.625530   -2.232099   -0.134337
      3          6           0       -3.154386    2.517824    0.366339
      4          6           0       -7.977496    2.977133    0.033380
      5          6           0       -8.540246   -1.859158   -0.205377
      6          7           0       -3.617081    0.105727    0.360686
      7          6           0       -2.946020   -1.041330    0.201010
      8          6           0       -1.362884   -0.809885    0.415036
      9          6           0       -1.336397    0.757962    0.556934
     10          6           0       -2.811183    1.199034    0.466074
     11          6           0       -0.567491    1.254949    1.796586
     12          6           0       -0.486655   -1.344746   -0.753064
     13          6           0        1.000674   -0.870508   -0.841748
     14          6           0        2.119442   -1.879354   -0.379277
     15          8           0        1.933934   -2.954964    0.192434
     16          8           0        3.385106   -1.298903   -0.615764
     17          7           0       -5.585740    2.485299    0.208375
     18          6           0       -4.456394    3.156796    0.295774
     19          6           0       -4.766775    4.572058    0.429507
     20          6           0       -6.181565    4.759777    0.449544
     21          6           0       -6.646688    3.374358    0.219247
     22          6           0       -3.755652    5.676396    0.689734
     23          6           0       -7.016864    6.013144    0.689180
     24          8           0       -8.211831    5.935603    0.959496
     25          6           0       -6.354886    7.343143    0.594204
     26          7           0       -7.957071    0.532463   -0.049746
     27          6           0       -8.610968    1.687717   -0.024770
     28          6           0      -10.126520    1.497953   -0.202518
     29          6           0      -10.196089   -0.001603   -0.479283
     30          6           0       -8.816789   -0.464989   -0.191986
     31          6           0      -11.051378    1.983512    0.923506
     32          6           0      -10.848705   -0.356628   -1.791305
     33          6           0      -12.180798   -1.183438   -1.702181
     34          7           0       -6.053046   -1.558027   -0.220133
     35          6           0       -7.226383   -2.378531   -0.320328
     36          6           0       -6.876776   -3.770632   -0.498893
     37          6           0       -5.457058   -3.699295   -0.441327
     38          6           0       -5.035563   -2.375255   -0.265722
     39          6           0       -7.703133   -4.962445   -0.832087
     40          6           0       -4.320411   -4.548148   -0.695095
     41          8           0       -4.181476   -5.700498   -1.131719
     42          6           0       -3.084472   -3.736208   -0.398336
     43          6           0       -2.471043   -4.248226    0.923567
     44          8           0       -3.068397   -4.555938    1.966404
     45          8           0       -1.119193   -4.300969    0.755447
     46          6           0       -0.294490   -4.807169    1.898063
     47          6           0        4.377949   -2.215824   -0.118890
     48          6           0        5.835527   -1.822235   -0.496116
     49          6           0        6.640713   -0.966232    0.210766
     50          6           0        6.241511   -0.132570    1.353983
     51          6           0        7.972582   -0.687014   -0.451011
     52          6           0        7.805417    0.364645   -1.603224
     53          6           0        8.438075    1.819153   -1.275140
     54          6           0        9.620870    2.260727   -2.206805
     55          6           0        8.980077    3.117729   -3.378669
     56          6           0       10.477184    1.053627   -2.732913
     57          6           0       12.009805    1.267707   -2.969162
     58          6           0       13.076972    0.314972   -2.208836
     59          6           0       13.779222    0.932335   -0.910538
     60          6           0       15.310701    0.995274   -0.960675
     61          6           0       13.232407    0.282732    0.386766
     62          6           0       11.779222    0.733537    0.682568
     63          6           0       11.430271    0.989069    2.175438
     64          6           0       11.776689   -0.208715    3.144236
     65          6           0       10.837557   -1.398599    3.076031
     66          6           0       11.888325    0.300581    4.576288
     67          1           0       -2.393247    3.299463    0.413085
     68          1           0       -8.766612    3.689400    0.283246
     69          1           0       -9.423916   -2.482266   -0.354346
     70          1           0       -1.157267   -1.300259    1.365847
     71          1           0       -0.858943    1.158315   -0.337384
     72          1           0        0.035958    2.102836    1.474324
     73          1           0        0.126406    0.503979    2.174434
     74          1           0       -1.255436    1.550946    2.588650
     75          1           0       -0.913418   -0.899395   -1.651736
     76          1           0       -0.463790   -2.434254   -0.732549
     77          1           0        1.113454   -0.055519   -0.126045
     78          1           0        1.223005   -0.613495   -1.876846
     79          1           0       -2.739707    5.283734    0.731242
     80          1           0       -3.978561    6.158627    1.641193
     81          1           0       -3.790510    6.447965   -0.078352
     82          1           0       -5.806819    7.320462   -0.348130
     83          1           0       -5.649199    7.710127    1.338855
     84          1           0       -7.066036    8.168271    0.575002
     85          1           0      -10.422612    2.044030   -1.097540
     86          1           0      -10.842203   -0.438455    0.281954
     87          1           0      -11.903558    2.411773    0.396370
     88          1           0      -10.522883    2.668549    1.586307
     89          1           0      -11.342517    1.208430    1.632370
     90          1           0      -10.132344   -1.032076   -2.257874
     91          1           0      -11.073728    0.507497   -2.415742
     92          1           0      -12.416562   -1.398584   -0.659617
     93          1           0      -12.005721   -2.131372   -2.211900
     94          1           0      -13.034078   -0.754828   -2.228025
     95          1           0       -8.717479   -4.656301   -1.086614
     96          1           0       -7.803309   -5.509103    0.104877
     97          1           0       -7.181078   -5.437977   -1.663661
     98          1           0       -2.431683   -3.925192   -1.250750
     99          1           0       -0.544511   -4.387100    2.872604
    100          1           0        0.781359   -4.720129    1.749790
    101          1           0       -0.546753   -5.863612    1.988071
    102          1           0        4.204484   -3.217311   -0.513142
    103          1           0        4.242104   -2.336149    0.956140
    104          1           0        6.311911   -2.419634   -1.273354
    105          1           0        5.171952    0.074661    1.316787
    106          1           0        6.758048    0.791085    1.093653
    107          1           0        6.612080   -0.433464    2.333854
    108          1           0        8.425728   -1.579719   -0.881952
    109          1           0        8.724149   -0.300829    0.238509
    110          1           0        6.734401    0.501459   -1.753533
    111          1           0        8.137222   -0.131062   -2.515570
    112          1           0        8.847814    1.854678   -0.265870
    113          1           0        7.647577    2.568499   -1.309770
    114          1           0       10.285899    2.835716   -1.562159
    115          1           0        8.820122    4.120793   -2.983200
    116          1           0        7.981450    2.787455   -3.663486
    117          1           0        9.730463    3.086637   -4.168044
    118          1           0       10.143065    0.756417   -3.727225
    119          1           0       10.431318    0.206004   -2.048716
    120          1           0       12.314307    2.290218   -2.743808
    121          1           0       12.147154    1.200243   -4.048035
    122          1           0       13.824461   -0.142284   -2.857143
    123          1           0       12.565956   -0.539455   -1.765023
    124          1           0       13.476939    1.974091   -0.803166
    125          1           0       15.719605    0.276498   -0.249731
    126          1           0       15.599941    1.997214   -0.643670
    127          1           0       15.667301    0.825333   -1.976109
    128          1           0       13.903064    0.591942    1.188382
    129          1           0       13.279460   -0.798953    0.262407
    130          1           0       11.173181   -0.119687    0.378439
    131          1           0       11.494262    1.595593    0.079633
    132          1           0       10.361229    1.185582    2.244552
    133          1           0       11.994238    1.871577    2.476864
    134          1           0       12.798883   -0.549530    2.983519
    135          1           0        9.998077   -1.268652    3.758977
    136          1           0       11.432740   -2.286059    3.291977
    137          1           0       10.571007   -1.495719    2.023404
    138          1           0       11.405664   -0.493116    5.147128
    139          1           0       11.463377    1.301753    4.643519
    140          1           0       12.930057    0.513188    4.818828
 ---------------------------------------------------------------------

 SCF Done:  E(RPBE1PBE) =  -3005.36787483     A.U. after   15 cycles

 Excitation energies and oscillator strengths:

 Excited State   1:      Singlet-A      1.8806 eV  659.27 nm  f=0.3796  <S**2>=0.000
     245 -> 248        0.16717
     246 -> 247        0.69048
     246 <- 247       -0.10517
 This state for optimization and/or second-order correction.
 Total Energy, E(TD-HF/TD-DFT) =  -3005.29876303
 Copying the excited state density for this state as the 1-particle RhoCI density.

 Excited State   2:      Singlet-A      2.2570 eV  549.33 nm  f=0.1195  <S**2>=0.000
     245 -> 247        0.65073
     246 -> 248       -0.25662

 Excited State   3:      Singlet-A      2.8107 eV  441.12 nm  f=0.0001  <S**2>=0.000
     244 -> 247        0.68073
     244 -> 249       -0.12286
     244 -> 250        0.12570

 Excited State   4:      Singlet-A      3.1238 eV  396.90 nm  f=0.0010  <S**2>=0.000
     242 -> 247        0.68830

 Excited State   5:      Singlet-A      3.2813 eV  377.85 nm  f=0.2648  <S**2>=0.000
     240 -> 247        0.16609
     241 -> 247        0.26174
     245 -> 247        0.19136
     246 -> 248        0.56291
     246 -> 249       -0.16391

 The electronic state is 1-A.
 Alpha  occ. eigenvalues --  -46.92478 -19.26226 -19.25276 -19.21777 -19.19584
 Alpha  occ. eigenvalues --  -19.19036 -19.17775 -14.41366 -14.41269 -14.39536
 Alpha  occ. eigenvalues --  -14.38831 -10.37538 -10.35926 -10.33071 -10.30294
 Alpha  occ. eigenvalues --  -10.29313 -10.28683 -10.28581 -10.28137 -10.27993
 Alpha  occ. eigenvalues --  -10.27949 -10.27806 -10.27701 -10.27689 -10.26284
 Alpha  occ. eigenvalues --  -10.26219 -10.26181 -10.26031 -10.25984 -10.25629
 Alpha  occ. eigenvalues --  -10.25462 -10.25458 -10.25087 -10.25076 -10.24842
 Alpha  occ. eigenvalues --  -10.24739 -10.24471 -10.24435 -10.24387 -10.24156
 Alpha  occ. eigenvalues --  -10.23960 -10.23847 -10.23819 -10.23762 -10.23715
 Alpha  occ. eigenvalues --  -10.23497 -10.23437 -10.23356 -10.23312 -10.23304
 Alpha  occ. eigenvalues --  -10.23238 -10.23238 -10.23213 -10.23156 -10.23085
 Alpha  occ. eigenvalues --  -10.23062 -10.23051 -10.22984 -10.22810 -10.22738
 Alpha  occ. eigenvalues --  -10.22560 -10.22463 -10.22190 -10.22049 -10.21824
 Alpha  occ. eigenvalues --  -10.21566  -3.14584  -1.87416  -1.86952  -1.86819
 Alpha  occ. eigenvalues --   -1.11148  -1.09432  -1.04959  -1.03325  -1.02488
 Alpha  occ. eigenvalues --   -1.00608  -1.00229  -0.98949  -0.98454  -0.97572
 Alpha  occ. eigenvalues --   -0.85463  -0.84664  -0.84136  -0.83848  -0.83435
 Alpha  occ. eigenvalues --   -0.82469  -0.82400  -0.81729  -0.81507  -0.81446
 Alpha  occ. eigenvalues --   -0.81201  -0.79262  -0.77715  -0.77411  -0.77185
 Alpha  occ. eigenvalues --   -0.76389  -0.76160  -0.75331  -0.74869  -0.74339
 Alpha  occ. eigenvalues --   -0.74100  -0.72754  -0.72183  -0.71642  -0.70285
 Alpha  occ. eigenvalues --   -0.70039  -0.69784  -0.69576  -0.69192  -0.68493
 Alpha  occ. eigenvalues --   -0.67279  -0.66791  -0.66011  -0.64438  -0.63640
 Alpha  occ. eigenvalues --   -0.62789  -0.62265  -0.61918  -0.61552  -0.60588
 Alpha  occ. eigenvalues --   -0.60183  -0.59989  -0.59179  -0.58517  -0.57554
 Alpha  occ. eigenvalues --   -0.57295  -0.56619  -0.56064  -0.55547  -0.55146
 Alpha  occ. eigenvalues --   -0.54169  -0.53916  -0.53408  -0.53197  -0.52612
 Alpha  occ. eigenvalues --   -0.51725  -0.51353  -0.50825  -0.50713  -0.50093
 Alpha  occ. eigenvalues --   -0.49394  -0.49049  -0.48900  -0.48808  -0.48358
 Alpha  occ. eigenvalues --   -0.47990  -0.47938  -0.47924  -0.47540  -0.47508
 Alpha  occ. eigenvalues --   -0.47021  -0.46989  -0.46842  -0.46507  -0.46232
 Alpha  occ. eigenvalues --   -0.46013  -0.45437  -0.45394  -0.45262  -0.45033
 Alpha  occ. eigenvalues --   -0.44989  -0.44830  -0.44636  -0.44485  -0.44277
 Alpha  occ. eigenvalues --   -0.44204  -0.43940  -0.43824  -0.43576  -0.43484
 Alpha  occ. eigenvalues --   -0.43430  -0.43220  -0.42776  -0.42638  -0.42446
 Alpha  occ. eigenvalues --   -0.42327  -0.42022  -0.41543  -0.41332  -0.41272
 Alpha  occ. eigenvalues --   -0.41194  -0.40965  -0.40806  -0.40531  -0.40314
 Alpha  occ. eigenvalues --   -0.39846  -0.39762  -0.39619  -0.39556  -0.39413
 Alpha  occ. eigenvalues --   -0.39126  -0.39064  -0.38956  -0.38813  -0.38687
 Alpha  occ. eigenvalues --   -0.38565  -0.38396  -0.38257  -0.38018  -0.37791
 Alpha  occ. eigenvalues --   -0.37655  -0.37482  -0.37256  -0.37211  -0.36787
 Alpha  occ. eigenvalues --   -0.36713  -0.36676  -0.36269  -0.36133  -0.35978
 Alpha  occ. eigenvalues --   -0.35847  -0.35765  -0.35490  -0.35100  -0.34822
 Alpha  occ. eigenvalues --   -0.34587  -0.34136  -0.33934  -0.33867  -0.33324
 Alpha  occ. eigenvalues --   -0.33238  -0.32766  -0.32576  -0.32534  -0.32040
 Alpha  occ. eigenvalues --   -0.31931  -0.31718  -0.31639  -0.31337  -0.31138
 Alpha  occ. eigenvalues --   -0.31102  -0.30733  -0.30552  -0.30383  -0.29991
 Alpha  occ. eigenvalues --   -0.29409  -0.28961  -0.28125  -0.26645  -0.26537
 Alpha  occ. eigenvalues --   -0.26049  -0.25212  -0.24970  -0.24550  -0.20738
 Alpha  occ. eigenvalues --   -0.18628
 Alpha virt. eigenvalues --   -0.10915  -0.05236  -0.03481  -0.01707  -0.00745
 Alpha virt. eigenvalues --   -0.00443  -0.00158   0.01548   0.02110   0.02952
 Alpha virt. eigenvalues --    0.04202   0.04332   0.04387   0.05305   0.05444

 Mulliken charges:
               1
     1  Mg   0.977406
     2  C   -0.063802
     3  C   -0.058750
     4  C   -0.038739
     5  C   -0.050765
     6  N   -0.386140
     7  C    0.010371
     8  C   -0.048332
     9  C   -0.177153
    10  C    0.129682
    11  C    0.014318
    12  C    0.013084
    13  C   -0.046948
    14  C    0.233172
    15  O   -0.263160
    16  O   -0.364536
    17  N   -0.473426
    18  C    0.127044
    19  C   -0.198059
    20  C   -0.063861
    21  C    0.137047
    22  C    0.055698
    23  C    0.090268
    24  O   -0.233652
    25  C   -0.043973
    26  N   -0.314482
    27  C    0.012816
    28  C   -0.143365
    29  C   -0.084851
    30  C    0.027604
    31  C    0.027400
    32  C   -0.011957
    33  C   -0.085033
    34  N   -0.493774
    35  C    0.127968
    36  C   -0.172866
    37  C   -0.075743
    38  C    0.220024
    39  C    0.096136
    40  C    0.120546
    41  O   -0.247809
    42  C   -0.095706
    43  C    0.317936
    44  O   -0.273593
    45  O   -0.362053
    46  C    0.124087
    47  C    0.203134
    48  C   -0.107230
    49  C   -0.211077
    50  C    0.047983
    51  C   -0.037794
    52  C   -0.059608
    53  C   -0.023510
    54  C   -0.198933
    55  C   -0.015358
    56  C   -0.035521
    57  C   -0.043112
    58  C    0.003479
    59  C   -0.247877
    60  C    0.011756
    61  C   -0.030604
    62  C   -0.064815
    63  C   -0.020718
    64  C   -0.278815
    65  C    0.001283
    66  C    0.004114
    67  H   -0.010226
    68  H    0.035413
    69  H    0.008467
    70  H    0.056342
    71  H    0.050716
    72  H    0.038778
    73  H    0.045394
    74  H    0.056412
    75  H    0.031750
    76  H    0.089128
    77  H    0.069464
    78  H    0.073939
    79  H    0.034741
    80  H    0.058289
    81  H    0.046965
    82  H    0.055974
    83  H    0.066151
    84  H    0.053092
    85  H    0.050221
    86  H    0.038944
    87  H    0.051163
    88  H    0.050196
    89  H    0.035011
    90  H    0.041480
    91  H    0.043863
    92  H    0.039769
    93  H    0.039650
    94  H    0.046718
    95  H    0.025169
    96  H    0.069843
    97  H    0.084284
    98  H    0.074469
    99  H    0.053828
   100  H    0.078756
   101  H    0.052008
   102  H    0.043991
   103  H    0.039859
   104  H    0.025745
   105  H    0.052412
   106  H    0.034610
   107  H    0.065833
   108  H    0.037565
   109  H    0.038703
   110  H    0.043508
   111  H    0.042062
   112  H    0.028922
   113  H    0.027159
   114  H    0.037750
   115  H    0.035690
   116  H    0.045473
   117  H    0.040613
   118  H    0.034948
   119  H    0.035963
   120  H    0.027488
   121  H    0.026340
   122  H    0.027682
   123  H    0.017580
   124  H    0.027918
   125  H    0.033743
   126  H    0.034617
   127  H    0.033527
   128  H    0.028385
   129  H    0.033320
   130  H    0.033619
   131  H    0.045563
   132  H    0.028317
   133  H    0.028562
   134  H    0.036252
   135  H    0.044617
   136  H    0.038617
   137  H    0.029216
   138  H    0.033934
   139  H    0.026536
   140  H    0.030345
 Sum of Mulliken charges =  -0.00000

 Dipole moment (field-independent basis, Debye):
    X=              3.6135    Y=              6.0071    Z=             -1.6240  Tot=              7.1958
 Quadrupole moment (field-independent basis, Debye-Ang):
   XX=           -361.5257   YY=           -429.1311   ZZ=           -404.1982
   XY=             -3.2841   XZ=             21.0862   YZ=             -2.5458

 Normal termination of Gaussian 16 at Fri Apr 29 05:36:51 2022.
